<event>
12    1  0.1594973E-001  0.2180851E+03  0.7818608E-02  0.1135403E+00
         21   -1    0    0  501  502  0.00000000000E+00  0.00000000000E+00  0.15618484453E+03  0.15618484453E+03  0.00000000000E+00 0. -1.
         21   -1    0    0  502  503 -0.00000000000E+00 -0.00000000000E+00 -0.48237434738E+03  0.48237434738E+03  0.00000000000E+00 0.  1.
         -6    2    1    2    0  503 -0.11017344509E+03 -0.77188723963E+02 -0.35741244657E+03  0.41869413978E+03  0.17165325111E+03 0.  0.
        -24    2    3    3    0    0 -0.20019512790E+02 -0.33118157302E+02 -0.63221610955E+02  0.10782393517E+03  0.78303484398E+02 0.  0.
          6    2    1    2  501    0  0.11017344509E+03  0.77188723963E+02  0.31222943714E+02  0.21986505213E+03  0.17108325992E+03 0.  0.
         24    2    5    5    0    0  0.53174034213E+02  0.45145837553E+02 -0.48926135542E+02  0.11631967891E+03  0.79188865379E+02 0.  0.
          5    1    5    5  501    0  0.56999410876E+02  0.32042886410E+02  0.80149079256E+02  0.10354537322E+03  0.47000000000E+01 0. -1.
        -13    1    6    6    0    0  0.73291080569E+02  0.43636549460E+02 -0.38032438497E+02  0.93392704843E+02  0.00000000000E+00 0.  1.
         14    1    6    6    0    0 -0.20117046356E+02  0.15092880933E+01 -0.10893697045E+02  0.22926974069E+02  0.00000000000E+00 0. -1.
         -5    1    3    3    0  503 -0.90153932299E+02 -0.44070566661E+02 -0.29419083561E+03  0.31087020461E+03  0.47000000000E+01 0.  1.
         11    1    4    4    0    0  0.42722202448E+01 -0.45221920127E+02 -0.66451006007E+02  0.80492298545E+02  0.00000000000E+00 0. -1.
        -12    1    4    4    0    0 -0.24291733035E+02  0.12103762824E+02  0.32293950514E+01  0.27331636628E+02  0.00000000000E+00 0.  1.
</event>
<event>
12    1  0.1594973E-001  0.1835121E+03  0.7818608E-02  0.1165017E+00
         21   -1    0    0  503  502  0.00000000000E+00  0.00000000000E+00  0.18381597192E+04  0.18381597192E+04  0.00000000000E+00 0. -1.
         21   -1    0    0  501  503 -0.00000000000E+00 -0.00000000000E+00 -0.18141074311E+02  0.18141074311E+02  0.00000000000E+00 0. -1.
          6    2    1    2  501    0  0.13110208195E+02  0.57901039498E+02  0.86298236179E+03  0.88227844040E+03  0.17364412372E+03 0.  0.
         24    2    3    3    0    0 -0.96414805217E+01  0.10065872620E+03  0.51216229537E+03  0.52809957582E+03  0.79710776428E+02 0.  0.
         -6    2    1    2    0  502 -0.13110208195E+02 -0.57901039498E+02  0.95703628310E+03  0.97402235311E+03  0.17110432272E+03 0.  0.
        -24    2    5    5    0    0 -0.67803944946E+02 -0.56736236479E+02  0.51494813279E+03  0.52853746645E+03  0.79774046459E+02 0.  0.
          5    1    3    3  501    0  0.22751688717E+02 -0.42757686698E+02  0.35082006642E+03  0.35417886458E+03  0.47000000000E+01 0. -1.
        -13    1    4    4    0    0 -0.33246907738E+02  0.49050960042E+02  0.14602191809E+03  0.15758729047E+03  0.00000000000E+00 0.  1.
         14    1    4    4    0    0  0.23605427216E+02  0.51607766154E+02  0.36614037728E+03  0.37051228535E+03  0.00000000000E+00 0. -1.
         -5    1    5    5    0  502  0.54693736751E+02 -0.11648030196E+01  0.44208815030E+03  0.44548488666E+03  0.47000000000E+01 0.  1.
         11    1    6    6    0    0 -0.19365808581E+02  0.80636992262E+01  0.28391905814E+02  0.35300964618E+02  0.00000000000E+00 0. -1.
        -12    1    6    6    0    0 -0.48438136365E+02 -0.64799935705E+02  0.48655622698E+03  0.49323650183E+03  0.00000000000E+00 0.  1.
</event>
<event>
12    1  0.1594973E-001  0.1853026E+03  0.7818608E-02  0.1162781E+00
         21   -1    0    0  501  502  0.00000000000E+00  0.00000000000E+00  0.39121416990E+02  0.39121416990E+02  0.00000000000E+00 0.  1.
         21   -1    0    0  502  503 -0.00000000000E+00 -0.00000000000E+00 -0.96194283965E+03  0.96194283965E+03  0.00000000000E+00 0.  1.
         -6    2    1    2    0  503 -0.38113301280E+02  0.59484603927E+02 -0.60983170853E+03  0.63736312896E+03  0.17130675288E+03 0.  0.
        -24    2    3    3    0    0 -0.87904956504E+02  0.44355184625E+02 -0.50173284097E+03  0.51729829885E+03  0.78530392277E+02 0.  0.
          6    2    1    2  501    0  0.38113301280E+02 -0.59484603927E+02 -0.31298971413E+03  0.36370112769E+03  0.17124516721E+03 0.  0.
         24    2    5    5    0    0 -0.16290039591E+02 -0.43918404048E+02 -0.76167384539E+02  0.12016686753E+03  0.80277107453E+02 0.  0.
          5    1    5    5  501    0  0.54403340871E+02 -0.15566199879E+02 -0.23682232959E+03  0.24353426016E+03  0.47000000000E+01 0. -1.
        -11    1    6    6    0    0 -0.73081947726E+01 -0.50678930498E+02 -0.89052922641E+01  0.51971799445E+02  0.00000000000E+00 0.  1.
         12    1    6    6    0    0 -0.89818448188E+01  0.67605264497E+01 -0.67262092275E+02  0.68195068087E+02  0.00000000000E+00 0. -1.
         -5    1    3    3    0  503  0.49791655224E+02  0.15129419303E+02 -0.10809886757E+03  0.12006483010E+03  0.47000000000E+01 0.  1.
         11    1    4    4    0    0 -0.79489754969E+02  0.38045808696E+02 -0.24529503862E+03  0.26064489383E+03  0.00000000000E+00 0. -1.
        -12    1    4    4    0    0 -0.84152015349E+01  0.63093759283E+01 -0.25643780234E+03  0.25665340503E+03  0.00000000000E+00 0.  1.
</event>
<event>
12    1  0.1594973E-001  0.1889315E+03  0.7818608E-02  0.1159472E+00
         21   -1    0    0  501  502  0.00000000000E+00  0.00000000000E+00  0.30810680254E+03  0.30810680254E+03  0.00000000000E+00 0. -1.
         21   -1    0    0  502  503 -0.00000000000E+00 -0.00000000000E+00 -0.17094238645E+03  0.17094238645E+03  0.00000000000E+00 0. -1.
         -6    2    1    2    0  503  0.79489836038E+02 -0.25764201369E+01 -0.67513894930E+02  0.20063208641E+03  0.17137629975E+03 0.  0.
        -24    2    3    3    0    0  0.30314794140E+02  0.14668353826E+02  0.28328664128E+02  0.91437521064E+02  0.80150855887E+02 0.  0.
          6    2    1    2  501    0 -0.79489836038E+02  0.25764201369E+01  0.20467831102E+03  0.27841710258E+03  0.17116541716E+03 0.  0.
         24    2    5    5    0    0 -0.57160417552E+02 -0.20045948336E+01  0.22603707469E+03  0.24682793651E+03  0.80993452644E+02 0.  0.
          5    1    5    5  501    0 -0.22329418486E+02  0.45810149705E+01 -0.21358763665E+02  0.31589166076E+02  0.47000000000E+01 0. -1.
        -13    1    6    6    0    0 -0.35655470176E+01  0.34200722932E+02  0.83492460196E+02  0.90296143241E+02  0.00000000000E+00 0.  1.
         14    1    6    6    0    0 -0.53594870534E+02 -0.36205317766E+02  0.14254461449E+03  0.15653179327E+03  0.00000000000E+00 0. -1.
         -5    1    3    3    0  503  0.49175041898E+02 -0.17244773963E+02 -0.95842559057E+02  0.10919456535E+03  0.47000000000E+01 0.  1.
         11    1    4    4    0    0  0.38497697566E+02 -0.15360286404E+02 -0.94268660840E+01  0.42507374895E+02  0.00000000000E+00 0. -1.
        -12    1    4    4    0    0 -0.81829034263E+01  0.30028640231E+02  0.37755530211E+02  0.48930146169E+02  0.00000000000E+00 0.  1.
</event>
<event>
12    1  0.1594973E-001  0.2058767E+03  0.7818608E-02  0.1148715E+00
         21   -1    0    0  503  502  0.00000000000E+00  0.00000000000E+00  0.84756157190E+02  0.84756157190E+02  0.00000000000E+00 0. -1.
         21   -1    0    0  501  503 -0.00000000000E+00 -0.00000000000E+00 -0.49423907125E+03  0.49423907125E+03  0.00000000000E+00 0. -1.
          6    2    1    2  501    0 -0.17882756726E+02 -0.11227620090E+03 -0.11700336300E+03  0.22132289048E+03  0.14956034440E+03 0.  0.
         24    2    3    3    0    0 -0.57680878236E+02 -0.94480361847E+02 -0.58066579320E+02  0.14786394388E+03  0.78983515866E+02 0.  0.
         -6    2    1    2    0  502  0.17882756726E+02  0.11227620090E+03 -0.29247955106E+03  0.35767233797E+03  0.17163762782E+03 0.  0.
        -24    2    5    5    0    0  0.62847315328E+02  0.20709127085E+02 -0.15107721016E+03  0.18325028504E+03  0.79860444196E+02 0.  0.
          5    1    3    3  501    0  0.39798121509E+02 -0.17795839051E+02 -0.58936783684E+02  0.73458946591E+02  0.47000000000E+01 0. -1.
        -13    1    4    4    0    0 -0.15269844086E+02 -0.77564244355E+02 -0.64141617767E+02  0.10180141095E+03  0.00000000000E+00 0.  1.
         14    1    4    4    0    0 -0.42411034149E+02 -0.16916117492E+02  0.60750384476E+01  0.46062532939E+02  0.00000000000E+00 0. -1.
         -5    1    5    5    0  502 -0.44964558602E+02  0.91567073814E+02 -0.14140234090E+03  0.17442205293E+03  0.47000000000E+01 0.  1.
         13    1    6    6    0    0  0.31476265710E+02  0.24940067015E+02 -0.14571069803E+03  0.15114354027E+03  0.00000000000E+00 0. -1.
        -14    1    6    6    0    0  0.31371049618E+02 -0.42309399305E+01 -0.53665121310E+01  0.32106744763E+02  0.00000000000E+00 0.  1.
</event>
<event>
12    1  0.1594973E-001  0.2677094E+03  0.7818608E-02  0.1103649E+00
         21   -1    0    0  501  502  0.00000000000E+00  0.00000000000E+00  0.10875203374E+04  0.10875203374E+04  0.00000000000E+00 0. -1.
         21   -1    0    0  502  503 -0.00000000000E+00 -0.00000000000E+00 -0.82139555083E+02  0.82139555083E+02  0.00000000000E+00 0.  1.
         -6    2    1    2    0  503  0.19589284334E+03 -0.21771979498E+02  0.23433537888E+03  0.35578276455E+03  0.18116368454E+03 0.  0.
        -24    2    3    3    0    0  0.64942085019E+02 -0.61808156062E+02  0.16492493135E+03  0.20218948096E+03  0.75117445836E+02 0.  0.
          6    2    1    2  501    0 -0.19589284334E+03  0.21771979498E+02  0.77104540346E+03  0.81387712795E+03  0.17040228884E+03 0.  0.
         24    2    5    5    0    0 -0.21635303319E+03  0.86645292813E+01  0.63230241266E+03  0.67294405123E+03  0.78508891112E+02 0.  0.
          5    1    5    5  501    0  0.20460189851E+02  0.13107450217E+02  0.13874299080E+03  0.14093307673E+03  0.47000000000E+01 0. -1.
        -11    1    6    6    0    0 -0.82557444880E+02 -0.29817748965E+02  0.19104436460E+03  0.21024456974E+03  0.00000000000E+00 0.  1.
         12    1    6    6    0    0 -0.13379558831E+03  0.38482278246E+02  0.44125804807E+03  0.46269948149E+03  0.00000000000E+00 0. -1.
         -5    1    3    3    0  503  0.13095075832E+03  0.40036176564E+02  0.69410447528E+02  0.15359328359E+03  0.47000000000E+01 0.  1.
         13    1    4    4    0    0  0.14382920217E+01  0.15905164932E+02  0.30560847656E+02  0.34482000593E+02  0.00000000000E+00 0. -1.
        -14    1    4    4    0    0  0.63503792997E+02 -0.77713320994E+02  0.13436408369E+03  0.16770748037E+03  0.00000000000E+00 0.  1.
</event>
<event>
12    1  0.1594973E-001  0.2148261E+03  0.7818608E-02  0.1138132E+00
         21   -1    0    0  503  502  0.00000000000E+00  0.00000000000E+00  0.52875867673E+03  0.52875867673E+03  0.00000000000E+00 0.  1.
         21   -1    0    0  501  503 -0.00000000000E+00 -0.00000000000E+00 -0.51919140442E+03  0.51919140442E+03  0.00000000000E+00 0.  1.
          6    2    1    2  501    0 -0.57165760772E+02 -0.10111551771E+03 -0.47351143001E+03  0.51925802410E+03  0.17867162369E+03 0.  0.
         24    2    3    3    0    0 -0.76498621731E+02 -0.10109598759E+03 -0.25089951599E+03  0.29575877542E+03  0.91925232013E+02 0.  0.
         -6    2    1    2    0  502  0.57165760772E+02  0.10111551771E+03  0.48307870232E+03  0.52869205705E+03  0.18071520808E+03 0.  0.
        -24    2    5    5    0    0  0.70495788626E+02  0.53128247813E+02  0.45692476747E+03  0.47224220300E+03  0.80250783373E+02 0.  0.
          5    1    3    3  501    0  0.19332860959E+02 -0.19530119243E-01 -0.22261191402E+03  0.22349924867E+03  0.47000000000E+01 0. -1.
        -11    1    4    4    0    0 -0.36391466613E+02 -0.10720582420E+03 -0.15787893595E+03  0.19427605617E+03  0.00000000000E+00 0.  1.
         12    1    4    4    0    0 -0.40107155118E+02  0.61098366104E+01 -0.93020580045E+02  0.10148271925E+03  0.00000000000E+00 0. -1.
         -5    1    5    5    0  502 -0.13330027854E+02  0.47987269899E+02  0.26153934842E+02  0.56449854054E+02  0.47000000000E+01 0.  1.
         11    1    6    6    0    0  0.36396025991E+02  0.46433479665E+02  0.40793269552E+03  0.41217693145E+03  0.00000000000E+00 0. -1.
        -12    1    6    6    0    0  0.34099762635E+02  0.66947681480E+01  0.48992071952E+02  0.60065271551E+02  0.00000000000E+00 0.  1.
</event>
<event>
12    1  0.1594973E-001  0.2080650E+03  0.7818608E-02  0.1143532E+00
         21   -1    0    0  501  502  0.00000000000E+00  0.00000000000E+00  0.52869425278E+03  0.52869425278E+03  0.00000000000E+00 0.  1.
         21   -1    0    0  502  503 -0.00000000000E+00 -0.00000000000E+00 -0.93714859129E+02  0.93714859129E+02  0.00000000000E+00 0.  1.
         -6    2    1    2    0  503 -0.68883269802E+02  0.92311799650E+02  0.10215361281E+03  0.22989916694E+03  0.17073925481E+03 0.  0.
        -24    2    3    3    0    0 -0.87311913782E+02  0.86372572409E+02  0.12994779777E+03  0.19570127144E+03  0.79554798386E+02 0.  0.
          6    2    1    2  501    0  0.68883269802E+02 -0.92311799650E+02  0.33282578083E+03  0.39250994497E+03  0.17327632065E+03 0.  0.
         24    2    5    5    0    0  0.38491397101E+02 -0.12482346137E+02  0.62400952647E+02  0.10887622823E+03  0.79515769289E+02 0.  0.
          5    1    5    5  501    0  0.30391872701E+02 -0.79829453513E+02  0.27042482819E+03  0.28363371674E+03  0.47000000000E+01 0. -1.
        -13    1    6    6    0    0  0.24656144135E+02 -0.37250089140E+02  0.66603410831E+02  0.80196688952E+02  0.00000000000E+00 0.  1.
         14    1    6    6    0    0  0.13835252966E+02  0.24767743004E+02 -0.42024581844E+01  0.28679539273E+02  0.00000000000E+00 0. -1.
         -5    1    3    3    0  503  0.18428643980E+02  0.59392272409E+01 -0.27794184952E+02  0.34197895496E+02  0.47000000000E+01 0.  1.
         11    1    4    4    0    0  0.14361511078E+02  0.16791719314E+02  0.28781470674E+02  0.36284816275E+02  0.00000000000E+00 0. -1.
        -12    1    4    4    0    0 -0.10167342486E+03  0.69580853095E+02  0.10116632709E+03  0.15941645516E+03  0.00000000000E+00 0.  1.
</event>
<event>
12    1  0.1594973E-001  0.2753143E+03  0.7818608E-02  0.1098700E+00
         21   -1    0    0  501  502  0.00000000000E+00  0.00000000000E+00  0.15324560444E+03  0.15324560444E+03  0.00000000000E+00 0. -1.
         21   -1    0    0  502  503 -0.00000000000E+00 -0.00000000000E+00 -0.55352106276E+03  0.55352106276E+03  0.00000000000E+00 0.  1.
         -6    2    1    2    0  503  0.18406270728E+03  0.10980617911E+03 -0.31961883607E+03  0.41988088769E+03  0.16795023755E+03 0.  0.
        -24    2    3    3    0    0  0.17868036228E+03  0.60317107641E+02 -0.16950846578E+03  0.26166157439E+03  0.64566509908E+02 0.  0.
          6    2    1    2  501    0 -0.18406270728E+03 -0.10980617911E+03 -0.80656622254E+02  0.28688577952E+03  0.17280475282E+03 0.  0.
         24    2    5    5    0    0 -0.70275970530E+02 -0.71920119253E+02 -0.10403872578E+03  0.16460909427E+03  0.78491285290E+02 0.  0.
          5    1    5    5  501    0 -0.11378673675E+03 -0.37886059855E+02  0.23382103525E+02  0.12227668525E+03  0.47000000000E+01 0. -1.
        -13    1    6    6    0    0 -0.46560619793E+02 -0.69578611746E+02 -0.33535090690E+02  0.90186899468E+02  0.00000000000E+00 0.  1.
         14    1    6    6    0    0 -0.23715350737E+02 -0.23415075063E+01 -0.70503635089E+02  0.74422194799E+02  0.00000000000E+00 0. -1.
         -5    1    3    3    0  503  0.53823449990E+01  0.49489071467E+02 -0.15011037029E+03  0.15821931330E+03  0.47000000000E+01 0.  1.
         11    1    4    4    0    0  0.12142419220E+03  0.79931919131E+01 -0.10718364245E+03  0.16216059564E+03  0.00000000000E+00 0. -1.
        -12    1    4    4    0    0  0.57256170077E+02  0.52323915728E+02 -0.62324823324E+02  0.99500978746E+02  0.00000000000E+00 0.  1.
</event>
<event>
12    1  0.1594973E-001  0.1925367E+03  0.7818608E-02  0.1156631E+00
         21   -1    0    0  503  502  0.00000000000E+00  0.00000000000E+00  0.49934713731E+03  0.49934713731E+03  0.00000000000E+00 0.  1.
         21   -1    0    0  501  503 -0.00000000000E+00 -0.00000000000E+00 -0.79019002755E+02  0.79019002755E+02  0.00000000000E+00 0. -1.
          6    2    1    2  501    0 -0.22644405224E+02  0.83514152938E+02  0.28571499110E+03  0.34343831621E+03  0.16979233809E+03 0.  0.
         24    2    3    3    0    0 -0.50559683076E+01 -0.18368614650E+02  0.15024250186E+03  0.17295565790E+03  0.83533714234E+02 0.  0.
         -6    2    1    2    0  502  0.22644405224E+02 -0.83514152938E+02  0.13461314345E+03  0.23492782385E+03  0.17199709649E+03 0.  0.
        -24    2    5    5    0    0  0.24963010225E+02 -0.17601590942E+02 -0.13682164298E+02  0.72559630974E+02  0.64379581733E+02 0.  0.
          5    1    3    3  501    0 -0.17588436917E+02  0.10188276759E+03  0.13547248924E+03  0.17048265831E+03  0.47000000000E+01 0. -1.
        -13    1    4    4    0    0 -0.19133075873E+02  0.27108788973E+02  0.91586381269E+02  0.97411633114E+02  0.00000000000E+00 0.  1.
         14    1    4    4    0    0  0.14077107565E+02 -0.45477403623E+02  0.58656120591E+02  0.75544024783E+02  0.00000000000E+00 0. -1.
         -5    1    5    5    0  502 -0.23186050013E+01 -0.65912561996E+02  0.14829530775E+03  0.16236819288E+03  0.47000000000E+01 0.  1.
         13    1    6    6    0    0 -0.88779980393E+01 -0.32010335866E+02  0.27475330368E+00  0.33219812474E+02  0.00000000000E+00 0. -1.
        -14    1    6    6    0    0  0.33841008265E+02  0.14408744924E+02 -0.13956917602E+02  0.39339818500E+02  0.00000000000E+00 0.  1.
</event>
<event>
12    1  0.1594973E-001  0.3093742E+03  0.7818608E-02  0.1080767E+00
         21   -1    0    0  501  502  0.00000000000E+00  0.00000000000E+00  0.30398466966E+03  0.30398466966E+03  0.00000000000E+00 0.  1.
         21   -1    0    0  502  503 -0.00000000000E+00 -0.00000000000E+00 -0.17567562087E+04  0.17567562087E+04  0.00000000000E+00 0. -1.
         -6    2    1    2    0  503 -0.67322531701E+01  0.25688402777E+03 -0.16599843990E+04  0.16883841064E+04  0.17046395224E+03 0.  0.
        -24    2    3    3    0    0  0.67957583472E+01  0.13515929140E+03 -0.55809291726E+03  0.57969711452E+03  0.79163273677E+02 0.  0.
          6    2    1    2  501    0  0.67322531701E+01 -0.25688402777E+03  0.20721285989E+03  0.37235677199E+03  0.17227207953E+03 0.  0.
         24    2    5    5    0    0  0.18370643890E+02 -0.22373242324E+03  0.99787117716E+02  0.25923355994E+03  0.82770115216E+02 0.  0.
          5    1    5    5  501    0 -0.11638390720E+02 -0.33151604529E+02  0.10742574218E+03  0.11312321205E+03  0.47000000000E+01 0. -1.
        -11    1    6    6    0    0 -0.20841403751E+02 -0.16824675049E+03  0.85219660451E+02  0.18974647214E+03  0.00000000000E+00 0.  1.
         12    1    6    6    0    0  0.39212047641E+02 -0.55485672750E+02  0.14567457265E+02  0.69487087807E+02  0.00000000000E+00 0. -1.
         -5    1    3    3    0  503 -0.13528011517E+02  0.12172473637E+03 -0.11018914817E+04  0.11086869919E+04  0.47000000000E+01 0.  1.
         13    1    4    4    0    0 -0.33197856918E+02  0.70237889699E+02 -0.33650995087E+03  0.34536126865E+03  0.00000000000E+00 0. -1.
        -14    1    4    4    0    0  0.39993615265E+02  0.64921401698E+02 -0.22158296639E+03  0.23433584586E+03  0.00000000000E+00 0.  1.
</event>
<event>
12    1  0.1594973E-001  0.1821674E+03  0.7818608E-02  0.1165771E+00
         21   -1    0    0  503  502  0.00000000000E+00  0.00000000000E+00  0.17440805437E+04  0.17440805437E+04  0.00000000000E+00 0. -1.
         21   -1    0    0  501  503 -0.00000000000E+00 -0.00000000000E+00 -0.61833275851E+02  0.61833275851E+02  0.00000000000E+00 0. -1.
          6    2    1    2  501    0 -0.46345015176E+02 -0.39588440555E+02  0.89789626891E+02  0.20309388323E+03  0.17166782824E+03 0.  0.
         24    2    3    3    0    0  0.14724686107E+02  0.30780569601E+02  0.26624795757E+02  0.90429816659E+02  0.79400328374E+02 0.  0.
         -6    2    1    2    0  502  0.46345015176E+02  0.39588440555E+02  0.15924576410E+04  0.16028199363E+04  0.17145059041E+03 0.  0.
        -24    2    5    5    0    0  0.36681004607E+02  0.91853792828E+02  0.12182989856E+04  0.12248756950E+04  0.79280732757E+02 0.  0.
          5    1    3    3  501    0 -0.61069701283E+02 -0.70369010156E+02  0.63164831133E+02  0.11266406657E+03  0.47000000000E+01 0. -1.
        -11    1    4    4    0    0  0.65823833017E+01  0.86580373621E+00  0.50727336303E+02  0.51159945607E+02  0.00000000000E+00 0.  1.
         12    1    4    4    0    0  0.81423028051E+01  0.29914765865E+02 -0.24102540546E+02  0.39269871053E+02  0.00000000000E+00 0. -1.
         -5    1    5    5    0  502  0.96640105688E+01 -0.52265352273E+02  0.37415865539E+03  0.37794424133E+03  0.47000000000E+01 0.  1.
         13    1    6    6    0    0  0.25834177438E+02  0.31439978397E+02  0.17082299269E+03  0.17560288095E+03  0.00000000000E+00 0. -1.
        -14    1    6    6    0    0  0.10846827169E+02  0.60413814431E+02  0.10474759929E+04  0.10492728141E+04  0.00000000000E+00 0.  1.
</event>
<event>
12    1  0.1594973E-001  0.1823107E+03  0.7818608E-02  0.1167700E+00
         21   -1    0    0  501  502  0.00000000000E+00  0.00000000000E+00  0.34342848623E+02  0.34342848623E+02  0.00000000000E+00 0. -1.
         21   -1    0    0  502  503 -0.00000000000E+00 -0.00000000000E+00 -0.92283408850E+03  0.92283408850E+03  0.00000000000E+00 0. -1.
         -6    2    1    2    0  503 -0.54946834278E+02 -0.25184744465E+02 -0.42293366363E+03  0.45719590491E+03  0.16279369055E+03 0.  0.
        -24    2    3    3    0    0 -0.71755875219E+02 -0.63025777366E+02 -0.24247869606E+03  0.27199176632E+03  0.77861727851E+02 0.  0.
          6    2    1    2  501    0  0.54946834278E+02  0.25184744465E+02 -0.46555757624E+03  0.49998103221E+03  0.17199927273E+03 0.  0.
         24    2    5    5    0    0  0.68758923977E+02 -0.21574083502E+02 -0.17838374014E+03  0.20865979379E+03  0.80776977481E+02 0.  0.
          5    1    5    5  501    0 -0.13812089699E+02  0.46758827967E+02 -0.28717383610E+03  0.29132123842E+03  0.47000000000E+01 0. -1.
        -11    1    6    6    0    0  0.25848029201E+02 -0.66726201389E+01 -0.22807655756E+01  0.26792655052E+02  0.00000000000E+00 0.  1.
         12    1    6    6    0    0  0.42910894776E+02 -0.14901463363E+02 -0.17610297457E+03  0.18186713874E+03  0.00000000000E+00 0. -1.
         -5    1    3    3    0  503  0.16809040940E+02  0.37841032901E+02 -0.18045496758E+03  0.18520413859E+03  0.47000000000E+01 0.  1.
         13    1    4    4    0    0 -0.10993849261E+02 -0.52219334498E+02 -0.65061794025E+02  0.84147255801E+02  0.00000000000E+00 0. -1.
        -14    1    4    4    0    0 -0.60762025958E+02 -0.10806442867E+02 -0.17741690203E+03  0.18784451052E+03  0.00000000000E+00 0.  1.
</event>
<event>
12    1  0.1594973E-001  0.1887229E+03  0.7818608E-02  0.1161692E+00
         21   -1    0    0  503  502  0.00000000000E+00  0.00000000000E+00  0.39025772260E+03  0.39025772260E+03  0.00000000000E+00 0. -1.
         21   -1    0    0  501  503 -0.00000000000E+00 -0.00000000000E+00 -0.92852816258E+02  0.92852816258E+02  0.00000000000E+00 0. -1.
          6    2    1    2  501    0  0.55849719255E+02  0.54008649354E+01  0.21259200246E+03  0.28427400213E+03  0.18018875741E+03 0.  0.
         24    2    3    3    0    0  0.89698290964E+02 -0.14937421001E+02  0.21261687621E+03  0.24450639848E+03  0.79426273381E+02 0.  0.
         -6    2    1    2    0  502 -0.55849719255E+02 -0.54008649354E+01  0.84812903884E+02  0.19883653672E+03  0.17086362746E+03 0.  0.
        -24    2    5    5    0    0  0.33306550439E+02 -0.21624780675E+02  0.42936447604E+02  0.98897638098E+02  0.79751155773E+02 0.  0.
          5    1    3    3  501    0 -0.33848571709E+02  0.20338285936E+02 -0.24873747681E-01  0.39767603653E+02  0.47000000000E+01 0. -1.
        -11    1    4    4    0    0  0.10142525364E+03 -0.17475498521E+02  0.15783550016E+03  0.18842643189E+03  0.00000000000E+00 0.  1.
         12    1    4    4    0    0 -0.11726962679E+02  0.25380775204E+01  0.54781376048E+02  0.56079966591E+02  0.00000000000E+00 0. -1.
         -5    1    5    5    0  502 -0.89156269694E+02  0.16223915739E+02  0.41876456281E+02  0.99938898624E+02  0.47000000000E+01 0.  1.
         11    1    6    6    0    0  0.21616035599E+02 -0.43373651179E+02  0.53372318189E+02  0.72091129554E+02  0.00000000000E+00 0. -1.
        -12    1    6    6    0    0  0.11690514840E+02  0.21748870504E+02 -0.10435870585E+02  0.26806508544E+02  0.00000000000E+00 0.  1.
</event>
<event>
12    1  0.1594973E-001  0.1724159E+03  0.7818608E-02  0.1176170E+00
         21   -1    0    0  501  502  0.00000000000E+00  0.00000000000E+00  0.31424857325E+03  0.31424857325E+03  0.00000000000E+00 0.  1.
         21   -1    0    0  502  503 -0.00000000000E+00 -0.00000000000E+00 -0.11223761083E+03  0.11223761083E+03  0.00000000000E+00 0.  1.
         -6    2    1    2    0  503  0.29541651730E+02 -0.39745362650E+01  0.13198095061E+02  0.17292029057E+03  0.16981970160E+03 0.  0.
        -24    2    3    3    0    0  0.54448307844E+02  0.20485336561E+02 -0.42267235354E+02  0.10721549793E+03  0.79525949041E+02 0.  0.
          6    2    1    2  501    0 -0.29541651730E+02  0.39745362650E+01  0.18881286736E+03  0.25356589352E+03  0.16660389355E+03 0.  0.
         24    2    5    5    0    0 -0.53342588346E+02 -0.48596181825E+02  0.14585601670E+03  0.18147188542E+03  0.80318409918E+02 0.  0.
          5    1    5    5  501    0  0.23800936616E+02  0.52570718090E+02  0.42956850668E+02  0.72094008098E+02  0.47000000000E+01 0. -1.
        -11    1    6    6    0    0 -0.28861742740E+02 -0.17407146504E+02  0.13668030347E+03  0.14077469339E+03  0.00000000000E+00 0.  1.
         12    1    6    6    0    0 -0.24480845607E+02 -0.31189035321E+02  0.91757132306E+01  0.40697192030E+02  0.00000000000E+00 0. -1.
         -5    1    3    3    0  503 -0.24906656113E+02 -0.24459872826E+02  0.55465330415E+02  0.65704792636E+02  0.47000000000E+01 0.  1.
         13    1    4    4    0    0  0.42924928875E+02  0.10047736483E+02  0.16008179071E+02  0.46901687864E+02  0.00000000000E+00 0. -1.
        -14    1    4    4    0    0  0.11523378969E+02  0.10437600078E+02 -0.58275414425E+02  0.60313810066E+02  0.00000000000E+00 0.  1.
</event>
<event>
12    1  0.1594973E-001  0.2300220E+03  0.7818608E-02  0.1127322E+00
         21   -1    0    0  503  502  0.00000000000E+00  0.00000000000E+00  0.50337037269E+03  0.50337037269E+03  0.00000000000E+00 0.  1.
         21   -1    0    0  501  503 -0.00000000000E+00 -0.00000000000E+00 -0.20432602764E+03  0.20432602764E+03  0.00000000000E+00 0.  1.
          6    2    1    2  501    0  0.13790451828E+03  0.41837702947E+02 -0.98604436633E+02  0.25026577675E+03  0.17928210881E+03 0.  0.
         24    2    3    3    0    0  0.14225113238E+03 -0.65062631235E+01 -0.30666143753E+02  0.16663723049E+03  0.80931070001E+02 0.  0.
         -6    2    1    2    0  502 -0.13790451828E+03 -0.41837702947E+02  0.39764878168E+03  0.45743062357E+03  0.17421300829E+03 0.  0.
        -24    2    5    5    0    0 -0.12149205143E+03 -0.12976019209E+02  0.39795228609E+03  0.42389634303E+03  0.79958689301E+02 0.  0.
          5    1    3    3  501    0 -0.43466140943E+01  0.48343966071E+02 -0.67938292880E+02  0.83628546256E+02  0.47000000000E+01 0. -1.
        -13    1    4    4    0    0  0.11453454956E+03  0.29184568572E+02 -0.27410582620E+02  0.12133112596E+03  0.00000000000E+00 0.  1.
         14    1    4    4    0    0  0.27716582814E+02 -0.35690831696E+02 -0.32555611336E+01  0.45306104537E+02  0.00000000000E+00 0. -1.
         -5    1    5    5    0  502 -0.16412466851E+02 -0.28861683738E+02 -0.30350441208E+00  0.33534280539E+02  0.47000000000E+01 0.  1.
         11    1    6    6    0    0 -0.10402444510E+03  0.21095648208E+02  0.26280484485E+03  0.28342988203E+03  0.00000000000E+00 0. -1.
        -12    1    6    6    0    0 -0.17467606326E+02 -0.34071667417E+02  0.13514744124E+03  0.14046646100E+03  0.00000000000E+00 0.  1.
</event>
<event>
12    1  0.1594973E-001  0.1894547E+03  0.7818608E-02  0.1159341E+00
         21   -1    0    0  503  502  0.00000000000E+00  0.00000000000E+00  0.72644053732E+03  0.72644053732E+03  0.00000000000E+00 0.  1.
         21   -1    0    0  501  503 -0.00000000000E+00 -0.00000000000E+00 -0.49224684597E+02  0.49224684597E+02  0.00000000000E+00 0.  1.
          6    2    1    2  501    0 -0.48344276526E+02 -0.59781408054E+02  0.30903565332E+03  0.36160030350E+03  0.17129144358E+03 0.  0.
         24    2    3    3    0    0 -0.72536386063E+02 -0.15107795694E+02  0.28357814593E+03  0.30458131992E+03  0.82845897922E+02 0.  0.
         -6    2    1    2    0  502  0.48344276526E+02  0.59781408054E+02  0.36818019941E+03  0.41406491843E+03  0.17315343374E+03 0.  0.
        -24    2    5    5    0    0 -0.17985034003E+02  0.30944598716E+02  0.30673467200E+03  0.31904501606E+03  0.80140711411E+02 0.  0.
          5    1    3    3  501    0  0.24192109537E+02 -0.44673612360E+02  0.25457507391E+02  0.57018983573E+02  0.47000000000E+01 0. -1.
        -13    1    4    4    0    0 -0.42404489618E+02 -0.35948878818E+02  0.24559505551E+03  0.25180824831E+03  0.00000000000E+00 0.  1.
         14    1    4    4    0    0 -0.30131896445E+02  0.20841083125E+02  0.37983090424E+02  0.52773071612E+02  0.00000000000E+00 0. -1.
         -5    1    5    5    0  502  0.66329310529E+02  0.28836809338E+02  0.61445527403E+02  0.95019902367E+02  0.47000000000E+01 0.  1.
         11    1    6    6    0    0 -0.16801678244E+02 -0.47181546638E+01  0.98814477359E+01  0.20054934171E+02  0.00000000000E+00 0. -1.
        -12    1    6    6    0    0 -0.11833557592E+01  0.35662753380E+02  0.29685322427E+03  0.29899008189E+03  0.00000000000E+00 0.  1.
</event>
<event>
12    1  0.1594973E-001  0.1909815E+03  0.7818608E-02  0.1158420E+00
         21   -1    0    0  501  502  0.00000000000E+00  0.00000000000E+00  0.68554257192E+03  0.68554257192E+03  0.00000000000E+00 0. -1.
         21   -1    0    0  502  503 -0.00000000000E+00 -0.00000000000E+00 -0.10033063339E+03  0.10033063339E+03  0.00000000000E+00 0. -1.
         -6    2    1    2    0  503  0.16557235485E+02  0.74251540046E+02  0.18892858134E+02  0.18821843970E+03  0.17111927918E+03 0.  0.
        -24    2    3    3    0    0 -0.18894692317E+02  0.10535845740E+03  0.35466232635E+02  0.13800642685E+03  0.79564478580E+02 0.  0.
          6    2    1    2  501    0 -0.16557235485E+02 -0.74251540046E+02  0.56631908040E+03  0.59765476562E+03  0.17517558279E+03 0.  0.
         24    2    5    5    0    0 -0.42258253287E+01 -0.73306279079E+02  0.17367920520E+03  0.20479204305E+03  0.79897724781E+02 0.  0.
          5    1    5    5  501    0 -0.12331410156E+02 -0.94526096783E+00  0.39263987520E+03  0.39286272258E+03  0.47000000000E+01 0. -1.
        -11    1    6    6    0    0 -0.22076129274E+02  0.74105954548E+01  0.21933651523E+02  0.31989959016E+02  0.00000000000E+00 0.  1.
         12    1    6    6    0    0  0.17850303945E+02 -0.80716874533E+02  0.15174555367E+03  0.17280208403E+03  0.00000000000E+00 0. -1.
         -5    1    3    3    0  503  0.35451927802E+02 -0.31106917350E+02 -0.16573374501E+02  0.50212012848E+02  0.47000000000E+01 0.  1.
         13    1    4    4    0    0 -0.27629477979E+01  0.44722420870E+02 -0.24624326801E+02  0.51128135888E+02  0.00000000000E+00 0. -1.
        -14    1    4    4    0    0 -0.16131744519E+02  0.60636036526E+02  0.60090559437E+02  0.86878290960E+02  0.00000000000E+00 0.  1.
</event>
<event>
12    1  0.1594973E-001  0.2525302E+03  0.7818608E-02  0.1111810E+00
         21   -1    0    0  501  502  0.00000000000E+00  0.00000000000E+00  0.31106160415E+03  0.31106160415E+03  0.00000000000E+00 0. -1.
         21   -1    0    0  502  503 -0.00000000000E+00 -0.00000000000E+00 -0.48729290884E+03  0.48729290884E+03  0.00000000000E+00 0. -1.
         -6    2    1    2    0  503 -0.16593367573E+03  0.84972175711E+02 -0.39215035225E+03  0.46610077616E+03  0.16945140713E+03 0.  0.
        -24    2    3    3    0    0 -0.77589693273E+02 -0.20651175345E+02 -0.19441250905E+03  0.22509601239E+03  0.80158340636E+02 0.  0.
          6    2    1    2  501    0  0.16593367573E+03 -0.84972175711E+02  0.21591904756E+03  0.33225373683E+03  0.17034451899E+03 0.  0.
         24    2    5    5    0    0  0.78037746188E+02 -0.82115242815E+02  0.19898292892E+03  0.24257219686E+03  0.80089086382E+02 0.  0.
          5    1    5    5  501    0  0.87895929543E+02 -0.28569328965E+01  0.16936118645E+02  0.89681539965E+02  0.47000000000E+01 0. -1.
        -11    1    6    6    0    0  0.75595359479E+01  0.11032381855E+02  0.19456030643E+01  0.13514636674E+02  0.00000000000E+00 0.  1.
         12    1    6    6    0    0  0.70478210240E+02 -0.93147624670E+02  0.19703732585E+03  0.22905756019E+03  0.00000000000E+00 0. -1.
         -5    1    3    3    0  503 -0.88343982458E+02  0.10562335106E+03 -0.19773784321E+03  0.24100476377E+03  0.47000000000E+01 0.  1.
         11    1    4    4    0    0 -0.93649878612E+02 -0.22603155986E+02 -0.15510167536E+03  0.18258623202E+03  0.00000000000E+00 0. -1.
        -12    1    4    4    0    0  0.16060185339E+02  0.19519806404E+01 -0.39310833684E+02  0.42509780363E+02  0.00000000000E+00 0.  1.
</event>
<event>
12    1  0.1594973E-001  0.2007022E+03  0.7818608E-02  0.1149531E+00
         21   -1    0    0  501  502  0.00000000000E+00  0.00000000000E+00  0.56044246299E+03  0.56044246299E+03  0.00000000000E+00 0.  1.
         21   -1    0    0  502  503 -0.00000000000E+00 -0.00000000000E+00 -0.84396945457E+02  0.84396945457E+02  0.00000000000E+00 0.  1.
         -6    2    1    2    0  503 -0.97896299759E+02 -0.17274316073E+02  0.10973793670E+03  0.22715218528E+03  0.17226030600E+03 0.  0.
        -24    2    3    3    0    0 -0.21461616701E+02  0.30113371376E+02  0.10408661269E+03  0.13691981216E+03  0.80904857041E+02 0.  0.
          6    2    1    2  501    0  0.97896299759E+02  0.17274316073E+02  0.36630758083E+03  0.41768722317E+03  0.17435390767E+03 0.  0.
         24    2    5    5    0    0  0.11534007121E+03 -0.13613424898E+02  0.35232218109E+03  0.37926822903E+03  0.78897483476E+02 0.  0.
          5    1    5    5  501    0 -0.17443771452E+02  0.30887740971E+02  0.13985399747E+02  0.38418994141E+02  0.47000000000E+01 0. -1.
        -13    1    6    6    0    0  0.75934925419E+02  0.27558729969E+02  0.16942618562E+03  0.18769877163E+03  0.00000000000E+00 0.  1.
         14    1    6    6    0    0  0.39405145792E+02 -0.41172154867E+02  0.18289599547E+03  0.19156945740E+03  0.00000000000E+00 0. -1.
         -5    1    3    3    0  503 -0.76434683058E+02 -0.47387687449E+02  0.56513240078E+01  0.90232373121E+02  0.47000000000E+01 0.  1.
         11    1    4    4    0    0  0.71948212247E+01 -0.25181551594E+02  0.37579463840E+02  0.45804935276E+02  0.00000000000E+00 0. -1.
        -12    1    4    4    0    0 -0.28656437926E+02  0.55294922971E+02  0.66507148851E+02  0.91114876882E+02  0.00000000000E+00 0.  1.
</event>
<event>
12    1  0.1594973E-001  0.1815357E+03  0.7818608E-02  0.1166841E+00
         21   -1    0    0  503  502  0.00000000000E+00  0.00000000000E+00  0.49559697498E+03  0.49559697498E+03  0.00000000000E+00 0.  1.
         21   -1    0    0  501  503 -0.00000000000E+00 -0.00000000000E+00 -0.66105424106E+02  0.66105424106E+02  0.00000000000E+00 0.  1.
          6    2    1    2  501    0  0.55857528159E+02  0.10661938749E+02  0.19185633875E+03  0.26266109913E+03  0.17014187576E+03 0.  0.
         24    2    3    3    0    0  0.85710298534E+02  0.51308835514E+02  0.13926083907E+03  0.18964237069E+03  0.81189873676E+02 0.  0.
         -6    2    1    2    0  502 -0.55857528159E+02 -0.10661938749E+02  0.23763521212E+03  0.29904129996E+03  0.17239914341E+03 0.  0.
        -24    2    5    5    0    0 -0.10018022000E+03  0.11866858485E+02  0.14688628669E+03  0.19545797512E+03  0.80320234123E+02 0.  0.
          5    1    3    3  501    0 -0.29852770375E+02 -0.40646896765E+02  0.52595499683E+02  0.73018728437E+02  0.47000000000E+01 0. -1.
        -13    1    4    4    0    0  0.45283161677E+01  0.44557473611E+02  0.67921549304E+02  0.81358533429E+02  0.00000000000E+00 0.  1.
         14    1    4    4    0    0  0.81181982367E+02  0.67513619030E+01  0.71339289765E+02  0.10828383726E+03  0.00000000000E+00 0. -1.
         -5    1    5    5    0  502  0.44322691845E+02 -0.22528797234E+02  0.90748925434E+02  0.10358332484E+03  0.47000000000E+01 0.  1.
         11    1    6    6    0    0 -0.81649271556E+02  0.33100968187E+02  0.14161750120E+03  0.16678667299E+03  0.00000000000E+00 0. -1.
        -12    1    6    6    0    0 -0.18530948448E+02 -0.21234109702E+02  0.52687854879E+01  0.28671302128E+02  0.00000000000E+00 0.  1.
</event>
<event>
12    1  0.1594973E-001  0.2085201E+03  0.7818608E-02  0.1146161E+00
         21   -1    0    0  503  502  0.00000000000E+00  0.00000000000E+00  0.61083442583E+02  0.61083442583E+02  0.00000000000E+00 0. -1.
         21   -1    0    0  501  503 -0.00000000000E+00 -0.00000000000E+00 -0.21058340482E+04  0.21058340482E+04  0.00000000000E+00 0. -1.
          6    2    1    2  501    0  0.31077995566E+02  0.11034653078E+03 -0.19077869170E+04  0.19174386836E+04  0.15420112226E+03 0.  0.
         24    2    3    3    0    0  0.54405709309E+02  0.20462708510E+02 -0.93515119207E+03  0.94036876435E+03  0.80043471247E+02 0.  0.
         -6    2    1    2    0  502 -0.31077995566E+02 -0.11034653078E+03 -0.13696368857E+03  0.24947880712E+03  0.17417928852E+03 0.  0.
        -24    2    5    5    0    0  0.39849678005E+02 -0.75297943631E+02 -0.12181847715E+03  0.16879048226E+03  0.79954414346E+02 0.  0.
          5    1    3    3  501    0 -0.23327713744E+02  0.89883822274E+02 -0.97263572494E+03  0.97706991928E+03  0.47000000000E+01 0. -1.
        -11    1    4    4    0    0  0.60713109933E+02  0.29271578402E+02 -0.91509087092E+03  0.91756972980E+03  0.00000000000E+00 0.  1.
         12    1    4    4    0    0 -0.63074006237E+01 -0.88088698913E+01 -0.20060321156E+02  0.22799034547E+02  0.00000000000E+00 0. -1.
         -5    1    5    5    0  502 -0.70927673571E+02 -0.35048587153E+02 -0.15145211421E+02  0.80688324859E+02  0.47000000000E+01 0.  1.
         11    1    6    6    0    0  0.75743402645E+01 -0.44216192349E+02 -0.68263016892E+01  0.45376653590E+02  0.00000000000E+00 0. -1.
        -12    1    6    6    0    0  0.32275337741E+02 -0.31081751282E+02 -0.11499217546E+03  0.12341382867E+03  0.00000000000E+00 0.  1.
</event>
<event>
12    1  0.1594973E-001  0.1761659E+03  0.7818608E-02  0.1171787E+00
         21   -1    0    0  503  502  0.00000000000E+00  0.00000000000E+00  0.26810486289E+03  0.26810486289E+03  0.00000000000E+00 0. -1.
         21   -1    0    0  501  503 -0.00000000000E+00 -0.00000000000E+00 -0.13150586586E+03  0.13150586586E+03  0.00000000000E+00 0. -1.
          6    2    1    2  501    0 -0.39292528031E+02 -0.53862318378E+01  0.13856122914E+03  0.22343393739E+03  0.17073545591E+03 0.  0.
         24    2    3    3    0    0 -0.62102563210E+02  0.38621355953E+02  0.13722331064E+03  0.17362585056E+03  0.77248699065E+02 0.  0.
         -6    2    1    2    0  502  0.39292528031E+02  0.53862318378E+01 -0.19622321090E+01  0.17617679135E+03  0.17164351780E+03 0.  0.
        -24    2    5    5    0    0  0.64543925600E+02 -0.28276586002E+02  0.42810615255E+02  0.11455280053E+03  0.79524283601E+02 0.  0.
          5    1    3    3  501    0  0.22810035179E+02 -0.44007587791E+02  0.13379184997E+01  0.49808086833E+02  0.47000000000E+01 0. -1.
        -13    1    4    4    0    0 -0.28214988006E+02  0.35743150137E+02  0.16873719062E+02  0.48563162221E+02  0.00000000000E+00 0.  1.
         14    1    4    4    0    0 -0.33887575203E+02  0.28782058155E+01  0.12034959158E+03  0.12506268834E+03  0.00000000000E+00 0. -1.
         -5    1    5    5    0  502 -0.25251397569E+02  0.33662817840E+02 -0.44772847364E+02  0.61623990825E+02  0.47000000000E+01 0.  1.
         13    1    6    6    0    0  0.38558117901E+02  0.25557136062E+02  0.15065611756E+02  0.48650470885E+02  0.00000000000E+00 0. -1.
        -14    1    6    6    0    0  0.25985807699E+02 -0.53833722064E+02  0.27745003499E+02  0.65902329642E+02  0.00000000000E+00 0.  1.
</event>
<event>
12    1  0.1594973E-001  0.1925097E+03  0.7818608E-02  0.1156834E+00
         21   -1    0    0  503  502  0.00000000000E+00  0.00000000000E+00  0.25508452563E+03  0.25508452563E+03  0.00000000000E+00 0.  1.
         21   -1    0    0  501  503 -0.00000000000E+00 -0.00000000000E+00 -0.29136149373E+03  0.29136149373E+03  0.00000000000E+00 0.  1.
          6    2    1    2  501    0 -0.29097358320E+02 -0.74657318132E+02  0.17662601137E+03  0.26125991245E+03  0.17504177372E+03 0.  0.
         24    2    3    3    0    0  0.30900172366E+02 -0.54645073773E+01  0.13552289804E+03  0.16076660584E+03  0.80590099678E+02 0.  0.
         -6    2    1    2    0  502  0.29097358320E+02  0.74657318132E+02 -0.21290297947E+03  0.28518610691E+03  0.17199728340E+03 0.  0.
        -24    2    5    5    0    0  0.12475981885E+02  0.46080441793E+02 -0.22949762981E+03  0.24789830145E+03  0.80655740866E+02 0.  0.
          5    1    3    3  501    0 -0.59997530686E+02 -0.69192810755E+02  0.41103113336E+02  0.10049330662E+03  0.47000000000E+01 0. -1.
        -13    1    4    4    0    0  0.30425024645E+01  0.29710921819E+02  0.97437577553E+02  0.10191210535E+03  0.00000000000E+00 0.  1.
         14    1    4    4    0    0  0.27857669901E+02 -0.35175429196E+02  0.38085320485E+02  0.58854500490E+02  0.00000000000E+00 0. -1.
         -5    1    5    5    0  502  0.16621376435E+02  0.28576876340E+02  0.16594650342E+02  0.37287805459E+02  0.47000000000E+01 0.  1.
         13    1    6    6    0    0  0.18591737938E+02  0.63402492079E+02 -0.12107057683E+03  0.13792611535E+03  0.00000000000E+00 0. -1.
        -14    1    6    6    0    0 -0.61157560537E+01 -0.17322050286E+02 -0.10842705299E+03  0.10997218611E+03  0.00000000000E+00 0.  1.
</event>
<event>
12    1  0.1594973E-001  0.1906941E+03  0.7818608E-02  0.1157955E+00
         21   -1    0    0  501  502  0.00000000000E+00  0.00000000000E+00  0.16610360048E+04  0.16610360048E+04  0.00000000000E+00 0.  1.
         21   -1    0    0  502  503 -0.00000000000E+00 -0.00000000000E+00 -0.59325906376E+02  0.59325906376E+02  0.00000000000E+00 0.  1.
         -6    2    1    2    0  503 -0.27802886440E+02 -0.76694957857E+02  0.11743370866E+03  0.22395295330E+03  0.17236337286E+03 0.  0.
        -24    2    3    3    0    0 -0.32691619239E+02 -0.89707103352E+02  0.14635239665E+03  0.19152462997E+03  0.78399958666E+02 0.  0.
          6    2    1    2  501    0  0.27802886440E+02  0.76694957857E+02  0.14842763897E+04  0.14964089578E+04  0.17177965818E+03 0.  0.
         24    2    5    5    0    0 -0.40033277237E+02  0.58960058755E+01  0.67898458405E+03  0.68515608790E+03  0.82349093726E+02 0.  0.
          5    1    5    5  501    0  0.67836163677E+02  0.70798951982E+02  0.80529180568E+03  0.81125286995E+03  0.47000000000E+01 0. -1.
        -13    1    6    6    0    0 -0.40137920854E+01  0.48079519105E+01  0.57626157137E+03  0.57629560606E+03  0.00000000000E+00 0.  1.
         14    1    6    6    0    0 -0.36019485151E+02  0.10880539650E+01  0.10272301268E+03  0.10886048184E+03  0.00000000000E+00 0. -1.
         -5    1    3    3    0  503  0.48887327997E+01  0.13012145494E+02 -0.28918687989E+02  0.32428323327E+02  0.47000000000E+01 0.  1.
         11    1    4    4    0    0 -0.35146541750E+02 -0.79999417499E+02  0.63368168332E+02  0.10793845911E+03  0.00000000000E+00 0. -1.
        -12    1    4    4    0    0  0.24549225110E+01 -0.97076858527E+01  0.82984228320E+02  0.83586170859E+02  0.00000000000E+00 0.  1.
</event>
<event>
12    1  0.1594973E-001  0.1794252E+03  0.7818608E-02  0.1168458E+00
         21   -1    0    0  503  502  0.00000000000E+00  0.00000000000E+00  0.12634768263E+04  0.12634768263E+04  0.00000000000E+00 0.  1.
         21   -1    0    0  501  503 -0.00000000000E+00 -0.00000000000E+00 -0.33704222419E+02  0.33704222419E+02  0.00000000000E+00 0.  1.
          6    2    1    2  501    0 -0.48409293137E+02 -0.19699904682E+02  0.93586184454E+03  0.95283103212E+03  0.17122510855E+03 0.  0.
         24    2    3    3    0    0  0.20992904565E+02 -0.55715741943E+02  0.59402850237E+03  0.60213753432E+03  0.78452550427E+02 0.  0.
         -6    2    1    2    0  502  0.48409293137E+02  0.19699904682E+02  0.29391075936E+03  0.34435001662E+03  0.17164455590E+03 0.  0.
        -24    2    5    5    0    0  0.85179548346E+02 -0.19027916189E+02  0.22171685014E+03  0.25442812659E+03  0.89205901787E+02 0.  0.
          5    1    3    3  501    0 -0.69402197702E+02  0.36015837260E+02  0.34183334217E+03  0.35069349780E+03  0.47000000000E+01 0. -1.
        -11    1    4    4    0    0 -0.22025025421E+02  0.38519260051E+01  0.87698585242E+02  0.90504038210E+02  0.00000000000E+00 0.  1.
         12    1    4    4    0    0  0.43017929986E+02 -0.59567667948E+02  0.50632991712E+03  0.51163349611E+03  0.00000000000E+00 0. -1.
         -5    1    5    5    0  502 -0.36770255209E+02  0.38727820871E+02  0.72193909215E+02  0.89921890023E+02  0.47000000000E+01 0.  1.
         13    1    6    6    0    0  0.24722877961E+02 -0.42832747639E+02  0.47839763841E+02  0.68807760967E+02  0.00000000000E+00 0. -1.
        -14    1    6    6    0    0  0.60456670385E+02  0.23804831450E+02  0.17387708630E+03  0.18562036563E+03  0.00000000000E+00 0.  1.
</event>
<event>
12    1  0.1594973E-001  0.1911129E+03  0.7818608E-02  0.1157478E+00
         21   -1    0    0  503  502  0.00000000000E+00  0.00000000000E+00  0.22761696754E+03  0.22761696754E+03  0.00000000000E+00 0. -1.
         21   -1    0    0  501  503 -0.00000000000E+00 -0.00000000000E+00 -0.21814285629E+03  0.21814285629E+03  0.00000000000E+00 0.  1.
          6    2    1    2  501    0  0.77292007344E+02 -0.33529050744E+02 -0.10993236051E+03  0.22047507809E+03  0.17153974621E+03 0.  0.
         24    2    3    3    0    0  0.82029332021E+02  0.26080943050E+02 -0.10937342316E+03  0.16049011318E+03  0.79909347587E+02 0.  0.
         -6    2    1    2    0  502 -0.77292007344E+02  0.33529050744E+02  0.11940647176E+03  0.22528474574E+03  0.17145570717E+03 0.  0.
        -24    2    5    5    0    0 -0.91908204175E+01  0.70571700337E+02  0.10594727949E+03  0.14646108555E+03  0.71841405051E+02 0.  0.
          5    1    3    3  501    0 -0.47373246773E+01 -0.59609993794E+02 -0.55893734903E+00  0.59984964918E+02  0.47000000000E+01 0. -1.
        -11    1    4    4    0    0 -0.14717388760E+02  0.11847136079E+02 -0.24982163214E+02  0.31321951473E+02  0.00000000000E+00 0.  1.
         12    1    4    4    0    0  0.96746720782E+02  0.14233806971E+02 -0.84391259944E+02  0.12916816170E+03  0.00000000000E+00 0. -1.
         -5    1    5    5    0  502 -0.68101186927E+02 -0.37042649593E+02  0.13459192274E+02  0.78823660194E+02  0.47000000000E+01 0.  1.
         13    1    6    6    0    0 -0.36053159337E+02  0.62395180144E+02  0.84958771244E+02  0.11140458525E+03  0.00000000000E+00 0. -1.
        -14    1    6    6    0    0  0.26862338919E+02  0.81765201930E+01  0.20988508245E+02  0.35056500296E+02  0.00000000000E+00 0.  1.
</event>
<event>
12    1  0.1594973E-001  0.2587918E+03  0.7818608E-02  0.1107905E+00
         21   -1    0    0  501  502  0.00000000000E+00  0.00000000000E+00  0.41092471466E+03  0.41092471466E+03  0.00000000000E+00 0.  1.
         21   -1    0    0  502  503 -0.00000000000E+00 -0.00000000000E+00 -0.16552889037E+03  0.16552889037E+03  0.00000000000E+00 0.  1.
         -6    2    1    2    0  503  0.13020032506E+03  0.14333867423E+03  0.15948361015E+03  0.30398722083E+03  0.17168316267E+03 0.  0.
        -24    2    3    3    0    0 -0.36092991828E+00  0.81017779461E+02  0.15094534739E+02  0.99535685432E+02  0.55816635837E+02 0.  0.
          6    2    1    2  501    0 -0.13020032506E+03 -0.14333867423E+03  0.85912214135E+02  0.27246638420E+03  0.17134445368E+03 0.  0.
         24    2    5    5    0    0 -0.42551050255E+01 -0.91791649626E+02  0.48648313004E+02  0.13129279417E+03  0.80170609221E+02 0.  0.
          5    1    5    5  501    0 -0.12594522004E+03 -0.51547024602E+02  0.37263901131E+02  0.14117359003E+03  0.47000000000E+01 0. -1.
        -11    1    6    6    0    0 -0.15944308978E+02 -0.10252917345E+03  0.50344508952E+02  0.11533005670E+03  0.00000000000E+00 0.  1.
         12    1    6    6    0    0  0.11689203952E+02  0.10737523821E+02 -0.16961959478E+01  0.15962737470E+02  0.00000000000E+00 0. -1.
         -5    1    3    3    0  503  0.13056125498E+03  0.62320894767E+02  0.14438907541E+03  0.20445153540E+03  0.47000000000E+01 0.  1.
         11    1    4    4    0    0 -0.27153162800E+02  0.36534398504E+02  0.13893988987E+02  0.47593060986E+02  0.00000000000E+00 0. -1.
        -12    1    4    4    0    0  0.26792232882E+02  0.44483380957E+02  0.12005457527E+01  0.51942624445E+02  0.00000000000E+00 0.  1.
</event>
<event>
12    1  0.1594973E-001  0.1782553E+03  0.7818608E-02  0.1169551E+00
         21   -1    0    0  503  502  0.00000000000E+00  0.00000000000E+00  0.69594681309E+03  0.69594681309E+03  0.00000000000E+00 0.  1.
         21   -1    0    0  501  503 -0.00000000000E+00 -0.00000000000E+00 -0.47386907964E+02  0.47386907964E+02  0.00000000000E+00 0.  1.
          6    2    1    2  501    0  0.31413620053E+02 -0.13041767579E+02  0.25206703327E+03  0.30861363328E+03  0.17477895227E+03 0.  0.
         24    2    3    3    0    0  0.30769793102E+02  0.42339768189E+02  0.68849317898E+02  0.11714992851E+03  0.79021775715E+02 0.  0.
         -6    2    1    2    0  502 -0.31413620053E+02  0.13041767579E+02  0.39649287185E+03  0.43472008777E+03  0.17498015332E+03 0.  0.
        -24    2    5    5    0    0 -0.29920126034E+02  0.44013564309E+02  0.10523174357E+03  0.14177535311E+03  0.78702751601E+02 0.  0.
          5    1    3    3  501    0  0.64382695165E+00 -0.55381535769E+02  0.18321771537E+03  0.19146370477E+03  0.47000000000E+01 0. -1.
        -11    1    4    4    0    0  0.13089417150E+02  0.64402662199E+02  0.40974685438E+02  0.77446501447E+02  0.00000000000E+00 0.  1.
         12    1    4    4    0    0  0.17680375952E+02 -0.22062894009E+02  0.27874632460E+02  0.39703427064E+02  0.00000000000E+00 0. -1.
         -5    1    5    5    0  502 -0.14934940190E+01 -0.30971796730E+02  0.29126112829E+03  0.29294473467E+03  0.47000000000E+01 0.  1.
         13    1    6    6    0    0  0.14797763703E+02 -0.66478091979E+01 -0.57340167076E+00  0.16232558862E+02  0.00000000000E+00 0. -1.
        -14    1    6    6    0    0 -0.44717889737E+02  0.50661373507E+02  0.10580514524E+03  0.12554279425E+03  0.00000000000E+00 0.  1.
</event>
<event>
12    1  0.1594973E-001  0.3533479E+03  0.7818608E-02  0.1061432E+00
         21   -1    0    0  503  502  0.00000000000E+00  0.00000000000E+00  0.37913177076E+03  0.37913177076E+03  0.00000000000E+00 0.  1.
         21   -1    0    0  501  503 -0.00000000000E+00 -0.00000000000E+00 -0.50283265590E+03  0.50283265590E+03  0.00000000000E+00 0. -1.
          6    2    1    2  501    0  0.18606019525E+03 -0.24590085014E+03 -0.32204183927E+03  0.47675603534E+03  0.16881867976E+03 0.  0.
         24    2    3    3    0    0  0.37881256971E+02 -0.14619497840E+03 -0.12169127103E+03  0.20831479633E+03  0.76015311504E+02 0.  0.
         -6    2    1    2    0  502 -0.18606019525E+03  0.24590085014E+03  0.19834095413E+03  0.40520839132E+03  0.17253719007E+03 0.  0.
        -24    2    5    5    0    0 -0.10412995705E+03  0.21703443774E+03  0.19255332625E+03  0.31802226667E+03  0.78194523654E+02 0.  0.
          5    1    3    3  501    0  0.14817893828E+03 -0.99705871734E+02 -0.20035056825E+03  0.26844123901E+03  0.47000000000E+01 0. -1.
        -13    1    4    4    0    0  0.12635886231E+02 -0.89388436826E+02 -0.11439217818E+03  0.14572415272E+03  0.00000000000E+00 0.  1.
         14    1    4    4    0    0  0.25245370740E+02 -0.56806541579E+02 -0.72990928510E+01  0.62590643601E+02  0.00000000000E+00 0. -1.
         -5    1    5    5    0  502 -0.81930238195E+02  0.28866412402E+02  0.57876278843E+01  0.87186124654E+02  0.47000000000E+01 0.  1.
         13    1    6    6    0    0 -0.31343189877E+02  0.13700620367E+03  0.79163723352E+02  0.16130713093E+03  0.00000000000E+00 0. -1.
        -14    1    6    6    0    0 -0.72786767177E+02  0.80028234069E+02  0.11338960289E+03  0.15671513574E+03  0.00000000000E+00 0.  1.
</event>
<event>
12    1  0.1594973E-001  0.2514798E+03  0.7818608E-02  0.1112406E+00
         21   -1    0    0  501  502  0.00000000000E+00  0.00000000000E+00  0.78651393050E+03  0.78651393050E+03  0.00000000000E+00 0.  1.
         21   -1    0    0  502  503 -0.00000000000E+00 -0.00000000000E+00 -0.90577328280E+02  0.90577328280E+02  0.00000000000E+00 0. -1.
         -6    2    1    2    0  503  0.16468473534E+03  0.80721599116E+02  0.49526047534E+03  0.55535687418E+03  0.17175936844E+03 0.  0.
        -24    2    3    3    0    0  0.13479011876E+03  0.10475609266E+03  0.47662130933E+03  0.51245170561E+03  0.79351515455E+02 0.  0.
          6    2    1    2  501    0 -0.16468473534E+03 -0.80721599116E+02  0.20067612688E+03  0.32173438460E+03  0.17206123246E+03 0.  0.
         24    2    5    5    0    0 -0.67706224265E+02 -0.76330835639E+02  0.64124310989E+02  0.15412591573E+03  0.96085073585E+02 0.  0.
          5    1    5    5  501    0 -0.96978511073E+02 -0.43907634768E+01  0.13655181589E+03  0.16760846887E+03  0.47000000000E+01 0. -1.
        -13    1    6    6    0    0 -0.66726344415E+02 -0.37845952576E+02  0.81469277481E+02  0.11190158327E+03  0.00000000000E+00 0.  1.
         14    1    6    6    0    0 -0.97987985019E+00 -0.38484883063E+02 -0.17344966492E+02  0.42224332457E+02  0.00000000000E+00 0. -1.
         -5    1    3    3    0  503  0.29894616581E+02 -0.24034493549E+02  0.18639166003E+02  0.42905168569E+02  0.47000000000E+01 0.  1.
         13    1    4    4    0    0  0.27375052769E+02  0.32370263942E+02  0.45045781391E+02  0.61857496902E+02  0.00000000000E+00 0. -1.
        -14    1    4    4    0    0  0.10741506599E+03  0.72385828722E+02  0.43157552794E+03  0.45059420871E+03  0.00000000000E+00 0.  1.
</event>
<event>
12    1  0.1594973E-001  0.2363577E+03  0.7818608E-02  0.1122285E+00
         21   -1    0    0  501  502  0.00000000000E+00  0.00000000000E+00  0.13848452522E+03  0.13848452522E+03  0.00000000000E+00 0.  1.
         21   -1    0    0  502  503 -0.00000000000E+00 -0.00000000000E+00 -0.40405508805E+03  0.40405508805E+03  0.00000000000E+00 0. -1.
         -6    2    1    2    0  503  0.10290917217E+03 -0.12434925165E+03 -0.11873365644E+03  0.26428425087E+03  0.17232367796E+03 0.  0.
        -24    2    3    3    0    0  0.59915343814E+02  0.42300042837E+01 -0.41922161319E+02  0.10838944623E+03  0.79894074144E+02 0.  0.
          6    2    1    2  501    0 -0.10290917217E+03  0.12434925165E+03 -0.14683690639E+03  0.27825536240E+03  0.17266133187E+03 0.  0.
         24    2    5    5    0    0 -0.65779469876E+02  0.52426997897E+02 -0.23257927294E+02  0.13045387577E+03  0.96962641027E+02 0.  0.
          5    1    5    5  501    0 -0.37129702296E+02  0.71922253753E+02 -0.12357897909E+03  0.14780148663E+03  0.47000000000E+01 0. -1.
        -13    1    6    6    0    0 -0.90930862172E+01 -0.28292351000E+02 -0.60960047980E+01  0.30336489852E+02  0.00000000000E+00 0.  1.
         14    1    6    6    0    0 -0.56686383658E+02  0.80719348896E+02 -0.17161922496E+02  0.10011738591E+03  0.00000000000E+00 0. -1.
         -5    1    3    3    0  503  0.42993828357E+02 -0.12857925593E+03 -0.76811495118E+02  0.15589480465E+03  0.47000000000E+01 0.  1.
         13    1    4    4    0    0  0.64727074927E+02 -0.11655470301E+02 -0.56189059978E+02  0.86502339146E+02  0.00000000000E+00 0. -1.
        -14    1    4    4    0    0 -0.48117311131E+01  0.15885474584E+02  0.14266898659E+02  0.21887107082E+02  0.00000000000E+00 0.  1.
</event>
<event>
12    1  0.1594973E-001  0.1737353E+03  0.7818608E-02  0.1174026E+00
         21   -1    0    0  503  502  0.00000000000E+00  0.00000000000E+00  0.40761876611E+02  0.40761876611E+02  0.00000000000E+00 0.  1.
         21   -1    0    0  501  503 -0.00000000000E+00 -0.00000000000E+00 -0.77109815974E+03  0.77109815974E+03  0.00000000000E+00 0.  1.
          6    2    1    2  501    0  0.19947463800E+02 -0.17853362857E+02 -0.44638098151E+03  0.47897180135E+03  0.17158485352E+03 0.  0.
         24    2    3    3    0    0  0.36182050827E+02  0.40772277611E+02 -0.16342918416E+03  0.18951655929E+03  0.78967769278E+02 0.  0.
         -6    2    1    2    0  502 -0.19947463800E+02  0.17853362857E+02 -0.28395530163E+03  0.33288823501E+03  0.17166047829E+03 0.  0.
        -24    2    5    5    0    0  0.90734685136E+01 -0.57197965917E+02 -0.10939381242E+03  0.14061572013E+03  0.66722105902E+02 0.  0.
          5    1    3    3  501    0 -0.16234587027E+02 -0.58625640469E+02 -0.28295179734E+03  0.28945524206E+03  0.47000000000E+01 0. -1.
        -11    1    4    4    0    0  0.41022118404E+02  0.35327057684E+02 -0.17078709326E+03  0.17916206749E+03  0.00000000000E+00 0.  1.
         12    1    4    4    0    0 -0.48400675763E+01  0.54452199274E+01  0.73579090950E+01  0.10354491801E+02  0.00000000000E+00 0. -1.
         -5    1    5    5    0  502 -0.29020932314E+02  0.75051328774E+02 -0.17456148920E+03  0.19227251488E+03  0.47000000000E+01 0.  1.
         11    1    6    6    0    0  0.12771943572E+02 -0.18094456363E+01 -0.73243249803E+02  0.74370493328E+02  0.00000000000E+00 0. -1.
        -12    1    6    6    0    0 -0.36984750585E+01 -0.55388520281E+02 -0.36150562621E+02  0.66245226805E+02  0.00000000000E+00 0.  1.
</event>
<event>
12    1  0.1594973E-001  0.1949524E+03  0.7818608E-02  0.1154339E+00
         21   -1    0    0  501  502  0.00000000000E+00  0.00000000000E+00  0.26675970452E+03  0.26675970452E+03  0.00000000000E+00 0. -1.
         21   -1    0    0  502  503 -0.00000000000E+00 -0.00000000000E+00 -0.14212549299E+03  0.14212549299E+03  0.00000000000E+00 0. -1.
         -6    2    1    2    0  503  0.50607051004E+02  0.75605847980E+02  0.49778915656E+02  0.20120733942E+03  0.17242138827E+03 0.  0.
        -24    2    3    3    0    0  0.28886977811E+02  0.11829504278E+03  0.29264652619E+02  0.14889047866E+03  0.80521923156E+02 0.  0.
          6    2    1    2  501    0 -0.50607051004E+02 -0.75605847980E+02  0.74855295865E+02  0.20767785809E+03  0.17102473377E+03 0.  0.
         24    2    5    5    0    0 -0.18033030131E+02  0.19961211823E+02  0.53927244808E+02  0.10445865892E+03  0.85321881945E+02 0.  0.
          5    1    5    5  501    0 -0.32574020873E+02 -0.95567059803E+02  0.20928051057E+02  0.10321919916E+03  0.47000000000E+01 0. -1.
        -13    1    6    6    0    0  0.13971232711E+02  0.45989360542E+02  0.26047220402E+02  0.54668769121E+02  0.00000000000E+00 0.  1.
         14    1    6    6    0    0 -0.32004262842E+02 -0.26028148719E+02  0.27880024407E+02  0.49789889804E+02  0.00000000000E+00 0. -1.
         -5    1    3    3    0  503  0.21720073193E+02 -0.42689194800E+02  0.20514263037E+02  0.52316860763E+02  0.47000000000E+01 0.  1.
         11    1    4    4    0    0  0.22453131855E+02  0.39920257355E+02 -0.26101349643E+02  0.52716700680E+02  0.00000000000E+00 0. -1.
        -12    1    4    4    0    0  0.64338459567E+01  0.78374785425E+02  0.55366002262E+02  0.96173777978E+02  0.00000000000E+00 0.  1.
</event>
<event>
12    1  0.1594973E-001  0.2002415E+03  0.7818608E-02  0.1149573E+00
         21   -1    0    0  501  502  0.00000000000E+00  0.00000000000E+00  0.32614848116E+03  0.32614848116E+03  0.00000000000E+00 0. -1.
         21   -1    0    0  502  503 -0.00000000000E+00 -0.00000000000E+00 -0.12910564779E+03  0.12910564779E+03  0.00000000000E+00 0. -1.
         -6    2    1    2    0  503  0.77429085450E+02 -0.71598288050E+02  0.14866739501E+03  0.24925208996E+03  0.17000891708E+03 0.  0.
        -24    2    3    3    0    0  0.11817291234E+03 -0.69895135544E+02  0.12601133211E+03  0.20236555305E+03  0.78884688349E+02 0.  0.
          6    2    1    2  501    0 -0.77429085450E+02  0.71598288050E+02  0.48375438366E+02  0.20600203900E+03  0.17022067709E+03 0.  0.
         24    2    5    5    0    0 -0.36169543492E+01 -0.64863119254E+01 -0.15337475019E+02  0.80994596085E+02  0.79181638363E+02 0.  0.
          5    1    5    5  501    0 -0.73812131101E+02  0.78084599976E+02  0.63712913385E+02  0.12500744291E+03  0.47000000000E+01 0. -1.
        -11    1    6    6    0    0 -0.23596167159E+01 -0.30315783990E+02  0.21403150286E+02  0.37184800553E+02  0.00000000000E+00 0.  1.
         12    1    6    6    0    0 -0.12573376333E+01  0.23829472065E+02 -0.36740625305E+02  0.43809795533E+02  0.00000000000E+00 0. -1.
         -5    1    3    3    0  503 -0.40743826890E+02 -0.17031525061E+01  0.22656062897E+02  0.46886536917E+02  0.47000000000E+01 0.  1.
         11    1    4    4    0    0  0.37730885867E+02 -0.22244017373E+02  0.93720468902E+02  0.10345019260E+03  0.00000000000E+00 0. -1.
        -12    1    4    4    0    0  0.80442026472E+02 -0.47651118171E+02  0.32290863207E+02  0.98915360448E+02  0.00000000000E+00 0.  1.
</event>
<event>
12    1  0.1594973E-001  0.1782128E+03  0.7818608E-02  0.1169843E+00
         21   -1    0    0  501  502  0.00000000000E+00  0.00000000000E+00  0.19097862672E+03  0.19097862672E+03  0.00000000000E+00 0.  1.
         21   -1    0    0  502  503 -0.00000000000E+00 -0.00000000000E+00 -0.16745045045E+03  0.16745045045E+03  0.00000000000E+00 0.  1.
         -6    2    1    2    0  503  0.35656440751E+02 -0.21902809136E+02  0.32639606155E+02  0.17998348225E+03  0.17198138032E+03 0.  0.
        -24    2    3    3    0    0 -0.25828291943E+02 -0.37615125532E+02 -0.23831173588E+02  0.94905352240E+02  0.79731441200E+02 0.  0.
          6    2    1    2  501    0 -0.35656440751E+02  0.21902809136E+02 -0.91114298878E+01  0.17844559492E+03  0.17323018610E+03 0.  0.
         24    2    5    5    0    0 -0.41144870787E+02 -0.32407304637E+02 -0.51129772563E+02  0.10939965048E+03  0.81307417230E+02 0.  0.
          5    1    5    5  501    0  0.54884300360E+01  0.54310113773E+02  0.42018342675E+02  0.69045944439E+02  0.47000000000E+01 0. -1.
        -13    1    6    6    0    0 -0.34695954490E+02  0.18224367897E+01  0.12447277268E+02  0.36906168119E+02  0.00000000000E+00 0.  1.
         14    1    6    6    0    0 -0.64489162976E+01 -0.34229741426E+02 -0.63577049831E+02  0.72493482360E+02  0.00000000000E+00 0. -1.
         -5    1    3    3    0  503  0.61484732694E+02  0.15712316396E+02  0.56470779743E+02  0.85078130009E+02  0.47000000000E+01 0.  1.
         13    1    4    4    0    0 -0.45413253594E+02 -0.30484097043E+02  0.95775564328E+01  0.55528131265E+02  0.00000000000E+00 0. -1.
        -14    1    4    4    0    0  0.19584961651E+02 -0.71310284894E+01 -0.33408730020E+02  0.39377220976E+02  0.00000000000E+00 0.  1.
</event>
<event>
12    1  0.1594973E-001  0.2534832E+03  0.7818608E-02  0.1111142E+00
         21   -1    0    0  501  502  0.00000000000E+00  0.00000000000E+00  0.29992784242E+04  0.29992784242E+04  0.00000000000E+00 0.  1.
         21   -1    0    0  502  503 -0.00000000000E+00 -0.00000000000E+00 -0.71625919418E+02  0.71625919418E+02  0.00000000000E+00 0. -1.
         -6    2    1    2    0  503 -0.13672739026E+03 -0.12633379242E+03  0.17810438623E+03  0.30969653277E+03  0.17186088462E+03 0.  0.
        -24    2    3    3    0    0 -0.97234009899E+02 -0.15569249173E+03  0.12014125394E+03  0.23351599049E+03  0.80007451220E+02 0.  0.
          6    2    1    2  501    0  0.13672739026E+03  0.12633379242E+03  0.27495481186E+04  0.27612078109E+04  0.17204392492E+03 0.  0.
         24    2    5    5    0    0  0.58685468925E+02  0.71209637464E+02  0.22003113054E+04  0.22037023123E+04  0.80120184830E+02 0.  0.
          5    1    5    5  501    0  0.78041921332E+02  0.55124154955E+02  0.54923681322E+03  0.55750549858E+03  0.47000000000E+01 0. -1.
        -11    1    6    6    0    0  0.63211116709E+02  0.14509147950E+02  0.10754132554E+04  0.10773670826E+04  0.00000000000E+00 0.  1.
         12    1    6    6    0    0 -0.45256477840E+01  0.56700489514E+02  0.11248980499E+04  0.11263352298E+04  0.00000000000E+00 0. -1.
         -5    1    3    3    0  503 -0.39493380358E+02  0.29358699317E+02  0.57963132287E+02  0.76180542281E+02  0.47000000000E+01 0.  1.
         11    1    4    4    0    0 -0.19697565807E+01 -0.76026308631E+02  0.45091619516E+02  0.88414555904E+02  0.00000000000E+00 0. -1.
        -12    1    4    4    0    0 -0.95264253319E+02 -0.79666183104E+02  0.75049634424E+02  0.14510143458E+03  0.00000000000E+00 0.  1.
</event>
<event>
12    1  0.1594973E-001  0.2442564E+03  0.7818608E-02  0.1117055E+00
         21   -1    0    0  503  502  0.00000000000E+00  0.00000000000E+00  0.12854787655E+04  0.12854787655E+04  0.00000000000E+00 0.  1.
         21   -1    0    0  501  503 -0.00000000000E+00 -0.00000000000E+00 -0.48852489289E+02  0.48852489289E+02  0.00000000000E+00 0.  1.
          6    2    1    2  501    0 -0.68932701033E+02  0.15926488850E+03  0.46736365555E+03  0.52734238534E+03  0.17188421355E+03 0.  0.
         24    2    3    3    0    0 -0.11529561610E+02  0.61877208495E+02  0.34785018184E+03  0.36276704991E+03  0.81476768315E+02 0.  0.
         -6    2    1    2    0  502  0.68932701033E+02 -0.15926488850E+03  0.76926262064E+03  0.80698886943E+03  0.17131559732E+03 0.  0.
        -24    2    5    5    0    0  0.60871687360E+02 -0.11894033032E+03  0.74017247197E+03  0.75639858693E+03  0.80195820028E+02 0.  0.
          5    1    3    3  501    0 -0.57403139424E+02  0.97387680006E+02  0.11951347371E+03  0.16457533543E+03  0.47000000000E+01 0. -1.
        -11    1    4    4    0    0  0.90696268422E+01  0.74666116245E+02  0.29782206687E+03  0.30717303032E+03  0.00000000000E+00 0.  1.
         12    1    4    4    0    0 -0.20599188452E+02 -0.12788907749E+02  0.50028114973E+02  0.55594019589E+02  0.00000000000E+00 0. -1.
         -5    1    5    5    0  502  0.80610136735E+01 -0.40324558177E+02  0.29090148677E+02  0.50590282503E+02  0.47000000000E+01 0.  1.
         11    1    6    6    0    0  0.17541151771E+00 -0.33359731498E+02  0.37418466784E+03  0.37566882770E+03  0.00000000000E+00 0. -1.
        -12    1    6    6    0    0  0.60696275842E+02 -0.85580598826E+02  0.36598780412E+03  0.38072975923E+03  0.00000000000E+00 0.  1.
</event>
<event>
12    1  0.1594973E-001  0.2331630E+03  0.7818608E-02  0.1124545E+00
         21   -1    0    0  501  502  0.00000000000E+00  0.00000000000E+00  0.38977844204E+03  0.38977844204E+03  0.00000000000E+00 0. -1.
         21   -1    0    0  502  503 -0.00000000000E+00 -0.00000000000E+00 -0.14250937279E+03  0.14250937279E+03  0.00000000000E+00 0.  1.
         -6    2    1    2    0  503  0.15305125453E+03 -0.32172998714E+02  0.16503648012E+03  0.28566068522E+03  0.17293119717E+03 0.  0.
        -24    2    3    3    0    0  0.79506672910E+02 -0.42851777612E+02  0.17292576211E+03  0.21077962905E+03  0.79794404186E+02 0.  0.
          6    2    1    2  501    0 -0.15305125453E+03  0.32172998714E+02  0.82232589131E+02  0.24662712961E+03  0.17205508998E+03 0.  0.
         24    2    5    5    0    0 -0.55506853774E+01  0.12805173392E+02  0.41607734993E+02  0.92341682047E+02  0.81246538746E+02 0.  0.
          5    1    5    5  501    0 -0.14750056915E+03  0.19367825322E+02  0.40624854138E+02  0.15428544757E+03  0.47000000000E+01 0. -1.
        -11    1    6    6    0    0  0.21664411461E+02  0.20895037609E+02 -0.11419057571E+02  0.32192300266E+02  0.00000000000E+00 0.  1.
         12    1    6    6    0    0 -0.27215096838E+02 -0.80898642168E+01  0.53026792564E+02  0.60149381780E+02  0.00000000000E+00 0. -1.
         -5    1    3    3    0  503  0.73544581617E+02  0.10678778898E+02 -0.78892819839E+01  0.74881056177E+02  0.47000000000E+01 0.  1.
         11    1    4    4    0    0  0.25625763659E+02 -0.14415292250E+00  0.12343190340E+03  0.12606401279E+03  0.00000000000E+00 0. -1.
        -12    1    4    4    0    0  0.53880909251E+02 -0.42707624690E+02  0.49493858702E+02  0.84715616256E+02  0.00000000000E+00 0.  1.
</event>
<event>
12    1  0.1594973E-001  0.2162031E+03  0.7818608E-02  0.1136986E+00
         21   -1    0    0  503  502  0.00000000000E+00  0.00000000000E+00  0.27283347453E+03  0.27283347453E+03  0.00000000000E+00 0.  1.
         21   -1    0    0  501  503 -0.00000000000E+00 -0.00000000000E+00 -0.17207228592E+03  0.17207228592E+03  0.00000000000E+00 0.  1.
          6    2    1    2  501    0  0.11279999732E+03  0.62628272870E+02  0.28172233275E+02  0.21803087721E+03  0.17348673936E+03 0.  0.
         24    2    3    3    0    0  0.83900163168E+02  0.65646454903E+02 -0.44029750843E+02  0.14005955975E+03  0.79557318306E+02 0.  0.
         -6    2    1    2    0  502 -0.11279999732E+03 -0.62628272870E+02  0.72588955337E+02  0.22687488324E+03  0.17192125015E+03 0.  0.
        -24    2    5    5    0    0 -0.90331604907E+02 -0.62093918617E+02  0.11474969188E+03  0.17886725991E+03  0.82526064417E+02 0.  0.
          5    1    3    3  501    0  0.28899834152E+02 -0.30181820330E+01  0.72201984118E+02  0.77971317466E+02  0.47000000000E+01 0. -1.
        -11    1    4    4    0    0  0.42723122197E+02  0.46878713954E+02  0.15490449450E+02  0.65290374608E+02  0.00000000000E+00 0.  1.
         12    1    4    4    0    0  0.41177040971E+02  0.18767740948E+02 -0.59520200292E+02  0.74769185139E+02  0.00000000000E+00 0. -1.
         -5    1    5    5    0  502 -0.22468392414E+02 -0.53435425256E+00 -0.42160736542E+02  0.48007623331E+02  0.47000000000E+01 0.  1.
         13    1    6    6    0    0  0.12511390336E+02  0.59597479671E+01  0.12718445694E+02  0.18809900181E+02  0.00000000000E+00 0. -1.
        -14    1    6    6    0    0 -0.10284299524E+03 -0.68053666584E+02  0.10203124619E+03  0.16005735973E+03  0.00000000000E+00 0.  1.
</event>
<event>
12    1  0.1594973E-001  0.2585635E+03  0.7818608E-02  0.1109315E+00
         21   -1    0    0  503  502  0.00000000000E+00  0.00000000000E+00  0.48198075207E+03  0.48198075207E+03  0.00000000000E+00 0.  1.
         21   -1    0    0  501  503 -0.00000000000E+00 -0.00000000000E+00 -0.13561985789E+03  0.13561985789E+03  0.00000000000E+00 0. -1.
          6    2    1    2  501    0  0.23811026691E+02 -0.17961509022E+03  0.20192887325E+03  0.32143230015E+03  0.17238012676E+03 0.  0.
         24    2    3    3    0    0  0.30496200465E+01 -0.20342792417E+03  0.17680192656E+03  0.28079315010E+03  0.78699754716E+02 0.  0.
         -6    2    1    2    0  502 -0.23811026691E+02  0.17961509022E+03  0.14443202094E+03  0.29616830981E+03  0.18446276979E+03 0.  0.
        -24    2    5    5    0    0 -0.49987841697E+02  0.18679883978E+03  0.16142408476E+03  0.26380085495E+03  0.78361757707E+02 0.  0.
          5    1    3    3  501    0  0.20761406645E+02  0.23812833953E+02  0.25126946691E+02  0.40639150050E+02  0.47000000000E+01 0. -1.
        -11    1    4    4    0    0  0.72049306429E+01 -0.80800440964E+01  0.42098878337E+02  0.43468536845E+02  0.00000000000E+00 0.  1.
         12    1    4    4    0    0 -0.41553105964E+01 -0.19534788008E+03  0.13470304822E+03  0.23732461326E+03  0.00000000000E+00 0. -1.
         -5    1    5    5    0  502  0.26176815006E+02 -0.71837495576E+01 -0.16992063820E+02  0.32367454865E+02  0.47000000000E+01 0.  1.
         13    1    6    6    0    0 -0.49511098927E+01 -0.29393766392E+01 -0.48494446620E+01  0.75279836429E+01  0.00000000000E+00 0. -1.
        -14    1    6    6    0    0 -0.45036731804E+02  0.18973821642E+03  0.16627352942E+03  0.25627287130E+03  0.00000000000E+00 0.  1.
</event>
<event>
12    1  0.1594973E-001  0.1761140E+03  0.7818608E-02  0.1172108E+00
         21   -1    0    0  503  502  0.00000000000E+00  0.00000000000E+00  0.10491819013E+03  0.10491819013E+03  0.00000000000E+00 0.  1.
         21   -1    0    0  501  503 -0.00000000000E+00 -0.00000000000E+00 -0.38179147729E+03  0.38179147729E+03  0.00000000000E+00 0.  1.
          6    2    1    2  501    0 -0.32989096906E+02  0.95222183093E+01 -0.25681521340E+03  0.31140039693E+03  0.17273447895E+03 0.  0.
         24    2    3    3    0    0  0.23992862838E+02 -0.37136260414E+01 -0.23530244051E+03  0.24889423156E+03  0.77405758880E+02 0.  0.
         -6    2    1    2    0  502  0.32989096906E+02 -0.95222183093E+01 -0.20058073767E+02  0.17530927049E+03  0.17073974593E+03 0.  0.
        -24    2    5    5    0    0  0.25662757358E+02  0.54383289262E+02 -0.43203570901E+02  0.10678633136E+03  0.76945778055E+02 0.  0.
          5    1    3    3  501    0 -0.56981959744E+02  0.13235844351E+02 -0.21512772886E+02  0.62506165370E+02  0.47000000000E+01 0. -1.
        -13    1    4    4    0    0 -0.63894276231E+01 -0.28704053996E+02 -0.17101809252E+03  0.17352790977E+03  0.00000000000E+00 0.  1.
         14    1    4    4    0    0  0.30382290461E+02  0.24990427954E+02 -0.64284347992E+02  0.75366321788E+02  0.00000000000E+00 0. -1.
         -5    1    5    5    0  502  0.73263395484E+01 -0.63905507571E+02  0.23145497134E+02  0.68522939128E+02  0.47000000000E+01 0.  1.
         11    1    6    6    0    0 -0.27515762680E+02  0.20138741743E+02 -0.19214727934E+02  0.39139390446E+02  0.00000000000E+00 0. -1.
        -12    1    6    6    0    0  0.53178520038E+02  0.34244547519E+02 -0.23988842966E+02  0.67646940914E+02  0.00000000000E+00 0.  1.
</event>
<event>
12    1  0.1594973E-001  0.1875928E+03  0.7818608E-02  0.1160900E+00
         21   -1    0    0  501  502  0.00000000000E+00  0.00000000000E+00  0.27880561406E+02  0.27880561406E+02  0.00000000000E+00 0. -1.
         21   -1    0    0  502  503 -0.00000000000E+00 -0.00000000000E+00 -0.12653333449E+04  0.12653333449E+04  0.00000000000E+00 0. -1.
         -6    2    1    2    0  503  0.35203045025E+02 -0.55057709372E+02 -0.67564403921E+03  0.70091318840E+03  0.17468206608E+03 0.  0.
        -24    2    3    3    0    0  0.37008657512E+02 -0.10489410899E+03 -0.48393385482E+03  0.50276725288E+03  0.78806851839E+02 0.  0.
          6    2    1    2  501    0 -0.35203045025E+02  0.55057709372E+02 -0.56180874430E+03  0.59230071792E+03  0.17584217225E+03 0.  0.
         24    2    5    5    0    0  0.26736397836E+02  0.50456816242E+02 -0.17671026182E+03  0.20219740596E+03  0.79978428768E+02 0.  0.
          5    1    5    5  501    0 -0.61939442861E+02  0.46008931301E+01 -0.38509848248E+03  0.39010331197E+03  0.47000000000E+01 0. -1.
        -13    1    6    6    0    0  0.96676550831E+01 -0.17521006381E+02 -0.12345357835E+02  0.23512913037E+02  0.00000000000E+00 0.  1.
         14    1    6    6    0    0  0.17068742753E+02  0.67977822623E+02 -0.16436490399E+03  0.17868449292E+03  0.00000000000E+00 0. -1.
         -5    1    3    3    0  503 -0.18056124866E+01  0.49836399618E+02 -0.19171018440E+03  0.19814593552E+03  0.47000000000E+01 0.  1.
         13    1    4    4    0    0  0.42182370335E+02 -0.89255750128E+02 -0.47253140157E+03  0.48273374314E+03  0.00000000000E+00 0. -1.
        -14    1    4    4    0    0 -0.51737128237E+01 -0.15638358863E+02 -0.11402453247E+02  0.20033509736E+02  0.00000000000E+00 0.  1.
</event>
<event>
12    1  0.1594973E-001  0.1834650E+03  0.7818608E-02  0.1164924E+00
         21   -1    0    0  503  502  0.00000000000E+00  0.00000000000E+00  0.17311680365E+03  0.17311680365E+03  0.00000000000E+00 0. -1.
         21   -1    0    0  501  503 -0.00000000000E+00 -0.00000000000E+00 -0.19251647743E+03  0.19251647743E+03  0.00000000000E+00 0. -1.
          6    2    1    2  501    0  0.53577621941E+02 -0.20318436816E+02 -0.11222422378E+02  0.18198617491E+03  0.17236480107E+03 0.  0.
         24    2    3    3    0    0 -0.99887782959E+01 -0.56437517433E+01  0.58411194355E+02  0.86451028500E+02  0.62691985749E+02 0.  0.
         -6    2    1    2    0  502 -0.53577621941E+02  0.20318436816E+02 -0.81772514081E+01  0.18364710616E+03  0.17428709566E+03 0.  0.
        -24    2    5    5    0    0 -0.50465530757E+02 -0.13175616039E+02  0.55565426121E+02  0.11141999473E+03  0.81280575737E+02 0.  0.
          5    1    3    3  501    0  0.63566400237E+02 -0.14674685073E+02 -0.69633616733E+02  0.95535146415E+02  0.47000000000E+01 0. -1.
        -13    1    4    4    0    0  0.22214809952E+02  0.28693791322E+01  0.41487380549E+01  0.22780323642E+02  0.00000000000E+00 0.  1.
         14    1    4    4    0    0 -0.32203588248E+02 -0.85131308754E+01  0.54262456300E+02  0.63670704858E+02  0.00000000000E+00 0. -1.
         -5    1    5    5    0  502 -0.31120911839E+01  0.33494052855E+02 -0.63742677529E+02  0.72227111439E+02  0.47000000000E+01 0.  1.
         13    1    6    6    0    0  0.15409291795E+02  0.13986264772E+02 -0.40052400426E+00  0.20813992778E+02  0.00000000000E+00 0. -1.
        -14    1    6    6    0    0 -0.65874822553E+02 -0.27161880811E+02  0.55965950125E+02  0.90606001948E+02  0.00000000000E+00 0.  1.
</event>
<event>
12    1  0.1594973E-001  0.2130761E+03  0.7818608E-02  0.1139424E+00
         21   -1    0    0  503  502  0.00000000000E+00  0.00000000000E+00  0.97375627992E+02  0.97375627992E+02  0.00000000000E+00 0.  1.
         21   -1    0    0  501  503 -0.00000000000E+00 -0.00000000000E+00 -0.51497449941E+03  0.51497449941E+03  0.00000000000E+00 0.  1.
          6    2    1    2  501    0  0.11292803669E+03 -0.49780296431E+02 -0.30648562220E+03  0.37327584511E+03  0.17369686395E+03 0.  0.
         24    2    3    3    0    0  0.24105336113E+02  0.27513488252E+02 -0.84476133696E+02  0.12193125242E+03  0.79955949676E+02 0.  0.
         -6    2    1    2    0  502 -0.11292803669E+03  0.49780296431E+02 -0.11111324922E+03  0.23907428229E+03  0.17198703124E+03 0.  0.
        -24    2    5    5    0    0 -0.58235059664E+02 -0.33075340950E+02 -0.24538727670E+02  0.10726526832E+03  0.80114844310E+02 0.  0.
          5    1    3    3  501    0  0.88822700579E+02 -0.77293784683E+02 -0.22200948850E+03  0.25134459269E+03  0.47000000000E+01 0. -1.
        -11    1    4    4    0    0 -0.13734220184E+02 -0.15501204963E+01  0.93385290783E+01  0.16680521664E+02  0.00000000000E+00 0.  1.
         12    1    4    4    0    0  0.37839556297E+02  0.29063608748E+02 -0.93814662774E+02  0.10525073076E+03  0.00000000000E+00 0. -1.
         -5    1    5    5    0  502 -0.54692977027E+02  0.82855637381E+02 -0.86574521547E+02  0.13180901397E+03  0.47000000000E+01 0.  1.
         13    1    6    6    0    0  0.19369196588E+02 -0.22123957132E+01 -0.11786504758E+02  0.22781180076E+02  0.00000000000E+00 0. -1.
        -14    1    6    6    0    0 -0.77604256252E+02 -0.30862945237E+02 -0.12752222913E+02  0.84484088244E+02  0.00000000000E+00 0.  1.
</event>
<event>
12    1  0.1594973E-001  0.2141601E+03  0.7818608E-02  0.1138432E+00
         21   -1    0    0  501  502  0.00000000000E+00  0.00000000000E+00  0.11321180396E+03  0.11321180396E+03  0.00000000000E+00 0. -1.
         21   -1    0    0  502  503 -0.00000000000E+00 -0.00000000000E+00 -0.77438702647E+03  0.77438702647E+03  0.00000000000E+00 0.  1.
         -6    2    1    2    0  503 -0.11596204045E+03 -0.51362828607E+02 -0.63728239739E+03  0.67211002733E+03  0.17180715881E+03 0.  0.
        -24    2    3    3    0    0 -0.10899609792E+03 -0.50674571710E+02 -0.28713501630E+03  0.32186114933E+03  0.81853651607E+02 0.  0.
          6    2    1    2  501    0  0.11596204045E+03  0.51362828607E+02 -0.23892825115E+02  0.21548880311E+03  0.17256657320E+03 0.  0.
         24    2    5    5    0    0  0.67452149374E+02 -0.26018536173E+02  0.27007025175E+02  0.11082758819E+03  0.79540041592E+02 0.  0.
          5    1    5    5  501    0  0.48509891072E+02  0.77381364781E+02 -0.50899850290E+02  0.10466121491E+03  0.47000000000E+01 0. -1.
        -13    1    6    6    0    0  0.11767342314E+02  0.24767859344E+01 -0.26122434164E+02  0.28757370887E+02  0.00000000000E+00 0.  1.
         14    1    6    6    0    0  0.55684807060E+02 -0.28495322108E+02  0.53129459338E+02  0.82070217307E+02  0.00000000000E+00 0. -1.
         -5    1    3    3    0  503 -0.69659425251E+01 -0.68825689675E+00 -0.35014738109E+03  0.35024887800E+03  0.47000000000E+01 0.  1.
         13    1    4    4    0    0 -0.61085688581E+02 -0.57698677077E+02 -0.24000452327E+03  0.25428875295E+03  0.00000000000E+00 0. -1.
        -14    1    4    4    0    0 -0.47910409339E+02  0.70241053664E+01 -0.47130493027E+02  0.67572396378E+02  0.00000000000E+00 0.  1.
</event>
<event>
12    1  0.1594973E-001  0.2316120E+03  0.7818608E-02  0.1125666E+00
         21   -1    0    0  503  502  0.00000000000E+00  0.00000000000E+00  0.11290069877E+04  0.11290069877E+04  0.00000000000E+00 0. -1.
         21   -1    0    0  501  503 -0.00000000000E+00 -0.00000000000E+00 -0.47837915322E+02  0.47837915322E+02  0.00000000000E+00 0. -1.
          6    2    1    2  501    0 -0.14154705744E+03 -0.63385926373E+02  0.48111470680E+03  0.53396204594E+03  0.17201965083E+03 0.  0.
         24    2    3    3    0    0 -0.42426908130E+02 -0.70712303254E+02  0.16121389580E+03  0.19894398870E+03  0.82392463708E+02 0.  0.
         -6    2    1    2    0  502  0.14154705744E+03  0.63385926373E+02  0.60005436556E+03  0.64288285707E+03  0.17082090373E+03 0.  0.
        -24    2    5    5    0    0  0.16080053928E+03  0.29568705998E+02  0.40811813509E+03  0.44698516049E+03  0.80648618729E+02 0.  0.
          5    1    3    3  501    0 -0.99120149308E+02  0.73263768815E+01  0.31990081100E+03  0.33501805724E+03  0.47000000000E+01 0. -1.
        -13    1    4    4    0    0 -0.18624351236E+02 -0.69580630495E+02  0.15955086069E+03  0.17505658441E+03  0.00000000000E+00 0.  1.
         14    1    4    4    0    0 -0.23802556894E+02 -0.11316727586E+01  0.16630351119E+01  0.23887404289E+02  0.00000000000E+00 0. -1.
         -5    1    5    5    0  502 -0.19253481841E+02  0.33817220374E+02  0.19193623047E+03  0.19589769658E+03  0.47000000000E+01 0.  1.
         13    1    6    6    0    0  0.11801112776E+03  0.57427189499E+02  0.29519043536E+03  0.32305092709E+03  0.00000000000E+00 0. -1.
        -14    1    6    6    0    0  0.42789411519E+02 -0.27858483501E+02  0.11292769973E+03  0.12393423340E+03  0.00000000000E+00 0.  1.
</event>
<event>
12    1  0.1594973E-001  0.1726537E+03  0.7818608E-02  0.1176114E+00
         21   -1    0    0  501  502  0.00000000000E+00  0.00000000000E+00  0.77953849171E+03  0.77953849171E+03  0.00000000000E+00 0.  1.
         21   -1    0    0  502  503 -0.00000000000E+00 -0.00000000000E+00 -0.57983551452E+02  0.57983551452E+02  0.00000000000E+00 0.  1.
         -6    2    1    2    0  503  0.18604092495E+02 -0.10103215440E+02  0.10853499236E+03  0.20065253330E+03  0.16743179904E+03 0.  0.
        -24    2    3    3    0    0  0.54212600419E+02  0.16305234450E+02  0.11958900316E+03  0.15472157188E+03  0.80202047427E+02 0.  0.
          6    2    1    2  501    0 -0.18604092495E+02  0.10103215440E+02  0.61301994789E+03  0.63686950987E+03  0.17135089396E+03 0.  0.
         24    2    5    5    0    0 -0.64650676684E+02  0.21274628678E+02  0.24438926166E+03  0.26517640901E+03  0.77201663588E+02 0.  0.
          5    1    5    5  501    0  0.46046584189E+02 -0.11171413238E+02  0.36863068623E+03  0.37169310085E+03  0.47000000000E+01 0. -1.
        -11    1    6    6    0    0 -0.45570799569E+02 -0.13135685705E+02  0.20136137120E+03  0.20687108503E+03  0.00000000000E+00 0.  1.
         12    1    6    6    0    0 -0.19079877115E+02  0.34410314383E+02  0.43027890463E+02  0.58305323979E+02  0.00000000000E+00 0. -1.
         -5    1    3    3    0  503 -0.35608507923E+02 -0.26408449889E+02 -0.11054010800E+02  0.45930961419E+02  0.47000000000E+01 0.  1.
         11    1    4    4    0    0  0.39430942791E+01 -0.29291853883E+02  0.45393887135E+02  0.54167939647E+02  0.00000000000E+00 0. -1.
        -12    1    4    4    0    0  0.50269506140E+02  0.45597088333E+02  0.74195116029E+02  0.10055363223E+03  0.00000000000E+00 0.  1.
</event>
<event>
12    1  0.1594973E-001  0.1994989E+03  0.7818608E-02  0.1150281E+00
         21   -1    0    0  503  502  0.00000000000E+00  0.00000000000E+00  0.14495406221E+04  0.14495406221E+04  0.00000000000E+00 0. -1.
         21   -1    0    0  501  503 -0.00000000000E+00 -0.00000000000E+00 -0.35512062786E+02  0.35512062786E+02  0.00000000000E+00 0.  1.
          6    2    1    2  501    0 -0.50105829839E+02 -0.85087899517E+02  0.35245153373E+03  0.40499615279E+03  0.17334721030E+03 0.  0.
         24    2    3    3    0    0 -0.80745059411E+02 -0.56214598075E+02  0.21038785012E+03  0.25675105127E+03  0.10944500534E+03 0.  0.
         -6    2    1    2    0  502  0.50105829839E+02  0.85087899517E+02  0.10615770255E+04  0.10800565321E+04  0.17270143729E+03 0.  0.
        -24    2    5    5    0    0 -0.24885923495E+02  0.47418351328E+02  0.77484729669E+03  0.78126097429E+03  0.84336039368E+02 0.  0.
          5    1    3    3  501    0  0.30639229572E+02 -0.28873301442E+02  0.14206368361E+03  0.14824510152E+03  0.47000000000E+01 0. -1.
        -13    1    4    4    0    0  0.71354806387E+01 -0.58627843371E+02  0.91035401761E+02  0.10851536055E+03  0.00000000000E+00 0.  1.
         14    1    4    4    0    0 -0.87880540049E+02  0.24132452963E+01  0.11935244836E+03  0.14823569072E+03  0.00000000000E+00 0. -1.
         -5    1    5    5    0  502  0.74991753334E+02  0.37669548188E+02  0.28672972886E+03  0.29879555777E+03  0.47000000000E+01 0.  1.
         11    1    6    6    0    0 -0.43142156073E+00  0.62346752904E+02  0.35470821480E+03  0.36014611114E+03  0.00000000000E+00 0. -1.
        -12    1    6    6    0    0 -0.24454501935E+02 -0.14928401576E+02  0.42013908189E+03  0.42111486316E+03  0.00000000000E+00 0.  1.
</event>
<event>
12    1  0.1594973E-001  0.1797317E+03  0.7818608E-02  0.1168311E+00
         21   -1    0    0  503  502  0.00000000000E+00  0.00000000000E+00  0.34697254025E+03  0.34697254025E+03  0.00000000000E+00 0.  1.
         21   -1    0    0  501  503 -0.00000000000E+00 -0.00000000000E+00 -0.11914076780E+03  0.11914076780E+03  0.00000000000E+00 0.  1.
          6    2    1    2  501    0 -0.48841604759E+02 -0.68556430027E+01  0.36108825529E+01  0.17874859633E+03  0.17177170902E+03 0.  0.
         24    2    3    3    0    0  0.58793246333E+01 -0.18005817378E+02 -0.62171458387E+02  0.92330352413E+02  0.65580697017E+02 0.  0.
         -6    2    1    2    0  502  0.48841604759E+02  0.68556430027E+01  0.22422088990E+03  0.28736471171E+03  0.17283219571E+03 0.  0.
        -24    2    5    5    0    0  0.61588706746E+02 -0.95226077245E+01  0.51822272618E+02  0.11365774885E+03  0.79678648824E+02 0.  0.
          5    1    3    3  501    0 -0.54720929392E+02  0.11150174375E+02  0.65782340940E+02  0.86418243917E+02  0.47000000000E+01 0. -1.
        -13    1    4    4    0    0  0.26555080562E+02 -0.51893488364E+01 -0.16552478760E+01  0.27107959911E+02  0.00000000000E+00 0.  1.
         14    1    4    4    0    0 -0.20675755929E+02 -0.12816468541E+02 -0.60516210511E+02  0.65222392502E+02  0.00000000000E+00 0. -1.
         -5    1    5    5    0  502 -0.12747101987E+02  0.16378250727E+02  0.17239861728E+03  0.17370696286E+03  0.47000000000E+01 0.  1.
         11    1    6    6    0    0  0.23259590643E+02  0.35208767731E+02  0.19850093769E+02  0.46633594164E+02  0.00000000000E+00 0. -1.
        -12    1    6    6    0    0  0.38329116102E+02 -0.44731375455E+02  0.31972178848E+02  0.67024154688E+02  0.00000000000E+00 0.  1.
</event>
<event>
12    1  0.1594973E-001  0.1992275E+03  0.7818608E-02  0.1150463E+00
         21   -1    0    0  503  502  0.00000000000E+00  0.00000000000E+00  0.26844217180E+03  0.26844217180E+03  0.00000000000E+00 0. -1.
         21   -1    0    0  501  503 -0.00000000000E+00 -0.00000000000E+00 -0.14792294713E+03  0.14792294713E+03  0.00000000000E+00 0. -1.
          6    2    1    2  501    0  0.63485299157E+02  0.75752750129E+02  0.69750054932E+02  0.21077062409E+03  0.17259873538E+03 0.  0.
         24    2    3    3    0    0 -0.17406568506E+02  0.62897103756E+02  0.76707472456E+02  0.12843437717E+03  0.79701434249E+02 0.  0.
         -6    2    1    2    0  502 -0.63485299157E+02 -0.75752750129E+02  0.50769169734E+02  0.20559449484E+03  0.17298186422E+03 0.  0.
        -24    2    5    5    0    0 -0.18745302373E+02 -0.11216583038E+03  0.20084154828E+02  0.14008693905E+03  0.79299541925E+02 0.  0.
          5    1    3    3  501    0  0.80891867662E+02  0.12855646373E+02 -0.69574175238E+01  0.82336246915E+02  0.47000000000E+01 0. -1.
        -13    1    4    4    0    0 -0.11224036856E+02  0.51482906122E+02  0.21296337930E+01  0.52735225099E+02  0.00000000000E+00 0.  1.
         14    1    4    4    0    0 -0.61825316496E+01  0.11414197634E+02  0.74577838663E+02  0.75699152075E+02  0.00000000000E+00 0. -1.
         -5    1    5    5    0  502 -0.44739996783E+02  0.36413080254E+02  0.30685014906E+02  0.65507555790E+02  0.47000000000E+01 0.  1.
         11    1    6    6    0    0 -0.33377760582E+02 -0.24592945119E+02  0.29380893728E+02  0.50814611750E+02  0.00000000000E+00 0. -1.
        -12    1    6    6    0    0  0.14632458209E+02 -0.87572885264E+02 -0.92967388997E+01  0.89272327296E+02  0.00000000000E+00 0.  1.
</event>
<event>
12    1  0.1594973E-001  0.3053767E+03  0.7818608E-02  0.1082683E+00
         21   -1    0    0  503  502  0.00000000000E+00  0.00000000000E+00  0.36302010396E+03  0.36302010396E+03  0.00000000000E+00 0.  1.
         21   -1    0    0  501  503 -0.00000000000E+00 -0.00000000000E+00 -0.40013877675E+03  0.40013877675E+03  0.00000000000E+00 0.  1.
          6    2    1    2  501    0 -0.24659225426E+03  0.52844865728E+02 -0.24740384209E+03  0.39238293958E+03  0.17074949634E+03 0.  0.
         24    2    3    3    0    0 -0.35487288762E+02  0.20487176016E+02 -0.61760747466E+02  0.10936743626E+03  0.80422472859E+02 0.  0.
         -6    2    1    2    0  502  0.24659225426E+03 -0.52844865728E+02  0.21028516929E+03  0.37077594113E+03  0.17220518692E+03 0.  0.
        -24    2    5    5    0    0  0.26642593014E+03 -0.45849343487E+02  0.20535020672E+03  0.34866811704E+03  0.79472069909E+02 0.  0.
          5    1    3    3  501    0 -0.21110496550E+03  0.32357689712E+02 -0.18564309462E+03  0.28301550333E+03  0.47000000000E+01 0. -1.
        -13    1    4    4    0    0 -0.25622222309E+02  0.49597433880E+02 -0.24228879928E+02  0.60855914635E+02  0.00000000000E+00 0.  1.
         14    1    4    4    0    0 -0.98650664527E+01 -0.29110257863E+02 -0.37531867539E+02  0.48511521621E+02  0.00000000000E+00 0. -1.
         -5    1    5    5    0  502 -0.19833675876E+02 -0.69955222414E+01  0.49349625704E+01  0.22107824085E+02  0.47000000000E+01 0.  1.
         13    1    6    6    0    0  0.11784079463E+02 -0.81302051172E+01 -0.60755886560E+01  0.15552412725E+02  0.00000000000E+00 0. -1.
        -14    1    6    6    0    0  0.25464185067E+03 -0.37719138370E+02  0.21142579538E+03  0.33311570432E+03  0.00000000000E+00 0.  1.
</event>
<event>
12    1  0.1594973E-001  0.2424953E+03  0.7818608E-02  0.1118958E+00
         21   -1    0    0  503  502  0.00000000000E+00  0.00000000000E+00  0.41556018955E+03  0.41556018955E+03  0.00000000000E+00 0. -1.
         21   -1    0    0  501  503 -0.00000000000E+00 -0.00000000000E+00 -0.15891381757E+03  0.15891381757E+03  0.00000000000E+00 0. -1.
          6    2    1    2  501    0 -0.17163617515E+03 -0.67695776187E+01  0.26909494651E+02  0.24398376525E+03  0.17116995356E+03 0.  0.
         24    2    3    3    0    0 -0.19872285452E+03 -0.10447914549E+02  0.23207320537E+02  0.21600136980E+03  0.80734628273E+02 0.  0.
         -6    2    1    2    0  502  0.17163617515E+03  0.67695776187E+01  0.22973687733E+03  0.33049024187E+03  0.16413397993E+03 0.  0.
        -24    2    5    5    0    0  0.10188643776E+03 -0.56572891685E+02  0.13936583355E+03  0.19985215464E+03  0.83286913010E+02 0.  0.
          5    1    3    3  501    0  0.27086679369E+02  0.36783369307E+01  0.37021741141E+01  0.27982395447E+02  0.47000000000E+01 0. -1.
        -11    1    4    4    0    0 -0.56310865310E+01 -0.17978681142E+02 -0.76138992169E+01  0.20320274910E+02  0.00000000000E+00 0.  1.
         12    1    4    4    0    0 -0.19309176799E+03  0.75307665931E+01  0.30821219753E+02  0.19568109489E+03  0.00000000000E+00 0. -1.
         -5    1    5    5    0  502  0.69749737388E+02  0.63342469304E+02  0.90371043772E+02  0.13063808723E+03  0.47000000000E+01 0.  1.
         11    1    6    6    0    0  0.87065970699E+02 -0.50240233781E+01  0.10342648189E+03  0.13528769796E+03  0.00000000000E+00 0. -1.
        -12    1    6    6    0    0  0.14820467061E+02 -0.51548868307E+02  0.35939351666E+02  0.64564456676E+02  0.00000000000E+00 0.  1.
</event>
<event>
12    1  0.1594973E-001  0.1966427E+03  0.7818608E-02  0.1153059E+00
         21   -1    0    0  501  502  0.00000000000E+00  0.00000000000E+00  0.35789945850E+03  0.35789945850E+03  0.00000000000E+00 0.  1.
         21   -1    0    0  502  503 -0.00000000000E+00 -0.00000000000E+00 -0.28506022011E+03  0.28506022011E+03  0.00000000000E+00 0.  1.
         -6    2    1    2    0  503 -0.63403233758E+02 -0.71834246182E+02 -0.21766290780E+03  0.29333515074E+03  0.17172140302E+03 0.  0.
        -24    2    3    3    0    0 -0.96756727926E+02 -0.58062086716E+02 -0.12028730239E+03  0.18938214945E+03  0.93077887279E+02 0.  0.
          6    2    1    2  501    0  0.63403233758E+02  0.71834246182E+02  0.29050214619E+03  0.34962452787E+03  0.16930943437E+03 0.  0.
         24    2    5    5    0    0 -0.74992158804E+01 -0.13523119595E+02  0.13672268721E+03  0.15993201546E+03  0.81523268883E+02 0.  0.
          5    1    5    5  501    0  0.70902449638E+02  0.85357365777E+02  0.15377945898E+03  0.18969251240E+03  0.47000000000E+01 0. -1.
        -11    1    6    6    0    0 -0.23966020448E+02 -0.12754246844E+02  0.14043447811E+03  0.14303455383E+03  0.00000000000E+00 0.  1.
         12    1    6    6    0    0  0.16466804567E+02 -0.76887275088E+00 -0.37117908947E+01  0.16897461632E+02  0.00000000000E+00 0. -1.
         -5    1    3    3    0  503  0.33353494168E+02 -0.13772159466E+02 -0.97375605410E+02  0.10395300130E+03  0.47000000000E+01 0.  1.
         11    1    4    4    0    0 -0.49389961027E+02 -0.48502587980E+01 -0.10554870404E+03  0.11663370948E+03  0.00000000000E+00 0. -1.
        -12    1    4    4    0    0 -0.47366766899E+02 -0.53211827918E+02 -0.14738598341E+02  0.72748439969E+02  0.00000000000E+00 0.  1.
</event>
<event>
12    1  0.1594973E-001  0.2590605E+03  0.7818608E-02  0.1107820E+00
         21   -1    0    0  501  502  0.00000000000E+00  0.00000000000E+00  0.52069360320E+03  0.52069360320E+03  0.00000000000E+00 0. -1.
         21   -1    0    0  502  503 -0.00000000000E+00 -0.00000000000E+00 -0.15075844046E+03  0.15075844046E+03  0.00000000000E+00 0.  1.
         -6    2    1    2    0  503  0.19041191743E+03  0.34895583046E+02  0.56265271785E+02  0.26510019877E+03  0.17215671513E+03 0.  0.
        -24    2    3    3    0    0  0.48230949232E+02  0.43787335053E+02 -0.20067089399E+02  0.10341157723E+03  0.77767030638E+02 0.  0.
          6    2    1    2  501    0 -0.19041191743E+03 -0.34895583046E+02  0.31366989095E+03  0.40635184489E+03  0.17105151663E+03 0.  0.
         24    2    5    5    0    0 -0.19407368760E+03 -0.66538543097E+02  0.23672671390E+03  0.32294304453E+03  0.78490120421E+02 0.  0.
          5    1    5    5  501    0  0.36617701726E+01  0.31642960051E+02  0.76943177057E+02  0.83408800358E+02  0.47000000000E+01 0. -1.
        -13    1    6    6    0    0 -0.60708627691E+02  0.98884539605E+01  0.40354054612E+02  0.73564724709E+02  0.00000000000E+00 0.  1.
         14    1    6    6    0    0 -0.13336505991E+03 -0.76426997057E+02  0.19637265928E+03  0.24937831982E+03  0.00000000000E+00 0. -1.
         -5    1    3    3    0  503  0.14218096819E+03 -0.88917520066E+01  0.76332361184E+02  0.16168862154E+03  0.47000000000E+01 0.  1.
         11    1    4    4    0    0 -0.19140018996E+02 -0.30269993248E+01 -0.48063504543E+01  0.19965070918E+02  0.00000000000E+00 0. -1.
        -12    1    4    4    0    0  0.67370968228E+02  0.46814334378E+02 -0.15260738945E+02  0.83446506316E+02  0.00000000000E+00 0.  1.
</event>
<event>
12    1  0.1594973E-001  0.1908528E+03  0.7818608E-02  0.1158103E+00
         21   -1    0    0  501  502  0.00000000000E+00  0.00000000000E+00  0.28437228239E+03  0.28437228239E+03  0.00000000000E+00 0. -1.
         21   -1    0    0  502  503 -0.00000000000E+00 -0.00000000000E+00 -0.12898486384E+03  0.12898486384E+03  0.00000000000E+00 0. -1.
         -6    2    1    2    0  503  0.82157906226E+02 -0.15766178808E+02  0.50885597625E+02  0.19576707940E+03  0.16951964895E+03 0.  0.
        -24    2    3    3    0    0  0.11547403506E+03 -0.39193498995E+02  0.27377538657E+02  0.14850692061E+03  0.80214666420E+02 0.  0.
          6    2    1    2  501    0 -0.82157906226E+02  0.15766178808E+02  0.10450182093E+03  0.21759006683E+03  0.17154099410E+03 0.  0.
         24    2    5    5    0    0 -0.11927801201E+03 -0.12334409962E+01  0.84256305889E+02  0.17177674774E+03  0.90439816772E+02 0.  0.
          5    1    5    5  501    0  0.37120105780E+02  0.16999619804E+02  0.20245515040E+02  0.45813319088E+02  0.47000000000E+01 0. -1.
        -11    1    6    6    0    0 -0.39009347493E+02  0.23671107005E+02  0.74236104813E+02  0.87138107373E+02  0.00000000000E+00 0.  1.
         12    1    6    6    0    0 -0.80268664513E+02 -0.24904548001E+02  0.10020201076E+02  0.84638640368E+02  0.00000000000E+00 0. -1.
         -5    1    3    3    0  503 -0.33316128839E+02  0.23427320188E+02  0.23508058968E+02  0.47260158785E+02  0.47000000000E+01 0.  1.
         11    1    4    4    0    0  0.10877303718E+03 -0.24730917480E+02  0.48840361918E+02  0.12177262767E+03  0.00000000000E+00 0. -1.
        -12    1    4    4    0    0  0.67009978809E+01 -0.14462581515E+02 -0.21462823261E+02  0.26734292940E+02  0.00000000000E+00 0.  1.
</event>
<event>
12    1  0.1594973E-001  0.1998287E+03  0.7818608E-02  0.1150050E+00
         21   -1    0    0  503  502  0.00000000000E+00  0.00000000000E+00  0.56071478952E+03  0.56071478952E+03  0.00000000000E+00 0. -1.
         21   -1    0    0  501  503 -0.00000000000E+00 -0.00000000000E+00 -0.71202893680E+02  0.71202893680E+02  0.00000000000E+00 0.  1.
          6    2    1    2  501    0 -0.77672016660E+02  0.66845489382E+02  0.22584999584E+03  0.30156215532E+03  0.17155247382E+03 0.  0.
         24    2    3    3    0    0 -0.42512911488E+02 -0.18718823354E+02  0.64852433461E+02  0.11582115450E+03  0.83969992936E+02 0.  0.
         -6    2    1    2    0  502  0.77672016660E+02 -0.66845489382E+02  0.26366190000E+03  0.33035552788E+03  0.17063386437E+03 0.  0.
        -24    2    5    5    0    0  0.80880549387E+00 -0.19334784101E+02  0.20882173924E+03  0.22455026535E+03  0.80260917318E+02 0.  0.
          5    1    3    3  501    0 -0.35159105173E+02  0.85564312736E+02  0.16099756238E+03  0.18574100081E+03  0.47000000000E+01 0. -1.
        -11    1    4    4    0    0 -0.28385629831E+02 -0.45558912770E+02  0.66481097269E+02  0.85446444091E+02  0.00000000000E+00 0.  1.
         12    1    4    4    0    0 -0.14127281656E+02  0.26840089415E+02 -0.16286638080E+01  0.30374710412E+02  0.00000000000E+00 0. -1.
         -5    1    5    5    0  502  0.76863211167E+02 -0.47510705280E+02  0.54840160759E+02  0.10580526253E+03  0.47000000000E+01 0.  1.
         13    1    6    6    0    0 -0.14680162024E+02 -0.27785731685E+02  0.25743293536E+02  0.40623530182E+02  0.00000000000E+00 0. -1.
        -14    1    6    6    0    0  0.15488967518E+02  0.84509475836E+01  0.18307844570E+03  0.18392673517E+03  0.00000000000E+00 0.  1.
</event>
<event>
12    1  0.1594973E-001  0.2123529E+03  0.7818608E-02  0.1139803E+00
         21   -1    0    0  503  502  0.00000000000E+00  0.00000000000E+00  0.96618230640E+02  0.96618230640E+02  0.00000000000E+00 0.  1.
         21   -1    0    0  501  503 -0.00000000000E+00 -0.00000000000E+00 -0.57191372226E+03  0.57191372226E+03  0.00000000000E+00 0. -1.
          6    2    1    2  501    0  0.31988317393E+02  0.11989426236E+03 -0.93831132189E+02  0.23215952069E+03  0.17232491138E+03 0.  0.
         24    2    3    3    0    0 -0.26637125188E+02  0.40715995957E+02  0.19510502039E+01  0.94673314645E+02  0.81190523733E+02 0.  0.
         -6    2    1    2    0  502 -0.31988317393E+02 -0.11989426236E+03 -0.38146435943E+03  0.43637243221E+03  0.17177879810E+03 0.  0.
        -24    2    5    5    0    0 -0.81829383818E+02 -0.11235854485E+03 -0.26902581368E+03  0.31306211021E+03  0.79451279197E+02 0.  0.
          5    1    3    3  501    0  0.58625442582E+02  0.79178266408E+02 -0.95782182392E+02  0.13748620605E+03  0.47000000000E+01 0. -1.
        -11    1    4    4    0    0  0.14397410914E+02 -0.12139544367E+02  0.17793838619E+02  0.25908968936E+02  0.00000000000E+00 0.  1.
         12    1    4    4    0    0 -0.41034536103E+02  0.52855540324E+02 -0.15842788416E+02  0.68764345710E+02  0.00000000000E+00 0. -1.
         -5    1    5    5    0  502  0.49841066424E+02 -0.75357175194E+01 -0.11243854575E+03  0.12331032199E+03  0.47000000000E+01 0.  1.
         11    1    6    6    0    0 -0.92998670933E+01 -0.79310196358E+02 -0.14754888373E+03  0.16777147512E+03  0.00000000000E+00 0. -1.
        -12    1    6    6    0    0 -0.72529516724E+02 -0.33048348487E+02 -0.12147692996E+03  0.14529063509E+03  0.00000000000E+00 0.  1.
</event>
<event>
12    1  0.1594973E-001  0.2593877E+03  0.7818608E-02  0.1107664E+00
         21   -1    0    0  503  502  0.00000000000E+00  0.00000000000E+00  0.61536028196E+02  0.61536028196E+02  0.00000000000E+00 0.  1.
         21   -1    0    0  501  503 -0.00000000000E+00 -0.00000000000E+00 -0.10940180395E+04  0.10940180395E+04  0.00000000000E+00 0. -1.
          6    2    1    2  501    0 -0.16595347579E+03  0.10099511137E+03 -0.47655499799E+03  0.54209107472E+03  0.17034523338E+03 0.  0.
         24    2    3    3    0    0 -0.14230675856E+03  0.71962943890E+02 -0.22340590201E+03  0.28614461786E+03  0.80862021074E+02 0.  0.
         -6    2    1    2    0  502  0.16595347579E+03 -0.10099511137E+03 -0.55592701329E+03  0.61346299295E+03  0.17187620827E+03 0.  0.
        -24    2    5    5    0    0  0.96497980743E+02 -0.69692076987E+02 -0.49632600880E+03  0.51662128969E+03  0.79932496973E+02 0.  0.
          5    1    3    3  501    0 -0.23646717226E+02  0.29032167482E+02 -0.25314909598E+03  0.25594645686E+03  0.47000000000E+01 0. -1.
        -13    1    4    4    0    0 -0.19702457008E+02  0.32375976392E+02 -0.14246015332E+02  0.40488759087E+02  0.00000000000E+00 0.  1.
         14    1    4    4    0    0 -0.12260430155E+03  0.39586967497E+02 -0.20915988668E+03  0.24565585877E+03  0.00000000000E+00 0. -1.
         -5    1    5    5    0  502  0.69455495042E+02 -0.31303034385E+02 -0.59601004487E+02  0.96841703254E+02  0.47000000000E+01 0.  1.
         13    1    6    6    0    0  0.70969485319E+02 -0.79673389583E+02 -0.30038058238E+03  0.31876795812E+03  0.00000000000E+00 0. -1.
        -14    1    6    6    0    0  0.25528495424E+02  0.99813125958E+01 -0.19594542642E+03  0.19785333157E+03  0.00000000000E+00 0.  1.
</event>
<event>
12    1  0.1594973E-001  0.2399502E+03  0.7818608E-02  0.1119846E+00
         21   -1    0    0  503  502  0.00000000000E+00  0.00000000000E+00  0.51555731149E+03  0.51555731149E+03  0.00000000000E+00 0. -1.
         21   -1    0    0  501  503 -0.00000000000E+00 -0.00000000000E+00 -0.16432333112E+03  0.16432333112E+03  0.00000000000E+00 0.  1.
          6    2    1    2  501    0 -0.16690956769E+03  0.14393741091E+02 -0.16869807556E+02  0.24054249796E+03  0.17178509641E+03 0.  0.
         24    2    3    3    0    0 -0.96773898507E+02  0.74333667292E+02 -0.20429371141E+02  0.14809485149E+03  0.81388231993E+02 0.  0.
         -6    2    1    2    0  502  0.16690956769E+03 -0.14393741091E+02  0.36810378793E+03  0.43933814465E+03  0.17161475194E+03 0.  0.
        -24    2    5    5    0    0  0.71443125274E+02 -0.59110286694E+02  0.12934749193E+03  0.17830161472E+03  0.80389962056E+02 0.  0.
          5    1    3    3  501    0 -0.70135669186E+02 -0.59939926201E+02  0.35595635854E+01  0.92447646471E+02  0.47000000000E+01 0. -1.
        -11    1    4    4    0    0 -0.33911799687E+02  0.22258327796E+02 -0.47154506287E+02  0.62201212026E+02  0.00000000000E+00 0.  1.
         12    1    4    4    0    0 -0.62862098820E+02  0.52075339496E+02  0.26725135146E+02  0.85893639463E+02  0.00000000000E+00 0. -1.
         -5    1    5    5    0  502  0.95466442419E+02  0.44716545603E+02  0.23875629600E+03  0.26103652993E+03  0.47000000000E+01 0.  1.
         11    1    6    6    0    0  0.11886416101E+00 -0.80864457047E+01  0.74346324720E+02  0.74784896418E+02  0.00000000000E+00 0. -1.
        -12    1    6    6    0    0  0.71324261113E+02 -0.51023840990E+02  0.55001167211E+02  0.10351671830E+03  0.00000000000E+00 0.  1.
</event>
<event>
12    1  0.1594973E-001  0.2564251E+03  0.7818608E-02  0.1109405E+00
         21   -1    0    0  503  502  0.00000000000E+00  0.00000000000E+00  0.57871765283E+03  0.57871765283E+03  0.00000000000E+00 0. -1.
         21   -1    0    0  501  503 -0.00000000000E+00 -0.00000000000E+00 -0.11688545072E+03  0.11688545072E+03  0.00000000000E+00 0.  1.
          6    2    1    2  501    0 -0.18586997559E+03  0.36792348169E+02  0.29170812354E+03  0.38839084894E+03  0.17277875302E+03 0.  0.
         24    2    3    3    0    0 -0.16497185676E+03  0.52066834994E+02  0.14695479671E+03  0.24126621829E+03  0.81774121711E+02 0.  0.
         -6    2    1    2    0  502  0.18586997559E+03 -0.36792348169E+02  0.17012407858E+03  0.30721225461E+03  0.17185995043E+03 0.  0.
        -24    2    5    5    0    0  0.37109185466E+02  0.19641697203E+02  0.33262558534E+02  0.97289078608E+02  0.81215017708E+02 0.  0.
          5    1    3    3  501    0 -0.20898118834E+02 -0.15274486825E+02  0.14475332683E+03  0.14712463066E+03  0.47000000000E+01 0. -1.
        -11    1    4    4    0    0 -0.80792378779E+02 -0.58021854880E+01  0.30992146763E+02  0.86727083349E+02  0.00000000000E+00 0.  1.
         12    1    4    4    0    0 -0.84179477977E+02  0.57869020482E+02  0.11596264995E+03  0.15453913494E+03  0.00000000000E+00 0. -1.
         -5    1    5    5    0  502  0.14876079012E+03 -0.56434045372E+02  0.13686152004E+03  0.20992317601E+03  0.47000000000E+01 0.  1.
         13    1    6    6    0    0  0.50914984788E+02  0.38415910912E+02  0.10365083926E+02  0.64618517872E+02  0.00000000000E+00 0. -1.
        -14    1    6    6    0    0 -0.13805799322E+02 -0.18774213710E+02  0.22897474609E+02  0.32670560736E+02  0.00000000000E+00 0.  1.
</event>
<event>
12    1  0.1594973E-001  0.1831740E+03  0.7818608E-02  0.1165285E+00
         21   -1    0    0  503  502  0.00000000000E+00  0.00000000000E+00  0.21003375566E+03  0.21003375566E+03  0.00000000000E+00 0.  1.
         21   -1    0    0  501  503 -0.00000000000E+00 -0.00000000000E+00 -0.15786363194E+03  0.15786363194E+03  0.00000000000E+00 0.  1.
          6    2    1    2  501    0 -0.44342680281E+02  0.34993647379E+02  0.24668950829E+02  0.18482770731E+03  0.17424665163E+03 0.  0.
         24    2    3    3    0    0 -0.71225384719E+02  0.77788363065E+02  0.14725250521E+02  0.13310697004E+03  0.79853288053E+02 0.  0.
         -6    2    1    2    0  502  0.44342680281E+02 -0.34993647379E+02  0.27501172891E+02  0.18306968029E+03  0.17195163471E+03 0.  0.
        -24    2    5    5    0    0  0.65677002678E+02 -0.79658196017E+02  0.12398217834E+02  0.13110561128E+03  0.79850288850E+02 0.  0.
          5    1    3    3  501    0  0.26882704438E+02 -0.42794715686E+02  0.99437003080E+01  0.51720737276E+02  0.47000000000E+01 0. -1.
        -13    1    4    4    0    0 -0.25872598675E+02 -0.13133069216E+02  0.12186307351E+02  0.31470223324E+02  0.00000000000E+00 0.  1.
         14    1    4    4    0    0 -0.45352786044E+02  0.90921432281E+02  0.25389431700E+01  0.10163674671E+03  0.00000000000E+00 0. -1.
         -5    1    5    5    0  502 -0.21334322397E+02  0.44664548638E+02  0.15102955056E+02  0.51964069016E+02  0.47000000000E+01 0.  1.
         11    1    6    6    0    0 -0.80604634816E+00 -0.61625274599E+02  0.62378385275E+01  0.61945417987E+02  0.00000000000E+00 0. -1.
        -12    1    6    6    0    0  0.66483049026E+02 -0.18032921418E+02  0.61603793069E+01  0.69160193290E+02  0.00000000000E+00 0.  1.
</event>
<event>
12    1  0.1594973E-001  0.2051492E+03  0.7818608E-02  0.1145793E+00
         21   -1    0    0  501  502  0.00000000000E+00  0.00000000000E+00  0.40255655052E+03  0.40255655052E+03  0.00000000000E+00 0. -1.
         21   -1    0    0  502  503 -0.00000000000E+00 -0.00000000000E+00 -0.10885615146E+03  0.10885615146E+03  0.00000000000E+00 0. -1.
         -6    2    1    2    0  503 -0.92061511270E+02  0.56369102238E+02  0.20285730734E+03  0.28850872350E+03  0.17445170922E+03 0.  0.
        -24    2    3    3    0    0 -0.28956072501E+02  0.83628951379E+02  0.18108156298E+03  0.21624760795E+03  0.78359682564E+02 0.  0.
          6    2    1    2  501    0  0.92061511270E+02 -0.56369102238E+02  0.90843091721E+02  0.22290397848E+03  0.17257148885E+03 0.  0.
         24    2    5    5    0    0  0.47618629474E+02 -0.76249766725E+02  0.12566941506E+01  0.12083428076E+03  0.80732789675E+02 0.  0.
          5    1    5    5  501    0  0.44442881796E+02  0.19880664486E+02  0.89586397571E+02  0.10206969772E+03  0.47000000000E+01 0. -1.
        -13    1    6    6    0    0  0.31048743454E+02  0.85673850824E+01  0.10603946623E+02  0.33909707182E+02  0.00000000000E+00 0.  1.
         14    1    6    6    0    0  0.16569886020E+02 -0.84817151807E+02 -0.93472524724E+01  0.86924573581E+02  0.00000000000E+00 0. -1.
         -5    1    3    3    0  503 -0.63105438769E+02 -0.27259849141E+02  0.21775744363E+02  0.72261115546E+02  0.47000000000E+01 0.  1.
         11    1    4    4    0    0  0.27143317544E+02  0.22978404048E+02  0.52492448838E+02  0.63405235784E+02  0.00000000000E+00 0. -1.
        -12    1    4    4    0    0 -0.56099390044E+02  0.60650547331E+02  0.12858911414E+03  0.15284237217E+03  0.00000000000E+00 0.  1.
</event>
<event>
12    1  0.1594973E-001  0.1785801E+03  0.7818608E-02  0.1169748E+00
         21   -1    0    0  503  502  0.00000000000E+00  0.00000000000E+00  0.61244722134E+02  0.61244722134E+02  0.00000000000E+00 0. -1.
         21   -1    0    0  501  503 -0.00000000000E+00 -0.00000000000E+00 -0.79701898714E+03  0.79701898714E+03  0.00000000000E+00 0. -1.
          6    2    1    2  501    0  0.23113650408E+02  0.32505646600E+02 -0.62204748233E+03  0.64654540533E+03  0.17171788777E+03 0.  0.
         24    2    3    3    0    0  0.61150337594E+01  0.60675182427E+02 -0.20257208824E+03  0.22575546728E+03  0.78811221734E+02 0.  0.
         -6    2    1    2    0  502 -0.23113650408E+02 -0.32505646600E+02 -0.11372678267E+03  0.21171830394E+03  0.17406895539E+03 0.  0.
        -24    2    5    5    0    0 -0.17063965402E+02 -0.89070255320E+02 -0.87818064080E+02  0.14903253724E+03  0.79208556856E+02 0.  0.
          5    1    3    3  501    0  0.16998616648E+02 -0.28169535827E+02 -0.41947539409E+03  0.42078993805E+03  0.47000000000E+01 0. -1.
        -13    1    4    4    0    0  0.56186247036E+00 -0.91205990934E+01  0.21533674690E+01  0.93881845271E+01  0.00000000000E+00 0.  1.
         14    1    4    4    0    0  0.55531712891E+01  0.69795781521E+02 -0.20472545571E+03  0.21636728275E+03  0.00000000000E+00 0. -1.
         -5    1    5    5    0  502 -0.60496850059E+01  0.56564608719E+02 -0.25908718591E+02  0.62685766704E+02  0.47000000000E+01 0.  1.
         11    1    6    6    0    0 -0.19491700344E+02 -0.90736043829E+02 -0.10004136853E+03  0.13645963304E+03  0.00000000000E+00 0. -1.
        -12    1    6    6    0    0  0.24277349427E+01  0.16657885095E+01  0.12223304450E+02  0.12572904199E+02  0.00000000000E+00 0.  1.
</event>
<event>
12    1  0.1594973E-001  0.2146132E+03  0.7818608E-02  0.1138847E+00
         21   -1    0    0  501  502  0.00000000000E+00  0.00000000000E+00  0.33597911029E+03  0.33597911029E+03  0.00000000000E+00 0. -1.
         21   -1    0    0  502  503 -0.00000000000E+00 -0.00000000000E+00 -0.14356314939E+03  0.14356314939E+03  0.00000000000E+00 0. -1.
         -6    2    1    2    0  503  0.10239361331E+03  0.63199499401E+02  0.35959025933E+02  0.21760487715E+03  0.17770819407E+03 0.  0.
        -24    2    3    3    0    0  0.14091381966E+03  0.41506161124E+02  0.98592538940E+01  0.16605203704E+03  0.76789375133E+02 0.  0.
          6    2    1    2  501    0 -0.10239361331E+03 -0.63199499401E+02  0.15645693496E+03  0.26193738253E+03  0.17220276159E+03 0.  0.
         24    2    5    5    0    0  0.21585796613E+01  0.13574215861E+02  0.53710152004E+02  0.96394772253E+02  0.78855899507E+02 0.  0.
          5    1    5    5  501    0 -0.10455219297E+03 -0.76773715262E+02  0.10274678296E+03  0.16554261028E+03  0.47000000000E+01 0. -1.
        -13    1    6    6    0    0 -0.30982137218E+02  0.10083009016E+02 -0.70181624279E+00  0.32589146099E+02  0.00000000000E+00 0.  1.
         14    1    6    6    0    0  0.33140716879E+02  0.34912068445E+01  0.54411968247E+02  0.63805626155E+02  0.00000000000E+00 0. -1.
         -5    1    3    3    0  503 -0.38520206352E+02  0.21693338277E+02  0.26099772039E+02  0.51552840111E+02  0.47000000000E+01 0.  1.
         11    1    4    4    0    0  0.23814031253E+02  0.37958775169E+02 -0.13066031964E+02  0.46676523951E+02  0.00000000000E+00 0. -1.
        -12    1    4    4    0    0  0.11709978841E+03  0.35473859549E+01  0.22925285858E+02  0.11937551309E+03  0.00000000000E+00 0.  1.
</event>
<event>
12    1  0.1594973E-001  0.1746924E+03  0.7818608E-02  0.1173205E+00
         21   -1    0    0  503  502  0.00000000000E+00  0.00000000000E+00  0.63077942709E+03  0.63077942709E+03  0.00000000000E+00 0.  1.
         21   -1    0    0  501  503 -0.00000000000E+00 -0.00000000000E+00 -0.99114486106E+02  0.99114486106E+02  0.00000000000E+00 0.  1.
          6    2    1    2  501    0  0.56704142414E+01 -0.24191212992E+02  0.40274615421E+01  0.17408933254E+03  0.17225999790E+03 0.  0.
         24    2    3    3    0    0 -0.26299334621E+02  0.22419738163E+02 -0.33486946255E+02  0.10608884429E+03  0.94547171575E+02 0.  0.
         -6    2    1    2    0  502 -0.56704142414E+01  0.24191212992E+02  0.52763747944E+03  0.55580458065E+03  0.17291632016E+03 0.  0.
        -24    2    5    5    0    0  0.26810219764E+02  0.32947683239E+02  0.14143487722E+03  0.16811113562E+03  0.80331760290E+02 0.  0.
          5    1    3    3  501    0  0.31969748862E+02 -0.46610951155E+02  0.37514407797E+02  0.68000488250E+02  0.47000000000E+01 0. -1.
        -11    1    4    4    0    0  0.40039719404E+01 -0.26130081698E+02 -0.40568763347E+02  0.48421457231E+02  0.00000000000E+00 0.  1.
         12    1    4    4    0    0 -0.30303306561E+02  0.48549819861E+02  0.70818170919E+01  0.57667387061E+02  0.00000000000E+00 0. -1.
         -5    1    5    5    0  502 -0.32480634005E+02 -0.87564702472E+01  0.38620260222E+03  0.38769344503E+03  0.47000000000E+01 0.  1.
         13    1    6    6    0    0  0.18758212458E+02 -0.25267643799E+02  0.59058744319E+02  0.66919800047E+02  0.00000000000E+00 0. -1.
        -14    1    6    6    0    0  0.80520073056E+01  0.58215327038E+02  0.82376132899E+02  0.10119133557E+03  0.00000000000E+00 0.  1.
</event>
<event>
12    1  0.1594973E-001  0.1732340E+03  0.7818608E-02  0.1174749E+00
         21   -1    0    0  503  502  0.00000000000E+00  0.00000000000E+00  0.84357276306E+03  0.84357276306E+03  0.00000000000E+00 0. -1.
         21   -1    0    0  501  503 -0.00000000000E+00 -0.00000000000E+00 -0.37154155287E+02  0.37154155287E+02  0.00000000000E+00 0. -1.
          6    2    1    2  501    0 -0.25768444736E+01 -0.17721293296E+02  0.30822222694E+03  0.35356887326E+03  0.17230589831E+03 0.  0.
         24    2    3    3    0    0 -0.51112951863E+02 -0.57558693092E+01  0.27988403586E+03  0.29591414088E+03  0.81144570753E+02 0.  0.
         -6    2    1    2    0  502  0.25768444736E+01  0.17721293296E+02  0.49819638083E+03  0.52715804509E+03  0.17139220012E+03 0.  0.
        -24    2    5    5    0    0  0.17286046191E+02  0.52339152083E+02  0.46982335387E+03  0.47980959822E+03  0.80281208668E+02 0.  0.
          5    1    3    3  501    0  0.48536107389E+02 -0.11965423986E+02  0.28338191075E+02  0.57654732374E+02  0.47000000000E+01 0. -1.
        -11    1    4    4    0    0  0.11853911142E+02 -0.11015146335E+02  0.15609366709E+03  0.15693018054E+03  0.00000000000E+00 0.  1.
         12    1    4    4    0    0 -0.62966863006E+02  0.52592770261E+01  0.12379036877E+03  0.13898396034E+03  0.00000000000E+00 0. -1.
         -5    1    5    5    0  502 -0.14709201717E+02 -0.34617858788E+02  0.28373026962E+02  0.47348446872E+02  0.47000000000E+01 0.  1.
         13    1    6    6    0    0 -0.28170877721E+02  0.74011419734E+01  0.22082970842E+03  0.22274230711E+03  0.00000000000E+00 0. -1.
        -14    1    6    6    0    0  0.45456923912E+02  0.44938010110E+02  0.24899364544E+03  0.25706729110E+03  0.00000000000E+00 0.  1.
</event>
<event>
12    1  0.1594973E-001  0.1963464E+03  0.7818608E-02  0.1153173E+00
         21   -1    0    0  501  502  0.00000000000E+00  0.00000000000E+00  0.52014469762E+03  0.52014469762E+03  0.00000000000E+00 0. -1.
         21   -1    0    0  502  503 -0.00000000000E+00 -0.00000000000E+00 -0.14828433365E+03  0.14828433365E+03  0.00000000000E+00 0. -1.
         -6    2    1    2    0  503  0.16126289109E+02  0.91376926796E+02 -0.50959682427E+02  0.20285165088E+03  0.17303786603E+03 0.  0.
        -24    2    3    3    0    0 -0.45061094052E+02  0.91944153824E+02 -0.10941861834E+02  0.12958683279E+03  0.78668883758E+02 0.  0.
          6    2    1    2  501    0 -0.16126289109E+02 -0.91376926796E+02  0.42282004639E+03  0.46557738040E+03  0.17139342330E+03 0.  0.
         24    2    5    5    0    0 -0.20879100707E+02  0.24129872359E+01  0.32580258993E+03  0.33047144399E+03  0.51208283867E+02 0.  0.
          5    1    5    5  501    0  0.47528115979E+01 -0.93789914032E+02  0.97017456467E+02  0.13510593640E+03  0.47000000000E+01 0. -1.
        -11    1    6    6    0    0 -0.15796014679E+02 -0.37054839171E+01  0.26563055813E+02  0.31126204795E+02  0.00000000000E+00 0.  1.
         12    1    6    6    0    0 -0.50830860285E+01  0.61184711530E+01  0.29923953411E+03  0.29934523920E+03  0.00000000000E+00 0. -1.
         -5    1    3    3    0  503  0.61187383161E+02 -0.56722702720E+00 -0.40017820592E+02  0.73264818089E+02  0.47000000000E+01 0.  1.
         13    1    4    4    0    0 -0.23882736797E+02  0.93316946069E+02 -0.30180324699E+02  0.10094201078E+03  0.00000000000E+00 0. -1.
        -14    1    4    4    0    0 -0.21178357255E+02 -0.13727922459E+01  0.19238462865E+02  0.28644822010E+02  0.00000000000E+00 0.  1.
</event>
<event>
12    1  0.1594973E-001  0.1935296E+03  0.7818608E-02  0.1157437E+00
         21   -1    0    0  501  502  0.00000000000E+00  0.00000000000E+00  0.13564334031E+03  0.13564334031E+03  0.00000000000E+00 0.  1.
         21   -1    0    0  502  503 -0.00000000000E+00 -0.00000000000E+00 -0.32536431551E+03  0.32536431551E+03  0.00000000000E+00 0. -1.
         -6    2    1    2    0  503 -0.15171515958E+02 -0.86293653224E+02 -0.19773962797E+03  0.27668516057E+03  0.17255998414E+03 0.  0.
        -24    2    3    3    0    0  0.26427683679E+01 -0.48767568153E+02 -0.21273425397E+03  0.23227249801E+03  0.79431672469E+02 0.  0.
          6    2    1    2  501    0  0.15171515958E+02  0.86293653224E+02  0.80186527736E+01  0.18432249525E+03  0.16196824991E+03 0.  0.
         24    2    5    5    0    0  0.40596938783E+02  0.11079628678E+03  0.24251840601E+02  0.14517613445E+03  0.81018699315E+02 0.  0.
          5    1    5    5  501    0 -0.25425422825E+02 -0.24502633554E+02 -0.16233187827E+02  0.39146360801E+02  0.47000000000E+01 0. -1.
        -11    1    6    6    0    0  0.41907033932E+02  0.13731756797E+02  0.18830426632E+02  0.47951492206E+02  0.00000000000E+00 0.  1.
         12    1    6    6    0    0 -0.13100951490E+01  0.97064529981E+02  0.54214139692E+01  0.97224642242E+02  0.00000000000E+00 0. -1.
         -5    1    3    3    0  503 -0.17814284326E+02 -0.37526085071E+02  0.14994626000E+02  0.44412662560E+02  0.47000000000E+01 0.  1.
         13    1    4    4    0    0 -0.37081764237E+02 -0.24879696095E+02 -0.12975486481E+03  0.13722383706E+03  0.00000000000E+00 0. -1.
        -14    1    4    4    0    0  0.39724532605E+02 -0.23887872058E+02 -0.82979389164E+02  0.95048660949E+02  0.00000000000E+00 0.  1.
</event>
<event>
12    1  0.1594973E-001  0.2102188E+03  0.7818608E-02  0.1141439E+00
         21   -1    0    0  503  502  0.00000000000E+00  0.00000000000E+00  0.20502215114E+03  0.20502215114E+03  0.00000000000E+00 0.  1.
         21   -1    0    0  501  503 -0.00000000000E+00 -0.00000000000E+00 -0.38984483435E+03  0.38984483435E+03  0.00000000000E+00 0. -1.
          6    2    1    2  501    0  0.84191589121E+02  0.87355841859E+02 -0.29139993370E+03  0.35917513491E+03  0.17138724980E+03 0.  0.
         24    2    3    3    0    0  0.60172624091E+02  0.49514825240E+02 -0.29491455050E+03  0.31397230589E+03  0.74374418750E+02 0.  0.
         -6    2    1    2    0  502 -0.84191589121E+02 -0.87355841859E+02  0.10657725048E+03  0.23569185058E+03  0.17167606509E+03 0.  0.
        -24    2    5    5    0    0 -0.54770866569E+02 -0.96914306664E+01 -0.32487913980E+01  0.97919614057E+02  0.80522819861E+02 0.  0.
          5    1    3    3  501    0  0.24018965030E+02  0.37841016619E+02  0.35146167997E+01  0.45202829017E+02  0.47000000000E+01 0. -1.
        -11    1    4    4    0    0  0.32019790032E+02 -0.92961921688E+01 -0.46989746577E+02  0.57617032429E+02  0.00000000000E+00 0.  1.
         12    1    4    4    0    0  0.28152834060E+02  0.58811017409E+02 -0.24792480392E+03  0.25635527346E+03  0.00000000000E+00 0. -1.
         -5    1    5    5    0  502 -0.29420722552E+02 -0.77664411193E+02  0.10982604188E+03  0.13777223652E+03  0.47000000000E+01 0.  1.
         13    1    6    6    0    0 -0.37061402656E+01 -0.31714809006E+02 -0.22509520813E+02  0.39067161571E+02  0.00000000000E+00 0. -1.
        -14    1    6    6    0    0 -0.51064726304E+02  0.22023378340E+02  0.19260729415E+02  0.58852452486E+02  0.00000000000E+00 0.  1.
</event>
<event>
12    1  0.1594973E-001  0.2362056E+03  0.7818608E-02  0.1122585E+00
         21   -1    0    0  501  502  0.00000000000E+00  0.00000000000E+00  0.13117957008E+04  0.13117957008E+04  0.00000000000E+00 0.  1.
         21   -1    0    0  502  503 -0.00000000000E+00 -0.00000000000E+00 -0.42880026280E+02  0.42880026280E+02  0.00000000000E+00 0.  1.
         -6    2    1    2    0  503  0.14594641788E+03 -0.66117460040E+02  0.55622029749E+03  0.60429635421E+03  0.17355457055E+03 0.  0.
        -24    2    3    3    0    0  0.11534810436E+03  0.20096563295E+02  0.38375557804E+03  0.40901377930E+03  0.79466162244E+02 0.  0.
          6    2    1    2  501    0 -0.14594641788E+03  0.66117460040E+02  0.71269537705E+03  0.75037937289E+03  0.17164680997E+03 0.  0.
         24    2    5    5    0    0 -0.16615836895E+03  0.84183985189E+02  0.57888212967E+03  0.61376679122E+03  0.83124045954E+02 0.  0.
          5    1    5    5  501    0  0.20211951065E+02 -0.18066525149E+02  0.13381324738E+03  0.13661258167E+03  0.47000000000E+01 0. -1.
        -11    1    6    6    0    0 -0.83622417589E+02  0.42006784134E+01  0.17754763089E+03  0.19629955593E+03  0.00000000000E+00 0.  1.
         12    1    6    6    0    0 -0.82535951360E+02  0.79983306776E+02  0.40133449878E+03  0.41746723529E+03  0.00000000000E+00 0. -1.
         -5    1    3    3    0  503  0.30598313522E+02 -0.86214023335E+02  0.17246471945E+03  0.19528257491E+03  0.47000000000E+01 0.  1.
         11    1    4    4    0    0  0.14306003065E+02  0.35128482711E+02  0.79897520952E+02  0.88443687596E+02  0.00000000000E+00 0. -1.
        -12    1    4    4    0    0  0.10104210130E+03 -0.15031919416E+02  0.30385805709E+03  0.32057009170E+03  0.00000000000E+00 0.  1.
</event>
<event>
12    1  0.1594973E-001  0.1829637E+03  0.7818608E-02  0.1165167E+00
         21   -1    0    0  501  502  0.00000000000E+00  0.00000000000E+00  0.52100189668E+03  0.52100189668E+03  0.00000000000E+00 0.  1.
         21   -1    0    0  502  503 -0.00000000000E+00 -0.00000000000E+00 -0.16181772927E+03  0.16181772927E+03  0.00000000000E+00 0.  1.
         -6    2    1    2    0  503  0.18809493983E+02  0.62944133337E+02 -0.85747429865E+02  0.20206025564E+03  0.17076288881E+03 0.  0.
        -24    2    3    3    0    0  0.32306608110E+02  0.34542820843E+02  0.16326553713E+02  0.95149102039E+02  0.80931278647E+02 0.  0.
          6    2    1    2  501    0 -0.18809493983E+02 -0.62944133337E+02  0.44493159727E+03  0.48075937030E+03  0.16985194995E+03 0.  0.
         24    2    5    5    0    0  0.48087680784E+02 -0.43860703769E+02  0.33624926477E+03  0.35163404872E+03  0.79666490977E+02 0.  0.
          5    1    5    5  501    0 -0.66897174766E+02 -0.19083429568E+02  0.10868233250E+03  0.12912532158E+03  0.47000000000E+01 0. -1.
        -11    1    6    6    0    0  0.16139874402E+02 -0.29157130331E+02  0.34961164969E+02  0.48300277958E+02  0.00000000000E+00 0.  1.
         12    1    6    6    0    0  0.31947806382E+02 -0.14703573438E+02  0.30128809980E+03  0.30333377076E+03  0.00000000000E+00 0. -1.
         -5    1    3    3    0  503 -0.13497114127E+02  0.28401312494E+02 -0.10207398358E+03  0.10691115360E+03  0.47000000000E+01 0.  1.
         13    1    4    4    0    0  0.25049597044E+02  0.15291846824E+02  0.48659963932E+02  0.56825302298E+02  0.00000000000E+00 0. -1.
        -14    1    4    4    0    0  0.72570110654E+01  0.19250974019E+02 -0.32333410218E+02  0.38323799742E+02  0.00000000000E+00 0.  1.
</event>
<event>
12    1  0.1594973E-001  0.2244753E+03  0.7818608E-02  0.1130689E+00
         21   -1    0    0  503  502  0.00000000000E+00  0.00000000000E+00  0.90412322969E+03  0.90412322969E+03  0.00000000000E+00 0. -1.
         21   -1    0    0  501  503 -0.00000000000E+00 -0.00000000000E+00 -0.55642805095E+02  0.55642805095E+02  0.00000000000E+00 0.  1.
          6    2    1    2  501    0  0.14586895439E+00 -0.14421847384E+03  0.41101185065E+03  0.46831601127E+03  0.17201789317E+03 0.  0.
         24    2    3    3    0    0  0.31558938493E+02 -0.16275507897E+03  0.30768198760E+03  0.35863676409E+03  0.80417291232E+02 0.  0.
         -6    2    1    2    0  502 -0.14586895439E+00  0.14421847384E+03  0.43746857394E+03  0.49145002351E+03  0.17130494138E+03 0.  0.
        -24    2    5    5    0    0 -0.59376349760E+02  0.93356848957E+02  0.20594339105E+03  0.24707090194E+03  0.79939340198E+02 0.  0.
          5    1    3    3  501    0 -0.31413069539E+02  0.18536605128E+02  0.10332986304E+03  0.10967924719E+03  0.47000000000E+01 0. -1.
        -11    1    4    4    0    0 -0.25380686215E+02 -0.34100229923E+02  0.56083770018E+02  0.70373248986E+02  0.00000000000E+00 0.  1.
         12    1    4    4    0    0  0.56939624708E+02 -0.12865484905E+03  0.25159821759E+03  0.28826351510E+03  0.00000000000E+00 0. -1.
         -5    1    5    5    0  502  0.59230480805E+02  0.50861624884E+02  0.23152518289E+03  0.24437912156E+03  0.47000000000E+01 0.  1.
         13    1    6    6    0    0 -0.26488465745E+02  0.85945610481E+02  0.18907336157E+03  0.20937292766E+03  0.00000000000E+00 0. -1.
        -14    1    6    6    0    0 -0.32887884015E+02  0.74112384768E+01  0.16870029476E+02  0.37697974286E+02  0.00000000000E+00 0.  1.
</event>
<event>
12    1  0.1594973E-001  0.2050827E+03  0.7818608E-02  0.1145948E+00
         21   -1    0    0  503  502  0.00000000000E+00  0.00000000000E+00  0.42338141100E+03  0.42338141100E+03  0.00000000000E+00 0. -1.
         21   -1    0    0  501  503 -0.00000000000E+00 -0.00000000000E+00 -0.11089560312E+03  0.11089560312E+03  0.00000000000E+00 0.  1.
          6    2    1    2  501    0  0.16675136082E+02 -0.10912338459E+03  0.65622212943E+02  0.21334004953E+03  0.17035764930E+03 0.  0.
         24    2    3    3    0    0  0.67377677877E+02 -0.84114446218E+02  0.77534258075E+02  0.15537297645E+03  0.80710650452E+02 0.  0.
         -6    2    1    2    0  502 -0.16675136082E+02  0.10912338459E+03  0.24686359493E+03  0.32093696459E+03  0.17283786480E+03 0.  0.
        -24    2    5    5    0    0 -0.56455896773E+02  0.12249375217E+03  0.15660042840E+03  0.22128354075E+03  0.79061518005E+02 0.  0.
          5    1    3    3  501    0 -0.50702541795E+02 -0.25008938372E+02 -0.11912045132E+02  0.57967073086E+02  0.47000000000E+01 0. -1.
        -13    1    4    4    0    0  0.29058455143E+02 -0.70209432150E+02  0.10208374883E+02  0.76667914383E+02  0.00000000000E+00 0.  1.
         14    1    4    4    0    0  0.38319222734E+02 -0.13905014069E+02  0.67325883192E+02  0.78705062066E+02  0.00000000000E+00 0. -1.
         -5    1    5    5    0  502  0.39780760691E+02 -0.13370367584E+02  0.90263166531E+02  0.99653423839E+02  0.47000000000E+01 0.  1.
         11    1    6    6    0    0 -0.27848062385E+01  0.56737875362E+02  0.11157080294E+03  0.12519978320E+03  0.00000000000E+00 0. -1.
        -12    1    6    6    0    0 -0.53671090535E+02  0.65755876812E+02  0.45029625461E+02  0.96083757544E+02  0.00000000000E+00 0.  1.
</event>
<event>
12    1  0.1594973E-001  0.1876617E+03  0.7818608E-02  0.1160710E+00
         21   -1    0    0  501  502  0.00000000000E+00  0.00000000000E+00  0.51144196992E+03  0.51144196992E+03  0.00000000000E+00 0. -1.
         21   -1    0    0  502  503 -0.00000000000E+00 -0.00000000000E+00 -0.71353255378E+02  0.71353255378E+02  0.00000000000E+00 0. -1.
         -6    2    1    2    0  503 -0.51972509152E+02 -0.52367829161E+02  0.16375834973E+03  0.24906569160E+03  0.17254967513E+03 0.  0.
        -24    2    3    3    0    0 -0.77564054551E+02 -0.58449100320E+02  0.55258195140E+02  0.13732365564E+03  0.79823795833E+02 0.  0.
          6    2    1    2  501    0  0.51972509152E+02  0.52367829161E+02  0.27633036481E+03  0.33372953370E+03  0.17196918301E+03 0.  0.
         24    2    5    5    0    0  0.38818026353E+01 -0.35592976569E+02  0.90088096547E+02  0.12216845059E+03  0.74346061138E+02 0.  0.
          5    1    5    5  501    0  0.48090706517E+02  0.87960805729E+02  0.18624226827E+03  0.21156108311E+03  0.47000000000E+01 0. -1.
        -13    1    6    6    0    0 -0.83303257788E+01 -0.35862571162E+02  0.61273036570E+01  0.37323748311E+02  0.00000000000E+00 0.  1.
         14    1    6    6    0    0  0.12212128414E+02  0.26959459278E+00  0.83960792890E+02  0.84844702276E+02  0.00000000000E+00 0. -1.
         -5    1    3    3    0  503  0.25591545399E+02  0.60812711597E+01  0.10850015459E+03  0.11174203596E+03  0.47000000000E+01 0.  1.
         11    1    4    4    0    0 -0.44748954933E+02 -0.76175163726E+02  0.36720256189E+02  0.95673934543E+02  0.00000000000E+00 0. -1.
        -12    1    4    4    0    0 -0.32815099618E+02  0.17726063406E+02  0.18537938950E+02  0.41649721096E+02  0.00000000000E+00 0.  1.
</event>
<event>
12    1  0.1594973E-001  0.1920123E+03  0.7818608E-02  0.1159238E+00
         21   -1    0    0  503  502  0.00000000000E+00  0.00000000000E+00  0.64023803853E+03  0.64023803853E+03  0.00000000000E+00 0.  1.
         21   -1    0    0  501  503 -0.00000000000E+00 -0.00000000000E+00 -0.70919643634E+02  0.70919643634E+02  0.00000000000E+00 0.  1.
          6    2    1    2  501    0 -0.58688566843E+02 -0.94907529256E+01  0.11898023842E+03  0.22588718726E+03  0.18257683853E+03 0.  0.
         24    2    3    3    0    0 -0.59998997614E+02 -0.73121373919E+02  0.98915767100E+02  0.15898990655E+03  0.80912584723E+02 0.  0.
         -6    2    1    2    0  502  0.58688566843E+02  0.94907529256E+01  0.45033815648E+03  0.48527049490E+03  0.17072953984E+03 0.  0.
        -24    2    5    5    0    0  0.25061504405E+02 -0.44632828422E+02  0.36838944711E+03  0.38135792419E+03  0.84278782743E+02 0.  0.
          5    1    3    3  501    0  0.13104307719E+01  0.63630620994E+02  0.20064471319E+02  0.66897280708E+02  0.47000000000E+01 0. -1.
        -13    1    4    4    0    0 -0.61252222637E+02 -0.51335780182E+02  0.10882907347E+03  0.13502208833E+03  0.00000000000E+00 0.  1.
         14    1    4    4    0    0  0.12532250225E+01 -0.21785593737E+02 -0.99133063658E+01  0.23967818226E+02  0.00000000000E+00 0. -1.
         -5    1    5    5    0  502  0.33627062438E+02  0.54123581347E+02  0.81948709364E+02  0.10391257071E+03  0.47000000000E+01 0.  1.
         11    1    6    6    0    0  0.46331357450E+02 -0.49368342158E+02  0.19118991081E+03  0.20282359302E+03  0.00000000000E+00 0. -1.
        -12    1    6    6    0    0 -0.21269853045E+02  0.47355137368E+01  0.17719953631E+03  0.17853433117E+03  0.00000000000E+00 0.  1.
</event>
<event>
12    1  0.1594973E-001  0.2712282E+03  0.7818608E-02  0.1100783E+00
         21   -1    0    0  501  502  0.00000000000E+00  0.00000000000E+00  0.14185883313E+03  0.14185883313E+03  0.00000000000E+00 0.  1.
         21   -1    0    0  502  503 -0.00000000000E+00 -0.00000000000E+00 -0.28898929766E+04  0.28898929766E+04  0.00000000000E+00 0. -1.
         -6    2    1    2    0  503 -0.19684183938E+02  0.20920491691E+03 -0.27486030324E+04  0.27619528206E+04  0.17149515826E+03 0.  0.
        -24    2    3    3    0    0 -0.16858497580E+02  0.80769434226E+02 -0.19138423152E+04  0.19173516113E+04  0.81467071237E+02 0.  0.
          6    2    1    2  501    0  0.19684183938E+02 -0.20920491691E+03  0.56888894851E+00  0.26979898909E+03  0.16922472196E+03 0.  0.
         24    2    5    5    0    0 -0.24665786640E+02 -0.61170853349E+02  0.39298719104E+02  0.11041550937E+03  0.79353141432E+02 0.  0.
          5    1    5    5  501    0  0.44349970578E+02 -0.14803406356E+03 -0.38729830156E+02  0.15938347973E+03  0.47000000000E+01 0. -1.
        -13    1    6    6    0    0  0.20554475735E+02 -0.45130490893E+02  0.19801747203E+01  0.49630321104E+02  0.00000000000E+00 0.  1.
         14    1    6    6    0    0 -0.45220262375E+02 -0.16040362457E+02  0.37318544384E+02  0.60785188261E+02  0.00000000000E+00 0. -1.
         -5    1    3    3    0  503 -0.28256863572E+01  0.12843548269E+03 -0.83476071721E+03  0.84460120928E+03  0.47000000000E+01 0.  1.
         13    1    4    4    0    0 -0.15669241204E+02  0.93549875312E+02 -0.13343215442E+04  0.13376887110E+04  0.00000000000E+00 0. -1.
        -14    1    4    4    0    0 -0.11892563768E+01 -0.12780441086E+02 -0.57952077097E+03  0.57966290031E+03  0.00000000000E+00 0.  1.
</event>
<event>
12    1  0.1594973E-001  0.2704035E+03  0.7818608E-02  0.1101281E+00
         21   -1    0    0  503  502  0.00000000000E+00  0.00000000000E+00  0.77962690125E+02  0.77962690125E+02  0.00000000000E+00 0.  1.
         21   -1    0    0  501  503 -0.00000000000E+00 -0.00000000000E+00 -0.16725460678E+04  0.16725460678E+04  0.00000000000E+00 0. -1.
          6    2    1    2  501    0 -0.31663948881E+02 -0.20594464321E+03 -0.13782585415E+04  0.14042220553E+04  0.16978566381E+03 0.  0.
         24    2    3    3    0    0  0.10656318663E+02 -0.46743901035E+02 -0.48830786229E+03  0.49914184737E+03  0.91648600692E+02 0.  0.
         -6    2    1    2    0  502  0.31663948881E+02  0.20594464321E+03 -0.21632483617E+03  0.34628670263E+03  0.17234338962E+03 0.  0.
        -24    2    5    5    0    0  0.44500125676E+02  0.20800183600E+03 -0.13662061181E+03  0.26539261843E+03  0.80765248609E+02 0.  0.
          5    1    3    3  501    0 -0.42320267543E+02 -0.15920074218E+03 -0.88995067924E+03  0.90508020796E+03  0.47000000000E+01 0. -1.
        -13    1    4    4    0    0  0.43773984097E+02 -0.51083851309E+02 -0.37606172954E+03  0.38203160337E+03  0.00000000000E+00 0.  1.
         14    1    4    4    0    0 -0.33117665435E+02  0.43399502739E+01 -0.11224613275E+03  0.11711024400E+03  0.00000000000E+00 0. -1.
         -5    1    5    5    0  502 -0.12836176796E+02 -0.20571927877E+01 -0.79704224360E+02  0.80894084195E+02  0.47000000000E+01 0.  1.
         11    1    6    6    0    0 -0.14483785437E+02  0.43822966659E+02 -0.57781563822E+02  0.73952292494E+02  0.00000000000E+00 0. -1.
        -12    1    6    6    0    0  0.58983911113E+02  0.16417886934E+03 -0.78839047992E+02  0.19144032594E+03  0.00000000000E+00 0.  1.
</event>
<event>
12    1  0.1594973E-001  0.1756248E+03  0.7818608E-02  0.1174209E+00
         21   -1    0    0  503  502  0.00000000000E+00  0.00000000000E+00  0.10377152815E+04  0.10377152815E+04  0.00000000000E+00 0. -1.
         21   -1    0    0  501  503 -0.00000000000E+00 -0.00000000000E+00 -0.93524562491E+02  0.93524562491E+02  0.00000000000E+00 0. -1.
          6    2    1    2  501    0  0.40337948982E+02  0.52404791494E+00 -0.34565475120E+01  0.16745594090E+03  0.16248729078E+03 0.  0.
         24    2    3    3    0    0 -0.27539644235E+02  0.16870413390E+02  0.27501033607E+02  0.90937752509E+02  0.80438331220E+02 0.  0.
         -6    2    1    2    0  502 -0.40337948982E+02 -0.52404791494E+00  0.94764726647E+03  0.96378390305E+03  0.17092877278E+03 0.  0.
        -24    2    5    5    0    0 -0.69641617580E+02  0.36304547528E+02  0.82161758737E+03  0.82917104909E+03  0.79380058599E+02 0.  0.
          5    1    3    3  501    0  0.67877593217E+02 -0.16346365475E+02 -0.30957581119E+02  0.76518188386E+02  0.47000000000E+01 0. -1.
        -11    1    4    4    0    0  0.95383666333E+01  0.51800579520E+01  0.46440847457E+02  0.47692407687E+02  0.00000000000E+00 0.  1.
         12    1    4    4    0    0 -0.37078010868E+02  0.11690355438E+02 -0.18939813850E+02  0.43245344823E+02  0.00000000000E+00 0. -1.
         -5    1    5    5    0  502  0.29303668598E+02 -0.36828595443E+02  0.12602967911E+03  0.13461285396E+03  0.47000000000E+01 0.  1.
         11    1    6    6    0    0  0.96620524067E+01  0.73152591938E+01  0.33944299596E+03  0.33965926423E+03  0.00000000000E+00 0. -1.
        -12    1    6    6    0    0 -0.79303669987E+02  0.28989288334E+02  0.48217459141E+03  0.48951178485E+03  0.00000000000E+00 0.  1.
</event>
<event>
12    1  0.1594973E-001  0.2710506E+03  0.7818608E-02  0.1101985E+00
         21   -1    0    0  503  502  0.00000000000E+00  0.00000000000E+00  0.15339624938E+03  0.15339624938E+03  0.00000000000E+00 0. -1.
         21   -1    0    0  501  503 -0.00000000000E+00 -0.00000000000E+00 -0.52659480277E+03  0.52659480277E+03  0.00000000000E+00 0.  1.
          6    2    1    2  501    0 -0.17682865804E+03 -0.87015784018E+02 -0.65851201600E+02  0.27019740558E+03  0.17271403029E+03 0.  0.
         24    2    3    3    0    0 -0.65710802620E+02 -0.13770946883E+02 -0.86666019112E+02  0.13541116523E+03  0.79483559573E+02 0.  0.
         -6    2    1    2    0  502  0.17682865804E+03  0.87015784018E+02 -0.30734735179E+03  0.40979364657E+03  0.18608685378E+03 0.  0.
        -24    2    5    5    0    0  0.87825584699E+02  0.11680331433E+02 -0.55115272582E+02  0.13187263394E+03  0.80640776541E+02 0.  0.
          5    1    3    3  501    0 -0.11111785542E+03 -0.73244837135E+02  0.20814817511E+02  0.13478624035E+03  0.47000000000E+01 0. -1.
        -13    1    4    4    0    0 -0.16878470756E+02  0.31256353444E+02 -0.43641653454E+02  0.56271096683E+02  0.00000000000E+00 0.  1.
         14    1    4    4    0    0 -0.48832331865E+02 -0.45027300328E+02 -0.43024365657E+02  0.79140068552E+02  0.00000000000E+00 0. -1.
         -5    1    5    5    0  502  0.89003073338E+02  0.75335452586E+02 -0.25223207921E+03  0.27792101263E+03  0.47000000000E+01 0.  1.
         11    1    6    6    0    0  0.67694115695E+02 -0.27795641617E+02 -0.21559470844E+02  0.76288280724E+02  0.00000000000E+00 0. -1.
        -12    1    6    6    0    0  0.20131469004E+02  0.39475973050E+02 -0.33555801738E+02  0.55584353219E+02  0.00000000000E+00 0.  1.
</event>
<event>
12    1  0.1594973E-001  0.1775417E+03  0.7818608E-02  0.1170598E+00
         21   -1    0    0  501  502  0.00000000000E+00  0.00000000000E+00  0.17947648846E+03  0.17947648846E+03  0.00000000000E+00 0. -1.
         21   -1    0    0  502  503 -0.00000000000E+00 -0.00000000000E+00 -0.51934169423E+03  0.51934169423E+03  0.00000000000E+00 0. -1.
         -6    2    1    2    0  503  0.31563525504E+02  0.26275922022E+02 -0.45457805764E+03  0.48744151164E+03  0.17108868039E+03 0.  0.
        -24    2    3    3    0    0  0.15658726165E+02  0.73404306751E+02 -0.19368045360E+03  0.22180322923E+03  0.77789243680E+02 0.  0.
          6    2    1    2  501    0 -0.31563525504E+02 -0.26275922022E+02  0.11471285187E+03  0.21137667105E+03  0.17272631085E+03 0.  0.
         24    2    5    5    0    0  0.19801189764E+01 -0.27076177159E+02  0.14395036242E+03  0.16662470443E+03  0.79404313771E+02 0.  0.
          5    1    5    5  501    0 -0.33543644480E+02  0.80025513707E+00 -0.29237510546E+02  0.44751966618E+02  0.47000000000E+01 0. -1.
        -13    1    6    6    0    0 -0.52072588069E+01 -0.34295945843E+02  0.15882136406E+02  0.38151929209E+02  0.00000000000E+00 0.  1.
         14    1    6    6    0    0  0.71873777833E+01  0.72197686839E+01  0.12806822601E+03  0.12847277522E+03  0.00000000000E+00 0. -1.
         -5    1    3    3    0  503  0.15904799339E+02 -0.47128384729E+02 -0.26089760404E+03  0.26563828241E+03  0.47000000000E+01 0.  1.
         13    1    4    4    0    0  0.13306581998E+02  0.48851632950E+02 -0.19028456846E+03  0.19690547011E+03  0.00000000000E+00 0. -1.
        -14    1    4    4    0    0  0.23521441671E+01  0.24552673801E+02 -0.33958851440E+01  0.24897759114E+02  0.00000000000E+00 0.  1.
</event>
<event>
12    1  0.1594973E-001  0.2536585E+03  0.7818608E-02  0.1112997E+00
         21   -1    0    0  503  502  0.00000000000E+00  0.00000000000E+00  0.78352757768E+03  0.78352757768E+03  0.00000000000E+00 0.  1.
         21   -1    0    0  501  503 -0.00000000000E+00 -0.00000000000E+00 -0.16782782337E+03  0.16782782337E+03  0.00000000000E+00 0. -1.
          6    2    1    2  501    0 -0.88000223774E+02 -0.14463865306E+03 -0.36230977635E+02  0.25623294814E+03  0.18888689904E+03 0.  0.
         24    2    3    3    0    0 -0.92186441351E+01 -0.31733817873E+02  0.22876470405E+02  0.10633358352E+03  0.98445312179E+02 0.  0.
         -6    2    1    2    0  502  0.88000223774E+02  0.14463865306E+03  0.65193073195E+03  0.69512245291E+03  0.17180560507E+03 0.  0.
        -24    2    5    5    0    0  0.10836342150E+02  0.13938656549E+03  0.48786693806E+03  0.51368136738E+03  0.79425165997E+02 0.  0.
          5    1    3    3  501    0 -0.78781579639E+02 -0.11290483518E+03 -0.59107448039E+02  0.14989936462E+03  0.47000000000E+01 0. -1.
        -11    1    4    4    0    0 -0.48821318515E+02 -0.37106624278E+02  0.25205340754E+02  0.66300316058E+02  0.00000000000E+00 0.  1.
         12    1    4    4    0    0  0.39602674380E+02  0.53728064051E+01 -0.23288703493E+01  0.40033267464E+02  0.00000000000E+00 0. -1.
         -5    1    5    5    0  502  0.77163881624E+02  0.52520875638E+01  0.16406379389E+03  0.18144108553E+03  0.47000000000E+01 0.  1.
         11    1    6    6    0    0 -0.32963369000E+01  0.11821302980E+02  0.37384477228E+01  0.12829069821E+02  0.00000000000E+00 0. -1.
        -12    1    6    6    0    0  0.14132679050E+02  0.12756526251E+03  0.48412849033E+03  0.50085229756E+03  0.00000000000E+00 0.  1.
</event>
<event>
12    1  0.1594973E-001  0.2340960E+03  0.7818608E-02  0.1123921E+00
         21   -1    0    0  503  502  0.00000000000E+00  0.00000000000E+00  0.52557835824E+02  0.52557835824E+02  0.00000000000E+00 0. -1.
         21   -1    0    0  501  503 -0.00000000000E+00 -0.00000000000E+00 -0.14523982134E+04  0.14523982134E+04  0.00000000000E+00 0. -1.
          6    2    1    2  501    0  0.12184616236E+03 -0.10199544258E+03 -0.11004211874E+04  0.11248866245E+04  0.17086126145E+03 0.  0.
         24    2    3    3    0    0  0.42082013436E+02  0.12651931013E+01 -0.23334204274E+03  0.24803235413E+03  0.72794527361E+02 0.  0.
         -6    2    1    2    0  502 -0.12184616236E+03  0.10199544258E+03 -0.29941919019E+03  0.38006942476E+03  0.17190508600E+03 0.  0.
        -24    2    5    5    0    0 -0.74656636868E+02  0.10756868015E+03 -0.12064916447E+03  0.19503233553E+03  0.79603747644E+02 0.  0.
          5    1    3    3  501    0  0.79764148928E+02 -0.10326063568E+03 -0.86707914465E+03  0.87685427035E+03  0.47000000000E+01 0. -1.
        -13    1    4    4    0    0 -0.19200809274E+02 -0.38955485999E+01 -0.89068243221E+02  0.91197578510E+02  0.00000000000E+00 0.  1.
         14    1    4    4    0    0  0.61282822710E+02  0.51607417012E+01 -0.14427379952E+03  0.15683477562E+03  0.00000000000E+00 0. -1.
         -5    1    5    5    0  502 -0.47189525495E+02 -0.55732375655E+01 -0.17877002572E+03  0.18503708922E+03  0.47000000000E+01 0.  1.
         13    1    6    6    0    0 -0.74552528943E+01  0.57390052715E+00 -0.49433595707E+02  0.49995905253E+02  0.00000000000E+00 0. -1.
        -14    1    6    6    0    0 -0.67201383974E+02  0.10699477962E+03 -0.71215568764E+02  0.14503643028E+03  0.00000000000E+00 0.  1.
</event>
<event>
12    1  0.1594973E-001  0.2553001E+03  0.7818608E-02  0.1110045E+00
         21   -1    0    0  503  502  0.00000000000E+00  0.00000000000E+00  0.44631077342E+03  0.44631077342E+03  0.00000000000E+00 0.  1.
         21   -1    0    0  501  503 -0.00000000000E+00 -0.00000000000E+00 -0.18753428289E+03  0.18753428289E+03  0.00000000000E+00 0.  1.
          6    2    1    2  501    0 -0.17127202276E+03  0.79632483717E+02  0.27871091598E+03  0.37776786009E+03  0.17132817393E+03 0.  0.
         24    2    3    3    0    0 -0.16195958381E+03  0.55768921265E+02  0.13709472884E+03  0.23377679928E+03  0.80718943484E+02 0.  0.
         -6    2    1    2    0  502  0.17127202276E+03 -0.79632483717E+02 -0.19934425443E+02  0.25607719623E+03  0.17176353182E+03 0.  0.
        -24    2    5    5    0    0  0.13969638947E+03 -0.12171967668E+03 -0.21145025497E+02  0.20323868771E+03  0.80796603623E+02 0.  0.
          5    1    3    3  501    0 -0.93124389486E+01  0.23863562452E+02  0.14161618714E+03  0.14399106081E+03  0.47000000000E+01 0. -1.
        -13    1    4    4    0    0 -0.12205114924E+03  0.57950740250E+02  0.13889344252E+03  0.19376831449E+03  0.00000000000E+00 0.  1.
         14    1    4    4    0    0 -0.39908434577E+02 -0.21818189851E+01 -0.17987136743E+01  0.40008484792E+02  0.00000000000E+00 0. -1.
         -5    1    5    5    0  502  0.31575633293E+02  0.42087192964E+02  0.12106000537E+01  0.52838508514E+02  0.47000000000E+01 0.  1.
         11    1    6    6    0    0  0.70986830329E+00 -0.38733123642E+02 -0.14043138648E+02  0.41206413617E+02  0.00000000000E+00 0. -1.
        -12    1    6    6    0    0  0.13898652117E+03 -0.82986553039E+02 -0.71018868496E+01  0.16203227409E+03  0.00000000000E+00 0.  1.
</event>
<event>
12    1  0.1594973E-001  0.2193838E+03  0.7818608E-02  0.1134587E+00
         21   -1    0    0  503  502  0.00000000000E+00  0.00000000000E+00  0.16560559647E+03  0.16560559647E+03  0.00000000000E+00 0.  1.
         21   -1    0    0  501  503 -0.00000000000E+00 -0.00000000000E+00 -0.41106193832E+03  0.41106193832E+03  0.00000000000E+00 0.  1.
          6    2    1    2  501    0  0.12607895606E+03 -0.44598027162E+02 -0.27965212469E+03  0.35463466903E+03  0.17226592944E+03 0.  0.
         24    2    3    3    0    0  0.13233589990E+03 -0.27320339769E+02 -0.13043586494E+03  0.20421774844E+03  0.80200888694E+02 0.  0.
         -6    2    1    2    0  502 -0.12607895606E+03  0.44598027162E+02  0.34195782838E+02  0.22203286577E+03  0.17390904154E+03 0.  0.
        -24    2    5    5    0    0 -0.13198078432E+03  0.35628437934E+02 -0.24515380928E+02  0.16216320852E+03  0.83711344974E+02 0.  0.
          5    1    3    3  501    0 -0.62569438340E+01 -0.17277687393E+02 -0.14921625975E+03  0.15041692059E+03  0.47000000000E+01 0. -1.
        -11    1    4    4    0    0  0.10913595415E+03 -0.38113238124E+02 -0.62046753370E+02  0.13119860904E+03  0.00000000000E+00 0.  1.
         12    1    4    4    0    0  0.23199945742E+02  0.10792898355E+02 -0.68389111570E+02  0.73019139400E+02  0.00000000000E+00 0. -1.
         -5    1    5    5    0  502  0.59018282592E+01  0.89695892280E+01  0.58711163766E+02  0.59869657244E+02  0.47000000000E+01 0.  1.
         11    1    6    6    0    0 -0.55011713249E+02  0.25828612626E+02 -0.51862547011E+02  0.79894490469E+02  0.00000000000E+00 0. -1.
        -12    1    6    6    0    0 -0.76969071072E+02  0.97998253086E+01  0.27347166083E+02  0.82268718056E+02  0.00000000000E+00 0.  1.
</event>
<event>
12    1  0.1594973E-001  0.1798105E+03  0.7818608E-02  0.1168057E+00
         21   -1    0    0  503  502  0.00000000000E+00  0.00000000000E+00  0.25250434877E+03  0.25250434877E+03  0.00000000000E+00 0. -1.
         21   -1    0    0  501  503 -0.00000000000E+00 -0.00000000000E+00 -0.15418447455E+03  0.15418447455E+03  0.00000000000E+00 0. -1.
          6    2    1    2  501    0  0.15055805194E+02  0.50173148930E+02 -0.34866241908E+02  0.18315968205E+03  0.17201102337E+03 0.  0.
         24    2    3    3    0    0  0.66236062524E+02 -0.53455260431E+01 -0.23946391723E+02  0.10671967198E+03  0.79999175520E+02 0.  0.
         -6    2    1    2    0  502 -0.15055805194E+02 -0.50173148930E+02  0.13318611613E+03  0.22352914128E+03  0.17170530955E+03 0.  0.
        -24    2    5    5    0    0 -0.69227401760E+01  0.36734591543E+02  0.92436886297E+02  0.12708386233E+03  0.78793245701E+02 0.  0.
          5    1    3    3  501    0 -0.51180257330E+02  0.55518674973E+02 -0.10919850185E+02  0.76440010068E+02  0.47000000000E+01 0. -1.
        -13    1    4    4    0    0  0.51266427329E+02 -0.31537534694E+02  0.10316785060E+02  0.61067984408E+02  0.00000000000E+00 0.  1.
         14    1    4    4    0    0  0.14969635195E+02  0.26192008651E+02 -0.34263176782E+02  0.45651687573E+02  0.00000000000E+00 0. -1.
         -5    1    5    5    0  502 -0.81330650180E+01 -0.86907740473E+02  0.40749229831E+02  0.96445278954E+02  0.47000000000E+01 0.  1.
         11    1    6    6    0    0  0.34639360022E+02  0.73330595744E+01  0.29158617063E+02  0.45868115009E+02  0.00000000000E+00 0. -1.
        -12    1    6    6    0    0 -0.41562100198E+02  0.29401531968E+02  0.63278269234E+02  0.81215747317E+02  0.00000000000E+00 0.  1.
</event>
<event>
12    1  0.1594973E-001  0.1861689E+03  0.7818608E-02  0.1162608E+00
         21   -1    0    0  501  502  0.00000000000E+00  0.00000000000E+00  0.40681662867E+02  0.40681662867E+02  0.00000000000E+00 0.  1.
         21   -1    0    0  502  503 -0.00000000000E+00 -0.00000000000E+00 -0.83966241686E+03  0.83966241686E+03  0.00000000000E+00 0.  1.
         -6    2    1    2    0  503  0.12080235071E+02 -0.67931127138E+02 -0.38794776340E+03  0.42911578257E+03  0.16993033161E+03 0.  0.
        -24    2    3    3    0    0 -0.47952792577E+02 -0.60689262004E+02 -0.31697336087E+03  0.33575698633E+03  0.79233739852E+02 0.  0.
          6    2    1    2  501    0 -0.12080235071E+02  0.67931127138E+02 -0.41103299059E+03  0.45122829717E+03  0.17291121043E+03 0.  0.
         24    2    5    5    0    0 -0.57700388401E+02  0.99436590417E+01 -0.31535905029E+03  0.33031784394E+03  0.78932479047E+02 0.  0.
          5    1    5    5  501    0  0.45620153330E+02  0.57987468096E+02 -0.95673940302E+02  0.12091045322E+03  0.47000000000E+01 0. -1.
        -11    1    6    6    0    0 -0.34319131738E+02  0.44501461513E+02 -0.16692879374E+03  0.17613462198E+03  0.00000000000E+00 0.  1.
         12    1    6    6    0    0 -0.23381256663E+02 -0.34557802472E+02 -0.14843025655E+03  0.15418322196E+03  0.00000000000E+00 0. -1.
         -5    1    3    3    0  503  0.60033027648E+02 -0.72418651339E+01 -0.70974402537E+02  0.93358796236E+02  0.47000000000E+01 0.  1.
         13    1    4    4    0    0 -0.56938567943E+01  0.18168815192E+02 -0.33892131025E+02  0.38874186758E+02  0.00000000000E+00 0. -1.
        -14    1    4    4    0    0 -0.42258935782E+02 -0.78858077195E+02 -0.28308122984E+03  0.29688279957E+03  0.00000000000E+00 0.  1.
</event>
<event>
12    1  0.1594973E-001  0.2190789E+03  0.7818608E-02  0.1135179E+00
         21   -1    0    0  503  502  0.00000000000E+00  0.00000000000E+00  0.17433723986E+04  0.17433723986E+04  0.00000000000E+00 0.  1.
         21   -1    0    0  501  503 -0.00000000000E+00 -0.00000000000E+00 -0.47697674813E+02  0.47697674813E+02  0.00000000000E+00 0.  1.
          6    2    1    2  501    0 -0.13563841206E+03 -0.60179922110E+01  0.25618262599E+03  0.33500240285E+03  0.16781858360E+03 0.  0.
         24    2    3    3    0    0 -0.36282722380E+02 -0.29833470295E+02  0.49620889609E+02  0.10450604495E+03  0.79074704253E+02 0.  0.
         -6    2    1    2    0  502  0.13563841206E+03  0.60179922110E+01  0.14394920978E+04  0.14560676706E+04  0.17193477422E+03 0.  0.
        -24    2    5    5    0    0  0.98887254595E+02  0.40571652905E+02  0.13144315747E+04  0.13211349930E+04  0.79009853616E+02 0.  0.
          5    1    3    3  501    0 -0.99355689675E+02  0.23815478084E+02  0.20656173638E+03  0.23049635790E+03  0.47000000000E+01 0. -1.
        -13    1    4    4    0    0 -0.54712175672E+02 -0.42757317467E+02  0.38558448372E+02  0.79425212021E+02  0.00000000000E+00 0.  1.
         14    1    4    4    0    0  0.18429453292E+02  0.12923847171E+02  0.11062441237E+02  0.25080832931E+02  0.00000000000E+00 0. -1.
         -5    1    5    5    0  502  0.36751157460E+02 -0.34553660694E+02  0.12506052306E+03  0.13493267755E+03  0.47000000000E+01 0.  1.
         11    1    6    6    0    0  0.25440443253E+02  0.52558320200E+02  0.60448760981E+03  0.60730129556E+03  0.00000000000E+00 0. -1.
        -12    1    6    6    0    0  0.73446811342E+02 -0.11986667295E+02  0.70994396492E+03  0.71383369745E+03  0.00000000000E+00 0.  1.
</event>
<event>
12    1  0.1594973E-001  0.2423491E+03  0.7818608E-02  0.1118558E+00
         21   -1    0    0  501  502  0.00000000000E+00  0.00000000000E+00  0.27799884761E+03  0.27799884761E+03  0.00000000000E+00 0. -1.
         21   -1    0    0  502  503 -0.00000000000E+00 -0.00000000000E+00 -0.48106744130E+03  0.48106744130E+03  0.00000000000E+00 0.  1.
         -6    2    1    2    0  503  0.10924119532E+03 -0.12816367128E+03 -0.38682646675E+03  0.45647323755E+03  0.17428005002E+03 0.  0.
        -24    2    3    3    0    0  0.96823707069E+02 -0.14075774212E+02 -0.22843116879E+03  0.26081689933E+03  0.79194055538E+02 0.  0.
          6    2    1    2  501    0 -0.10924119532E+03  0.12816367128E+03  0.18375787305E+03  0.30259305135E+03  0.17156932543E+03 0.  0.
         24    2    5    5    0    0 -0.13113082934E+03  0.82226980266E+02  0.91353306481E+02  0.19699935087E+03  0.80664409445E+02 0.  0.
          5    1    5    5  501    0  0.21889634018E+02  0.45936691013E+02  0.92404566569E+02  0.10559370048E+03  0.47000000000E+01 0. -1.
        -13    1    6    6    0    0 -0.70722766048E+02  0.15494382144E+00  0.23314476926E+02  0.74466760903E+02  0.00000000000E+00 0.  1.
         14    1    6    6    0    0 -0.60408063294E+02  0.82072036445E+02  0.68038829554E+02  0.12253258997E+03  0.00000000000E+00 0. -1.
         -5    1    3    3    0  503  0.12417488256E+02 -0.11408789707E+03 -0.15839529795E+03  0.19565633822E+03  0.47000000000E+01 0.  1.
         11    1    4    4    0    0  0.99721039650E+02 -0.84480860653E+01 -0.13963382038E+03  0.17179423652E+03  0.00000000000E+00 0. -1.
        -12    1    4    4    0    0 -0.28973325815E+01 -0.56276881471E+01 -0.88797348407E+02  0.89022662812E+02  0.00000000000E+00 0.  1.
</event>
<event>
12    1  0.1594973E-001  0.2050993E+03  0.7818608E-02  0.1145566E+00
         21   -1    0    0  503  502  0.00000000000E+00  0.00000000000E+00  0.17005672603E+03  0.17005672603E+03  0.00000000000E+00 0.  1.
         21   -1    0    0  501  503 -0.00000000000E+00 -0.00000000000E+00 -0.26335000499E+03  0.26335000499E+03  0.00000000000E+00 0.  1.
          6    2    1    2  501    0  0.15232122619E+02  0.11142792269E+03  0.73608085980E+01  0.20494015791E+03  0.17116684056E+03 0.  0.
         24    2    3    3    0    0  0.67440943888E+02  0.10914565482E+03  0.10832054090E+02  0.15235585122E+03  0.81448862029E+02 0.  0.
         -6    2    1    2    0  502 -0.15232122619E+02 -0.11142792269E+03 -0.10065408755E+03  0.22846657311E+03  0.17151539340E+03 0.  0.
        -24    2    5    5    0    0  0.26363709260E+02 -0.10424242507E+02 -0.70647942284E+02  0.11508925883E+03  0.86317412791E+02 0.  0.
          5    1    3    3  501    0 -0.52208821269E+02  0.22822678644E+01 -0.34712454924E+01  0.52584306691E+02  0.47000000000E+01 0. -1.
        -13    1    4    4    0    0  0.19153135351E+02  0.10116963914E+03  0.53149682217E+01  0.10310376988E+03  0.00000000000E+00 0.  1.
         14    1    4    4    0    0  0.48287808537E+02  0.79760156855E+01  0.55170858686E+01  0.49252081337E+02  0.00000000000E+00 0. -1.
         -5    1    5    5    0  502 -0.41595831879E+02 -0.10100368018E+03 -0.30006145269E+02  0.11337731428E+03  0.47000000000E+01 0.  1.
         11    1    6    6    0    0 -0.60519640333E+00 -0.28094332283E+02  0.87196777819E+01  0.29422619696E+02  0.00000000000E+00 0. -1.
        -12    1    6    6    0    0  0.26968905663E+02  0.17670089776E+02 -0.79367620066E+02  0.85666639133E+02  0.00000000000E+00 0.  1.
</event>
<event>
12    1  0.1594973E-001  0.2100384E+03  0.7818608E-02  0.1141576E+00
         21   -1    0    0  501  502  0.00000000000E+00  0.00000000000E+00  0.15594982256E+03  0.15594982256E+03  0.00000000000E+00 0. -1.
         21   -1    0    0  502  503 -0.00000000000E+00 -0.00000000000E+00 -0.67225326888E+03  0.67225326888E+03  0.00000000000E+00 0.  1.
         -6    2    1    2    0  503  0.51112167727E+02  0.10918513281E+03 -0.57346704924E+03  0.61072138086E+03  0.17199506262E+03 0.  0.
        -24    2    3    3    0    0 -0.13970858899E+02  0.18821330256E+02 -0.13232152886E+03  0.15571272455E+03  0.78664084671E+02 0.  0.
          6    2    1    2  501    0 -0.51112167727E+02 -0.10918513281E+03  0.57163602920E+02  0.21748171058E+03  0.17174623728E+03 0.  0.
         24    2    5    5    0    0 -0.55523174047E+01 -0.10794020642E+03 -0.15415404240E+02  0.13165017743E+03  0.73567779210E+02 0.  0.
          5    1    5    5  501    0 -0.45559850322E+02 -0.12449263906E+01  0.72579007159E+02  0.85831533153E+02  0.47000000000E+01 0. -1.
        -13    1    6    6    0    0  0.15244268062E+02 -0.36939172894E+01 -0.19799070293E+02  0.25259372877E+02  0.00000000000E+00 0.  1.
         14    1    6    6    0    0 -0.20796585466E+02 -0.10424628913E+03  0.43836660532E+01  0.10639080455E+03  0.00000000000E+00 0. -1.
         -5    1    3    3    0  503  0.65083026625E+02  0.90363802553E+02 -0.44114552038E+03  0.45500865631E+03  0.47000000000E+01 0.  1.
         11    1    4    4    0    0  0.31913474041E+02  0.43963033010E+01 -0.69406105926E+02  0.76518003423E+02  0.00000000000E+00 0. -1.
        -12    1    4    4    0    0 -0.45884332940E+02  0.14425026955E+02 -0.62915422934E+02  0.79194721131E+02  0.00000000000E+00 0.  1.
</event>
<event>
12    1  0.1594973E-001  0.1761961E+03  0.7818608E-02  0.1171679E+00
         21   -1    0    0  501  502  0.00000000000E+00  0.00000000000E+00  0.22084316897E+02  0.22084316897E+02  0.00000000000E+00 0. -1.
         21   -1    0    0  502  503 -0.00000000000E+00 -0.00000000000E+00 -0.17162783347E+04  0.17162783347E+04  0.00000000000E+00 0. -1.
         -6    2    1    2    0  503  0.26094681706E+02  0.24644076035E+02 -0.12183956234E+04  0.12309878683E+04  0.17191560083E+03 0.  0.
        -24    2    3    3    0    0 -0.46588103865E+02 -0.18024218975E+02 -0.60427599275E+03  0.61109402134E+03  0.76099300953E+02 0.  0.
          6    2    1    2  501    0 -0.26094681706E+02 -0.24644076035E+02 -0.47579839446E+03  0.50737478338E+03  0.17250158187E+03 0.  0.
         24    2    5    5    0    0  0.51747156199E+02  0.14306603379E+01 -0.29295504331E+03  0.30689280249E+03  0.75370550302E+02 0.  0.
          5    1    5    5  501    0 -0.77841837905E+02 -0.26074736373E+02 -0.18284335115E+03  0.20048198090E+03  0.47000000000E+01 0. -1.
        -11    1    6    6    0    0  0.39088334073E+01  0.16301643503E+02 -0.99630916322E+01  0.19500916757E+02  0.00000000000E+00 0.  1.
         12    1    6    6    0    0  0.47838322792E+02 -0.14870983165E+02 -0.28299195168E+03  0.28739188573E+03  0.00000000000E+00 0. -1.
         -5    1    3    3    0  503  0.72682785571E+02  0.42668295009E+02 -0.61411963063E+03  0.61989384692E+03  0.47000000000E+01 0.  1.
         13    1    4    4    0    0 -0.29772630442E+02 -0.39187973432E+01 -0.56730291534E+03  0.56809714332E+03  0.00000000000E+00 0. -1.
        -14    1    4    4    0    0 -0.16815473423E+02 -0.14105421632E+02 -0.36973077416E+02  0.42996878020E+02  0.00000000000E+00 0.  1.
</event>
<event>
12    1  0.1594973E-001  0.1995290E+03  0.7818608E-02  0.1150528E+00
         21   -1    0    0  503  502  0.00000000000E+00  0.00000000000E+00  0.16374530434E+03  0.16374530434E+03  0.00000000000E+00 0.  1.
         21   -1    0    0  501  503 -0.00000000000E+00 -0.00000000000E+00 -0.24576246228E+03  0.24576246228E+03  0.00000000000E+00 0.  1.
          6    2    1    2  501    0 -0.10000532282E+03  0.10009205427E+02 -0.12012980704E+02  0.19805468638E+03  0.17023542024E+03 0.  0.
         24    2    3    3    0    0 -0.77953271059E+02  0.29034522906E+02 -0.68437052487E+02  0.13438348748E+03  0.80346596482E+02 0.  0.
         -6    2    1    2    0  502  0.10000532282E+03 -0.10009205427E+02 -0.70004177240E+02  0.21145308024E+03  0.17236754778E+03 0.  0.
        -24    2    5    5    0    0  0.61166539216E+00  0.20476103725E+02 -0.69331688653E+02  0.10738101169E+03  0.79398700633E+02 0.  0.
          5    1    3    3  501    0 -0.22052051761E+02 -0.19025317479E+02  0.56424071783E+02  0.63671198894E+02  0.47000000000E+01 0. -1.
        -11    1    4    4    0    0 -0.63118938576E+02 -0.16937480746E+02 -0.26888925735E+02  0.70667481830E+02  0.00000000000E+00 0.  1.
         12    1    4    4    0    0 -0.14834332483E+02  0.45972003652E+02 -0.41548126752E+02  0.63716005655E+02  0.00000000000E+00 0. -1.
         -5    1    5    5    0  502  0.99393657428E+02 -0.30485309152E+02 -0.67248858767E+00  0.10407206855E+03  0.47000000000E+01 0.  1.
         11    1    6    6    0    0 -0.63867715719E+01  0.40773985496E+02 -0.75253721888E+01  0.41951638477E+02  0.00000000000E+00 0. -1.
        -12    1    6    6    0    0  0.69984369641E+01 -0.20297881772E+02 -0.61806316464E+02  0.65429373214E+02  0.00000000000E+00 0.  1.
</event>
<event>
12    1  0.1594973E-001  0.2812063E+03  0.7818608E-02  0.1095133E+00
         21   -1    0    0  501  502  0.00000000000E+00  0.00000000000E+00  0.10529754201E+03  0.10529754201E+03  0.00000000000E+00 0. -1.
         21   -1    0    0  502  503 -0.00000000000E+00 -0.00000000000E+00 -0.12355813294E+04  0.12355813294E+04  0.00000000000E+00 0.  1.
         -6    2    1    2    0  503 -0.57703362987E+02  0.21440318941E+03 -0.98541550773E+03  0.10245502039E+04  0.17135049369E+03 0.  0.
        -24    2    3    3    0    0 -0.49115949333E+02  0.54443200610E+02 -0.25868730643E+03  0.28036144406E+03  0.79416485926E+02 0.  0.
          6    2    1    2  501    0  0.57703362987E+02 -0.21440318941E+03 -0.14486827970E+03  0.31632866756E+03  0.17256477546E+03 0.  0.
         24    2    5    5    0    0 -0.17655615897E+02 -0.61794216522E+02 -0.92090566149E+02  0.13807028388E+03  0.80327361155E+02 0.  0.
          5    1    5    5  501    0  0.75358978884E+02 -0.15260897288E+03 -0.52777713549E+02  0.17825838368E+03  0.47000000000E+01 0. -1.
        -11    1    6    6    0    0  0.31880112445E+02 -0.31424454508E+02 -0.40666233790E+02  0.60477933839E+02  0.00000000000E+00 0.  1.
         12    1    6    6    0    0 -0.49535728342E+02 -0.30369762014E+02 -0.51424332358E+02  0.77592350046E+02  0.00000000000E+00 0. -1.
         -5    1    3    3    0  503 -0.85874136540E+01  0.15995998880E+03 -0.72672820130E+03  0.74418875983E+03  0.47000000000E+01 0.  1.
         11    1    4    4    0    0 -0.20229316610E+02 -0.12510382217E+02 -0.20961939158E+02  0.31703908387E+02  0.00000000000E+00 0. -1.
        -12    1    4    4    0    0 -0.28886632723E+02  0.66953582827E+02 -0.23772536727E+03  0.24865753567E+03  0.00000000000E+00 0.  1.
</event>
<event>
12    1  0.1594973E-001  0.1998687E+03  0.7818608E-02  0.1149932E+00
         21   -1    0    0  501  502  0.00000000000E+00  0.00000000000E+00  0.71423862991E+03  0.71423862991E+03  0.00000000000E+00 0.  1.
         21   -1    0    0  502  503 -0.00000000000E+00 -0.00000000000E+00 -0.69463043496E+02  0.69463043496E+02  0.00000000000E+00 0. -1.
         -6    2    1    2    0  503 -0.70190774409E+02  0.70869320176E+02  0.14899065159E+03  0.24929042693E+03  0.17320016554E+03 0.  0.
        -24    2    3    3    0    0 -0.10336851139E+03  0.13624333428E+02  0.79402885793E+02  0.15315355634E+03  0.79249744097E+02 0.  0.
          6    2    1    2  501    0  0.70190774409E+02 -0.70869320176E+02  0.49578493483E+03  0.53441124648E+03  0.17275263646E+03 0.  0.
         24    2    5    5    0    0  0.51191483016E+02 -0.15387478096E+02  0.45359163099E+03  0.46201253956E+03  0.69662591068E+02 0.  0.
          5    1    5    5  501    0  0.18999291393E+02 -0.55481842080E+02  0.42193303841E+02  0.72398706915E+02  0.47000000000E+01 0. -1.
        -11    1    6    6    0    0 -0.16085893869E+02 -0.52616344696E+01  0.14651956369E+03  0.14749380775E+03  0.00000000000E+00 0.  1.
         12    1    6    6    0    0  0.67277376885E+02 -0.10125843627E+02  0.30707206729E+03  0.31451873181E+03  0.00000000000E+00 0. -1.
         -5    1    3    3    0  503  0.33177736979E+02  0.57244986748E+02  0.69587765796E+02  0.96136870592E+02  0.47000000000E+01 0.  1.
         11    1    4    4    0    0 -0.79892382402E+02  0.33926762419E+02  0.24674147154E+02  0.90236530917E+02  0.00000000000E+00 0. -1.
        -12    1    4    4    0    0 -0.23476128985E+02 -0.20302428991E+02  0.54728738639E+02  0.62917025423E+02  0.00000000000E+00 0.  1.
</event>
<event>
12    1  0.1594973E-001  0.2339217E+03  0.7818608E-02  0.1123944E+00
         21   -1    0    0  501  502  0.00000000000E+00  0.00000000000E+00  0.37524639256E+03  0.37524639256E+03  0.00000000000E+00 0. -1.
         21   -1    0    0  502  503 -0.00000000000E+00 -0.00000000000E+00 -0.53767722972E+03  0.53767722972E+03  0.00000000000E+00 0. -1.
         -6    2    1    2    0  503  0.14213228785E+03  0.72698951137E+02 -0.47096565800E+03  0.52585928987E+03  0.17097548649E+03 0.  0.
        -24    2    3    3    0    0  0.50961437960E+02  0.18344539882E+02 -0.97348671347E+02  0.13742877020E+03  0.80475541403E+02 0.  0.
          6    2    1    2  501    0 -0.14213228785E+03 -0.72698951137E+02  0.30853482084E+03  0.38706433241E+03  0.17069955186E+03 0.  0.
         24    2    5    5    0    0 -0.13564284548E+02 -0.49763076423E+02  0.10203212106E+03  0.14268503533E+03  0.85370439787E+02 0.  0.
          5    1    5    5  501    0 -0.12856800330E+03 -0.22935874714E+02  0.20650269979E+03  0.24437929708E+03  0.47000000000E+01 0. -1.
        -13    1    6    6    0    0 -0.34573005830E+02  0.25876214970E+01  0.12479649407E+02  0.36847390226E+02  0.00000000000E+00 0.  1.
         14    1    6    6    0    0  0.21008721282E+02 -0.52350697920E+02  0.89552471648E+02  0.10583764510E+03  0.00000000000E+00 0. -1.
         -5    1    3    3    0  503  0.91170849891E+02  0.54354411254E+02 -0.37361698665E+03  0.38843051967E+03  0.47000000000E+01 0.  1.
         11    1    4    4    0    0  0.39575115188E+02 -0.25738757383E+02 -0.69629546459E+02  0.84124592801E+02  0.00000000000E+00 0. -1.
        -12    1    4    4    0    0  0.11386322772E+02  0.44083297265E+02 -0.27719124888E+02  0.53304177403E+02  0.00000000000E+00 0.  1.
</event>
<event>
12    1  0.1594973E-001  0.2950358E+03  0.7818608E-02  0.1087932E+00
         21   -1    0    0  501  502  0.00000000000E+00  0.00000000000E+00  0.29163864434E+03  0.29163864434E+03  0.00000000000E+00 0.  1.
         21   -1    0    0  502  503 -0.00000000000E+00 -0.00000000000E+00 -0.33525082537E+03  0.33525082537E+03  0.00000000000E+00 0. -1.
         -6    2    1    2    0  503 -0.17062458627E+03  0.16793694802E+03 -0.12759877724E+03  0.32013245477E+03  0.16996403354E+03 0.  0.
        -24    2    3    3    0    0 -0.17614521545E+03  0.88439809126E+02 -0.79342981369E+02  0.22685338813E+03  0.79488453569E+02 0.  0.
          6    2    1    2  501    0  0.17062458627E+03 -0.16793694802E+03  0.83986596206E+02  0.30675701493E+03  0.17242549093E+03 0.  0.
         24    2    5    5    0    0  0.17399389117E+03 -0.10335809070E+03  0.24139993008E+02  0.21852160854E+03  0.78817415957E+02 0.  0.
          5    1    5    5  501    0 -0.33693049030E+01 -0.64578857311E+02  0.59846603198E+02  0.88235406394E+02  0.47000000000E+01 0. -1.
        -13    1    6    6    0    0  0.16526733502E+02  0.12198619968E+02  0.95685782794E+01  0.22660470862E+02  0.00000000000E+00 0.  1.
         14    1    6    6    0    0  0.15746715767E+03 -0.11555671067E+03  0.14571414728E+02  0.19586113768E+03  0.00000000000E+00 0. -1.
         -5    1    3    3    0  503  0.55206291788E+01  0.79497138891E+02 -0.48255795871E+02  0.93279066641E+02  0.47000000000E+01 0.  1.
         13    1    4    4    0    0 -0.50786466750E+01 -0.11151351701E+02 -0.13531196133E+02  0.18254823077E+02  0.00000000000E+00 0. -1.
        -14    1    4    4    0    0 -0.17106656877E+03  0.99591160827E+02 -0.65811785236E+02  0.20859856505E+03  0.00000000000E+00 0.  1.
</event>
<event>
12    1  0.1594973E-001  0.1993326E+03  0.7818608E-02  0.1150345E+00
         21   -1    0    0  503  502  0.00000000000E+00  0.00000000000E+00  0.27151632151E+03  0.27151632151E+03  0.00000000000E+00 0.  1.
         21   -1    0    0  501  503 -0.00000000000E+00 -0.00000000000E+00 -0.16942883482E+03  0.16942883482E+03  0.00000000000E+00 0.  1.
          6    2    1    2  501    0  0.78932986913E+02  0.62505781175E+02 -0.30578975728E+02  0.20166445206E+03  0.17203513701E+03 0.  0.
         24    2    3    3    0    0  0.77527886656E+02  0.10436284215E+03 -0.85558958438E+01  0.15411349089E+03  0.82313964128E+02 0.  0.
         -6    2    1    2    0  502 -0.78932986913E+02 -0.62505781175E+02  0.13266646241E+03  0.23928070427E+03  0.17180650769E+03 0.  0.
        -24    2    5    5    0    0 -0.11565988397E+03 -0.33486921904E+02  0.10522652800E+03  0.18481971676E+03  0.92666729787E+02 0.  0.
          5    1    3    3  501    0  0.14051002563E+01 -0.41857060975E+02 -0.22023079884E+02  0.47550961166E+02  0.47000000000E+01 0. -1.
        -11    1    4    4    0    0  0.75583668518E+02  0.32994122655E+02 -0.37369323499E+01  0.82555846188E+02  0.00000000000E+00 0.  1.
         12    1    4    4    0    0  0.19442181383E+01  0.71368719496E+02 -0.48189634939E+01  0.71557644705E+02  0.00000000000E+00 0. -1.
         -5    1    5    5    0  502  0.36726897056E+02 -0.29018859270E+02  0.27439934413E+02  0.54460987517E+02  0.47000000000E+01 0.  1.
         13    1    6    6    0    0 -0.33965153064E+02  0.28581019601E+02  0.11501325716E+02  0.45856153320E+02  0.00000000000E+00 0. -1.
        -14    1    6    6    0    0 -0.81694730904E+02 -0.62067941505E+02  0.93725202284E+02  0.13896356344E+03  0.00000000000E+00 0.  1.
</event>
<event>
12    1  0.1594973E-001  0.1788416E+03  0.7818608E-02  0.1171289E+00
         21   -1    0    0  503  502  0.00000000000E+00  0.00000000000E+00  0.18465693999E+03  0.18465693999E+03  0.00000000000E+00 0.  1.
         21   -1    0    0  501  503 -0.00000000000E+00 -0.00000000000E+00 -0.16737387678E+03  0.16737387678E+03  0.00000000000E+00 0.  1.
          6    2    1    2  501    0 -0.30108991198E+02  0.35302163636E+02 -0.15714879622E+02  0.17017045600E+03  0.16296696765E+03 0.  0.
         24    2    3    3    0    0 -0.67670835468E+02  0.45441839586E+02 -0.43318401197E+02  0.12223560879E+03  0.80129628834E+02 0.  0.
         -6    2    1    2    0  502  0.30108991198E+02 -0.35302163636E+02  0.32997942835E+02  0.18186036077E+03  0.17271807225E+03 0.  0.
        -24    2    5    5    0    0 -0.25930689709E+02  0.91546913973E+01 -0.26587953513E+02  0.88643265565E+02  0.79965618954E+02 0.  0.
          5    1    3    3  501    0  0.37561844270E+02 -0.10139675950E+02  0.27603521575E+02  0.47934847206E+02  0.47000000000E+01 0. -1.
        -13    1    4    4    0    0  0.33802378157E+01  0.32008900105E+02 -0.37899781802E+02  0.49723124944E+02  0.00000000000E+00 0.  1.
         14    1    4    4    0    0 -0.71051073284E+02  0.13432939481E+02 -0.54186193946E+01  0.72512483850E+02  0.00000000000E+00 0. -1.
         -5    1    5    5    0  502  0.56039680906E+02 -0.44456855034E+02  0.59585896348E+02  0.93217095209E+02  0.47000000000E+01 0.  1.
         13    1    6    6    0    0 -0.36344310414E+01  0.14408413546E+02  0.26746791535E+02  0.30597423541E+02  0.00000000000E+00 0. -1.
        -14    1    6    6    0    0 -0.22296258667E+02 -0.52537221487E+01 -0.53334745048E+02  0.58045842025E+02  0.00000000000E+00 0.  1.
</event>
<event>
12    1  0.1594973E-001  0.2833345E+03  0.7818608E-02  0.1094147E+00
         21   -1    0    0  501  502  0.00000000000E+00  0.00000000000E+00  0.16330594824E+03  0.16330594824E+03  0.00000000000E+00 0. -1.
         21   -1    0    0  502  503 -0.00000000000E+00 -0.00000000000E+00 -0.51121481452E+03  0.51121481452E+03  0.00000000000E+00 0. -1.
         -6    2    1    2    0  503 -0.19797562488E+03 -0.10882119720E+03 -0.24496383052E+03  0.37306412644E+03  0.16772943441E+03 0.  0.
        -24    2    3    3    0    0 -0.18250082139E+03 -0.62732675402E+02 -0.12728698292E+03  0.24565316990E+03  0.83075661251E+02 0.  0.
          6    2    1    2  501    0  0.19797562488E+03  0.10882119720E+03 -0.10294503576E+03  0.30145663632E+03  0.17100298883E+03 0.  0.
         24    2    5    5    0    0  0.10265186481E+03  0.13188380814E+03 -0.50794236975E+02  0.19027975441E+03  0.75469107803E+02 0.  0.
          5    1    5    5  501    0  0.95323760069E+02 -0.23062610937E+02 -0.52150798784E+02  0.11117688191E+03  0.47000000000E+01 0. -1.
        -11    1    6    6    0    0  0.17783899143E+02  0.82858163907E+02 -0.15775683250E+02  0.86201012620E+02  0.00000000000E+00 0.  1.
         12    1    6    6    0    0  0.84867965666E+02  0.49025644232E+02 -0.35018553725E+02  0.10407874179E+03  0.00000000000E+00 0. -1.
         -5    1    3    3    0  503 -0.15474803490E+02 -0.46088521799E+02 -0.11767684760E+03  0.12741095654E+03  0.47000000000E+01 0.  1.
         11    1    4    4    0    0 -0.68909956784E+02 -0.43185914266E+02 -0.96803350499E+02  0.12642979871E+03  0.00000000000E+00 0. -1.
        -12    1    4    4    0    0 -0.11359086460E+03 -0.19546761136E+02 -0.30483632423E+02  0.11922337119E+03  0.00000000000E+00 0.  1.
</event>
<event>
12    1  0.1594973E-001  0.1930120E+03  0.7818608E-02  0.1156057E+00
         21   -1    0    0  503  502  0.00000000000E+00  0.00000000000E+00  0.66643740548E+02  0.66643740548E+02  0.00000000000E+00 0. -1.
         21   -1    0    0  501  503 -0.00000000000E+00 -0.00000000000E+00 -0.56871035195E+03  0.56871035195E+03  0.00000000000E+00 0. -1.
          6    2    1    2  501    0  0.58731531294E+02 -0.66449034622E+02 -0.20139782767E+03  0.27806520468E+03  0.16998325239E+03 0.  0.
         24    2    3    3    0    0 -0.17795902773E+02  0.11247710712E+02 -0.71315610461E+02  0.10825146662E+03  0.78671841071E+02 0.  0.
         -6    2    1    2    0  502 -0.58731531294E+02  0.66449034622E+02 -0.30066878374E+03  0.35728888782E+03  0.17143151658E+03 0.  0.
        -24    2    5    5    0    0  0.23371882508E+02  0.29942086745E+02 -0.83270905889E+02  0.12200681223E+03  0.80677413278E+02 0.  0.
          5    1    3    3  501    0  0.76527434067E+02 -0.77696745334E+02 -0.13008221721E+03  0.16981373806E+03  0.47000000000E+01 0. -1.
        -11    1    4    4    0    0  0.15507345533E+02  0.36278644107E+02 -0.29868116240E+02  0.49484564780E+02  0.00000000000E+00 0.  1.
         12    1    4    4    0    0 -0.33303248306E+02 -0.25030933394E+02 -0.41447494221E+02  0.58766901837E+02  0.00000000000E+00 0. -1.
         -5    1    5    5    0  502 -0.82103413801E+02  0.36506947877E+02 -0.21739787785E+03  0.23528207559E+03  0.47000000000E+01 0.  1.
         13    1    6    6    0    0 -0.38938044139E+00  0.39317061969E+02 -0.87673308396E+02  0.96086377723E+02  0.00000000000E+00 0. -1.
        -14    1    6    6    0    0  0.23761262949E+02 -0.93749752237E+01  0.44024025066E+01  0.25920434510E+02  0.00000000000E+00 0.  1.
</event>
<event>
12    1  0.1594973E-001  0.1750725E+03  0.7818608E-02  0.1172906E+00
         21   -1    0    0  503  502  0.00000000000E+00  0.00000000000E+00  0.24232238585E+03  0.24232238585E+03  0.00000000000E+00 0.  1.
         21   -1    0    0  501  503 -0.00000000000E+00 -0.00000000000E+00 -0.13641891515E+03  0.13641891515E+03  0.00000000000E+00 0.  1.
          6    2    1    2  501    0 -0.26917691442E+02  0.57115974489E+01 -0.78701521972E-01  0.17408894722E+03  0.17190046798E+03 0.  0.
         24    2    3    3    0    0 -0.66964998778E+02 -0.36121795329E+02  0.19701297411E+02  0.11271176959E+03  0.80788035784E+02 0.  0.
         -6    2    1    2    0  502  0.26917691442E+02 -0.57115974489E+01  0.10598217223E+03  0.20465235378E+03  0.17289644478E+03 0.  0.
        -24    2    5    5    0    0 -0.23271921264E+02 -0.14836021370E+02  0.43218422908E+00  0.87327410554E+02  0.82850467720E+02 0.  0.
          5    1    3    3  501    0  0.40047307336E+02  0.41833392778E+02 -0.19779998933E+02  0.61377177631E+02  0.47000000000E+01 0. -1.
        -13    1    4    4    0    0 -0.54095928833E+02 -0.33234693419E+01 -0.21671217763E+02  0.58369997808E+02  0.00000000000E+00 0.  1.
         14    1    4    4    0    0 -0.12869069945E+02 -0.32798325987E+02  0.41372515174E+02  0.54341771784E+02  0.00000000000E+00 0. -1.
         -5    1    5    5    0  502  0.50189612706E+02  0.91244239211E+01  0.10554998800E+03  0.11732494322E+03  0.47000000000E+01 0.  1.
         13    1    6    6    0    0 -0.19702855030E+02 -0.48905500501E+02  0.40523732678E+01  0.52880735667E+02  0.00000000000E+00 0. -1.
        -14    1    6    6    0    0 -0.35690662345E+01  0.34069479131E+02 -0.36201890388E+01  0.34446674887E+02  0.00000000000E+00 0.  1.
</event>
<event>
12    1  0.1594973E-001  0.2082456E+03  0.7818608E-02  0.1143970E+00
         21   -1    0    0  503  502  0.00000000000E+00  0.00000000000E+00  0.10436870176E+04  0.10436870176E+04  0.00000000000E+00 0.  1.
         21   -1    0    0  501  503 -0.00000000000E+00 -0.00000000000E+00 -0.11079673481E+03  0.11079673481E+03  0.00000000000E+00 0.  1.
          6    2    1    2  501    0  0.37838956522E+02 -0.10872416084E+03  0.89410181689E+01  0.20843743185E+03  0.17353239297E+03 0.  0.
         24    2    3    3    0    0  0.28531752836E+02 -0.14542078861E+03  0.16956209194E+02  0.16945538705E+03  0.80413608854E+02 0.  0.
         -6    2    1    2    0  502 -0.37838956522E+02  0.10872416084E+03  0.92394926462E+03  0.94604632056E+03  0.16753706240E+03 0.  0.
        -24    2    5    5    0    0 -0.45204206134E+02  0.76121285683E+02  0.32460758713E+03  0.34575494903E+03  0.79614877784E+02 0.  0.
          5    1    3    3  501    0  0.93072036858E+01  0.36696627768E+02 -0.80151910254E+01  0.38982044805E+02  0.47000000000E+01 0. -1.
        -11    1    4    4    0    0 -0.10561985164E+01 -0.88396242468E+02  0.45187903787E+02  0.99282213344E+02  0.00000000000E+00 0.  1.
         12    1    4    4    0    0  0.29587951352E+02 -0.57024546141E+02 -0.28231694592E+02  0.70173173702E+02  0.00000000000E+00 0. -1.
         -5    1    5    5    0  502  0.73652496118E+01  0.32602875157E+02  0.59934167748E+03  0.60029137153E+03  0.47000000000E+01 0.  1.
         11    1    6    6    0    0  0.36532026281E+01  0.66824845175E+02  0.15104726175E+03  0.16520950670E+03  0.00000000000E+00 0. -1.
        -12    1    6    6    0    0 -0.48857408762E+02  0.92964405089E+01  0.17356032538E+03  0.18054544232E+03  0.00000000000E+00 0.  1.
</event>
<event>
12    1  0.1594973E-001  0.2069624E+03  0.7818608E-02  0.1144365E+00
         21   -1    0    0  503  502  0.00000000000E+00  0.00000000000E+00  0.29099669059E+03  0.29099669059E+03  0.00000000000E+00 0. -1.
         21   -1    0    0  501  503 -0.00000000000E+00 -0.00000000000E+00 -0.17140657421E+03  0.17140657421E+03  0.00000000000E+00 0. -1.
          6    2    1    2  501    0 -0.94792166214E+02  0.66005343647E+02 -0.29171291504E+02  0.20900816646E+03  0.17172998932E+03 0.  0.
         24    2    3    3    0    0 -0.52935494279E+02 -0.25193857665E+02  0.13053649671E+02  0.10003885444E+03  0.80002984996E+02 0.  0.
         -6    2    1    2    0  502  0.94792166214E+02 -0.66005343647E+02  0.14876140789E+03  0.25339509834E+03  0.16951949510E+03 0.  0.
        -24    2    5    5    0    0  0.58806815636E+02  0.22756306772E+02  0.11316781146E+03  0.15110839271E+03  0.77786256724E+02 0.  0.
          5    1    3    3  501    0 -0.41856671934E+02  0.91199201312E+02 -0.42224941175E+02  0.10896931202E+03  0.47000000000E+01 0. -1.
        -11    1    4    4    0    0 -0.33111534821E+02  0.10482980936E+02  0.38571299865E+02  0.51903870769E+02  0.00000000000E+00 0.  1.
         12    1    4    4    0    0 -0.19823959458E+02 -0.35676838601E+02 -0.25517650193E+02  0.48134983667E+02  0.00000000000E+00 0. -1.
         -5    1    5    5    0  502  0.35985350578E+02 -0.88761650419E+02  0.35593596435E+02  0.10228670563E+03  0.47000000000E+01 0.  1.
         11    1    6    6    0    0  0.56951045528E+02 -0.17648622957E+02  0.64774186303E+02  0.88037439140E+02  0.00000000000E+00 0. -1.
        -12    1    6    6    0    0  0.18557701073E+01  0.40404929729E+02  0.48393625154E+02  0.63070953573E+02  0.00000000000E+00 0.  1.
</event>
<event>
12    1  0.1594973E-001  0.1865140E+03  0.7818608E-02  0.1162762E+00
         21   -1    0    0  503  502  0.00000000000E+00  0.00000000000E+00  0.45473790058E+03  0.45473790058E+03  0.00000000000E+00 0. -1.
         21   -1    0    0  501  503 -0.00000000000E+00 -0.00000000000E+00 -0.92570950215E+02  0.92570950215E+02  0.00000000000E+00 0. -1.
          6    2    1    2  501    0 -0.14757547316E+02  0.63493123065E+02  0.62254056124E+02  0.19662920210E+03  0.17475214945E+03 0.  0.
         24    2    3    3    0    0  0.15546328327E+02  0.31500282539E+02  0.10390688368E+03  0.13581049801E+03  0.80086795231E+02 0.  0.
         -6    2    1    2    0  502  0.14757547316E+02 -0.63493123065E+02  0.29991289424E+03  0.35067964869E+03  0.16964465802E+03 0.  0.
        -24    2    5    5    0    0  0.62126758061E+02 -0.32813702395E+02  0.26123278160E+03  0.28209896560E+03  0.80004919080E+02 0.  0.
          5    1    3    3  501    0 -0.30303875643E+02  0.31992840526E+02 -0.41652827555E+02  0.60818704090E+02  0.47000000000E+01 0. -1.
        -13    1    4    4    0    0  0.30172415296E+02 -0.18087097804E+02  0.49831886712E+02  0.60997825249E+02  0.00000000000E+00 0.  1.
         14    1    4    4    0    0 -0.14626086969E+02  0.49587380344E+02  0.54074996966E+02  0.74812672765E+02  0.00000000000E+00 0. -1.
         -5    1    5    5    0  502 -0.47369210745E+02 -0.30679420670E+02  0.38680112638E+02  0.68580683088E+02  0.47000000000E+01 0.  1.
         13    1    6    6    0    0  0.74151369706E+02 -0.41910065208E+02  0.17581510169E+03  0.19536076673E+03  0.00000000000E+00 0. -1.
        -14    1    6    6    0    0 -0.12024611645E+02  0.90963628129E+01  0.85417679916E+02  0.86738198873E+02  0.00000000000E+00 0.  1.
</event>
<event>
12    1  0.1594973E-001  0.1917839E+03  0.7818608E-02  0.1157044E+00
         21   -1    0    0  503  502  0.00000000000E+00  0.00000000000E+00  0.54159843048E+03  0.54159843048E+03  0.00000000000E+00 0. -1.
         21   -1    0    0  501  503 -0.00000000000E+00 -0.00000000000E+00 -0.73733567579E+02  0.73733567579E+02  0.00000000000E+00 0. -1.
          6    2    1    2  501    0  0.17536625681E+02 -0.79896983149E+02  0.14491874557E+03  0.23973214990E+03  0.17256592862E+03 0.  0.
         24    2    3    3    0    0 -0.45788480546E+01 -0.68218274868E+02  0.12116518791E+02  0.10451377895E+03  0.78112874013E+02 0.  0.
         -6    2    1    2    0  502 -0.17536625681E+02  0.79896983149E+02  0.32294611734E+03  0.37559984816E+03  0.17346466523E+03 0.  0.
        -24    2    5    5    0    0 -0.68935257404E+02  0.24293281343E+02  0.24139915153E+03  0.26421947004E+03  0.78715594140E+02 0.  0.
          5    1    3    3  501    0  0.22115473736E+02 -0.11678708280E+02  0.13280222678E+03  0.13521837095E+03  0.47000000000E+01 0. -1.
        -11    1    4    4    0    0 -0.69657297565E+00 -0.47216819339E+02  0.45048184977E+02  0.65262946701E+02  0.00000000000E+00 0.  1.
         12    1    4    4    0    0 -0.38822750789E+01 -0.21001455530E+02 -0.32931666186E+02  0.39250832245E+02  0.00000000000E+00 0. -1.
         -5    1    5    5    0  502  0.51398631723E+02  0.55603701806E+02  0.81546965810E+02  0.11138037812E+03  0.47000000000E+01 0.  1.
         13    1    6    6    0    0 -0.32610992922E+02  0.11714147640E+02  0.21053046432E+02  0.40545392813E+02  0.00000000000E+00 0. -1.
        -14    1    6    6    0    0 -0.36324264483E+02  0.12579133703E+02  0.22034610509E+03  0.22367407723E+03  0.00000000000E+00 0.  1.
</event>
<event>
12    1  0.1594973E-001  0.1761696E+03  0.7818608E-02  0.1172387E+00
         21   -1    0    0  503  502  0.00000000000E+00  0.00000000000E+00  0.49526021743E+02  0.49526021743E+02  0.00000000000E+00 0.  1.
         21   -1    0    0  501  503 -0.00000000000E+00 -0.00000000000E+00 -0.62962417617E+03  0.62962417617E+03  0.00000000000E+00 0.  1.
          6    2    1    2  501    0  0.13269760289E+02  0.76184800374E+01 -0.34438531201E+03  0.38682939124E+03  0.17550386614E+03 0.  0.
         24    2    3    3    0    0  0.55412158986E+02  0.30769514823E+02 -0.12515066881E+03  0.16233468984E+03  0.81685930351E+02 0.  0.
         -6    2    1    2    0  502 -0.13269760289E+02 -0.76184800374E+01 -0.23571284243E+03  0.29232080667E+03  0.17221144606E+03 0.  0.
        -24    2    5    5    0    0  0.23908822484E+01  0.49261411118E+02 -0.99111363699E+02  0.14344961492E+03  0.91226786987E+02 0.  0.
          5    1    3    3  501    0 -0.42142398697E+02 -0.23151034786E+02 -0.21923464320E+03  0.22449470140E+03  0.47000000000E+01 0. -1.
        -13    1    4    4    0    0  0.25877143052E+01  0.28495111573E+02 -0.99567719895E+02  0.10359728999E+03  0.00000000000E+00 0.  1.
         14    1    4    4    0    0  0.52824444681E+02  0.22744032504E+01 -0.25582948913E+02  0.58737399849E+02  0.00000000000E+00 0. -1.
         -5    1    5    5    0  502 -0.15660642537E+02 -0.56879891155E+02 -0.13660147873E+03  0.14887119175E+03  0.47000000000E+01 0.  1.
         11    1    6    6    0    0 -0.35962373030E+02  0.40690726326E+02 -0.86578934712E+02  0.10220048639E+03  0.00000000000E+00 0. -1.
        -12    1    6    6    0    0  0.38353255278E+02  0.85706847925E+01 -0.12532428987E+02  0.41249128531E+02  0.00000000000E+00 0.  1.
</event>
<event>
12    1  0.1594973E-001  0.1781915E+03  0.7818608E-02  0.1171657E+00
         21   -1    0    0  501  502  0.00000000000E+00  0.00000000000E+00  0.73765004731E+03  0.73765004731E+03  0.00000000000E+00 0.  1.
         21   -1    0    0  502  503 -0.00000000000E+00 -0.00000000000E+00 -0.44007628159E+02  0.44007628159E+02  0.00000000000E+00 0.  1.
         -6    2    1    2    0  503  0.27342515316E+02 -0.40312124182E+02  0.23795004692E+03  0.29236456056E+03  0.16273945723E+03 0.  0.
        -24    2    3    3    0    0 -0.28817957484E+02  0.19533258425E+02  0.99951119749E+02  0.13173684680E+03  0.78436902081E+02 0.  0.
          6    2    1    2  501    0 -0.27342515316E+02  0.40312124182E+02  0.45569237223E+03  0.48929311491E+03  0.17140459065E+03 0.  0.
         24    2    5    5    0    0 -0.75865715706E+02  0.18237301706E+02  0.20989794667E+03  0.23774036021E+03  0.79844379035E+02 0.  0.
          5    1    5    5  501    0  0.48523200390E+02  0.22074822476E+02  0.24579442556E+03  0.25155275470E+03  0.47000000000E+01 0. -1.
        -13    1    6    6    0    0  0.10836419827E+02  0.90961910487E+01  0.80363681210E+02  0.81599570734E+02  0.00000000000E+00 0.  1.
         14    1    6    6    0    0 -0.86702135534E+02  0.91411106575E+01  0.12953426546E+03  0.15614078948E+03  0.00000000000E+00 0. -1.
         -5    1    3    3    0  503  0.56160472800E+02 -0.59845382607E+02  0.13799892717E+03  0.16062771375E+03  0.47000000000E+01 0.  1.
         13    1    4    4    0    0  0.13663988781E+02 -0.17940720658E+02  0.83763049722E+01  0.24056943533E+02  0.00000000000E+00 0. -1.
        -14    1    4    4    0    0 -0.42481946265E+02  0.37473979083E+02  0.91574814777E+02  0.10767990327E+03  0.00000000000E+00 0.  1.
</event>
<event>
12    1  0.1594973E-001  0.1852343E+03  0.7818608E-02  0.1164204E+00
         21   -1    0    0  503  502  0.00000000000E+00  0.00000000000E+00  0.60677758489E+03  0.60677758489E+03  0.00000000000E+00 0.  1.
         21   -1    0    0  501  503 -0.00000000000E+00 -0.00000000000E+00 -0.13180582158E+03  0.13180582158E+03  0.00000000000E+00 0.  1.
          6    2    1    2  501    0 -0.61930260470E+02 -0.25492562298E+02 -0.46348925431E+02  0.18533210176E+03  0.16647683670E+03 0.  0.
         24    2    3    3    0    0 -0.28008710255E+02  0.16892068602E+02 -0.83233439729E+02  0.11953175297E+03  0.79310810406E+02 0.  0.
         -6    2    1    2    0  502  0.61930260470E+02  0.25492562298E+02  0.52132068873E+03  0.55325130471E+03  0.17270355460E+03 0.  0.
        -24    2    5    5    0    0  0.10458365412E+03 -0.24978504029E+01  0.39085550258E+03  0.41308700829E+03  0.83239849569E+02 0.  0.
          5    1    3    3  501    0 -0.33921550214E+02 -0.42384630901E+02  0.36884514299E+02  0.65800348788E+02  0.47000000000E+01 0. -1.
        -13    1    4    4    0    0 -0.25062918408E+02  0.45481647955E+02 -0.32614223296E+02  0.61322245075E+02  0.00000000000E+00 0.  1.
         14    1    4    4    0    0 -0.29457918469E+01 -0.28589579352E+02 -0.50619216433E+02  0.58209507896E+02  0.00000000000E+00 0. -1.
         -5    1    5    5    0  502 -0.42653393651E+02  0.27990412701E+02  0.13046518615E+03  0.14016429642E+03  0.47000000000E+01 0.  1.
         11    1    6    6    0    0  0.53195845709E+02 -0.23634122930E+02  0.90281936123E+02  0.10742065796E+03  0.00000000000E+00 0. -1.
        -12    1    6    6    0    0  0.51387808412E+02  0.21136272527E+02  0.30057356646E+03  0.30566635033E+03  0.00000000000E+00 0.  1.
</event>
<event>
12    1  0.1594973E-001  0.3168216E+03  0.7818608E-02  0.1077123E+00
         21   -1    0    0  503  502  0.00000000000E+00  0.00000000000E+00  0.29238033588E+04  0.29238033588E+04  0.00000000000E+00 0.  1.
         21   -1    0    0  501  503 -0.00000000000E+00 -0.00000000000E+00 -0.48795217700E+02  0.48795217700E+02  0.00000000000E+00 0.  1.
          6    2    1    2  501    0 -0.26070211385E+03 -0.57238555162E+02  0.62821201331E+03  0.70357483307E+03  0.17066155893E+03 0.  0.
         24    2    3    3    0    0 -0.98403892545E+02 -0.44607717142E+02  0.40461286234E+03  0.42695429692E+03  0.83097706256E+02 0.  0.
         -6    2    1    2    0  502  0.26070211385E+03  0.57238555162E+02  0.22467961278E+04  0.22690237434E+04  0.17068703535E+03 0.  0.
        -24    2    5    5    0    0  0.16180194880E+03  0.10455835782E+03  0.13855939010E+04  0.14008579921E+04  0.73622922309E+02 0.  0.
          5    1    3    3  501    0 -0.16229822131E+03 -0.12630838020E+02  0.22359915097E+03  0.27662053615E+03  0.47000000000E+01 0. -1.
        -13    1    4    4    0    0 -0.80757906231E+02 -0.23452336231E+02  0.15961877565E+03  0.18041619947E+03  0.00000000000E+00 0.  1.
         14    1    4    4    0    0 -0.17645986314E+02 -0.21155380911E+02  0.24499408670E+03  0.24653809744E+03  0.00000000000E+00 0. -1.
         -5    1    5    5    0  502  0.98900165049E+02 -0.47319802662E+02  0.86120222681E+03  0.86816575136E+03  0.47000000000E+01 0.  1.
         13    1    6    6    0    0  0.14385436444E+02  0.43535164241E+02  0.36498515665E+03  0.36785379689E+03  0.00000000000E+00 0. -1.
        -14    1    6    6    0    0  0.14741651236E+03  0.61023193582E+02  0.10206087443E+04  0.10330041952E+04  0.00000000000E+00 0.  1.
</event>
<event>
12    1  0.1594973E-001  0.2196173E+03  0.7818608E-02  0.1134335E+00
         21   -1    0    0  503  502  0.00000000000E+00  0.00000000000E+00  0.54763482863E+03  0.54763482863E+03  0.00000000000E+00 0.  1.
         21   -1    0    0  501  503 -0.00000000000E+00 -0.00000000000E+00 -0.13857611971E+03  0.13857611971E+03  0.00000000000E+00 0.  1.
          6    2    1    2  501    0 -0.68322989495E+02 -0.11827089510E+03 -0.30668029154E+01  0.21963873096E+03  0.17197596151E+03 0.  0.
         24    2    3    3    0    0 -0.10452303803E+03 -0.12230543201E+03 -0.17962222393E+02  0.18000686848E+03  0.78715608931E+02 0.  0.
         -6    2    1    2    0  502  0.68322989495E+02  0.11827089510E+03  0.41212551183E+03  0.46657221738E+03  0.17083957683E+03 0.  0.
        -24    2    5    5    0    0  0.10234368208E+03  0.98131145415E+02  0.38730284927E+03  0.41965450625E+03  0.77475522587E+02 0.  0.
          5    1    3    3  501    0  0.36200048536E+02  0.40345369112E+01  0.14895419477E+02  0.39631862479E+02  0.47000000000E+01 0. -1.
        -11    1    4    4    0    0 -0.11000352657E+03 -0.84760070917E+02 -0.21135896398E+01  0.13888669029E+03  0.00000000000E+00 0.  1.
         12    1    4    4    0    0  0.54804885387E+01 -0.37545361089E+02 -0.15848632753E+02  0.41120178187E+02  0.00000000000E+00 0. -1.
         -5    1    5    5    0  502 -0.34020692587E+02  0.20139749680E+02  0.24822662556E+02  0.46917711130E+02  0.47000000000E+01 0.  1.
         11    1    6    6    0    0  0.13410565725E+02  0.18486902342E+02  0.11955002971E+02  0.25778497382E+02  0.00000000000E+00 0. -1.
        -12    1    6    6    0    0  0.88933116357E+02  0.79644243073E+02  0.37534784630E+03  0.39387600887E+03  0.00000000000E+00 0.  1.
</event>
<event>
12    1  0.1594973E-001  0.1831030E+03  0.7818608E-02  0.1165089E+00
         21   -1    0    0  503  502  0.00000000000E+00  0.00000000000E+00  0.10773279913E+03  0.10773279913E+03  0.00000000000E+00 0.  1.
         21   -1    0    0  501  503 -0.00000000000E+00 -0.00000000000E+00 -0.47614911555E+03  0.47614911555E+03  0.00000000000E+00 0.  1.
          6    2    1    2  501    0  0.30308021945E+02 -0.54465905677E+02 -0.35733836575E+03  0.40151887412E+03  0.17216732433E+03 0.  0.
         24    2    3    3    0    0  0.40296750750E+02 -0.15686626573E+02 -0.79489843372E+02  0.12076008338E+03  0.79965393550E+02 0.  0.
         -6    2    1    2    0  502 -0.30308021945E+02  0.54465905677E+02 -0.11077950669E+02  0.18236304055E+03  0.17102177198E+03 0.  0.
        -24    2    5    5    0    0 -0.21892784620E+02  0.45615876694E+02  0.58749955263E+02  0.11131963354E+03  0.79877414480E+02 0.  0.
          5    1    3    3  501    0 -0.99887288052E+01 -0.38779279105E+02 -0.27784852238E+03  0.28075879074E+03  0.47000000000E+01 0. -1.
        -13    1    4    4    0    0  0.58095374493E+02 -0.69551083872E+00 -0.78244049703E+02  0.97456080296E+02  0.00000000000E+00 0.  1.
         14    1    4    4    0    0 -0.17798623743E+02 -0.14991115734E+02 -0.12457936687E+01  0.23304003088E+02  0.00000000000E+00 0. -1.
         -5    1    5    5    0  502 -0.84152373256E+01  0.88500289835E+01 -0.69827905932E+02  0.71043407007E+02  0.47000000000E+01 0.  1.
         11    1    6    6    0    0  0.41060299108E+00  0.30784398266E+02 -0.13981377178E+02  0.33813114012E+02  0.00000000000E+00 0. -1.
        -12    1    6    6    0    0 -0.22303387611E+02  0.14831478428E+02  0.72731332441E+02  0.77506519532E+02  0.00000000000E+00 0.  1.
</event>
<event>
12    1  0.1594973E-001  0.1721663E+03  0.7818608E-02  0.1175951E+00
         21   -1    0    0  501  502  0.00000000000E+00  0.00000000000E+00  0.27115192186E+03  0.27115192186E+03  0.00000000000E+00 0.  1.
         21   -1    0    0  502  503 -0.00000000000E+00 -0.00000000000E+00 -0.13652846771E+03  0.13652846771E+03  0.00000000000E+00 0.  1.
         -6    2    1    2    0  503  0.57392349671E+01  0.14756199179E+02 -0.25303241707E+02  0.17269575191E+03  0.17009669149E+03 0.  0.
        -24    2    3    3    0    0  0.39225377909E+02 -0.58673947834E+00  0.40651029608E+02  0.97007024608E+02  0.78859888916E+02 0.  0.
          6    2    1    2  501    0 -0.57392349671E+01 -0.14756199179E+02  0.15992669586E+03  0.23498463766E+03  0.17143671619E+03 0.  0.
         24    2    5    5    0    0 -0.71041822800E+02 -0.97790240738E+01  0.97346553112E+02  0.14427871439E+03  0.78723732926E+02 0.  0.
          5    1    5    5  501    0  0.65302587833E+02 -0.49771751052E+01  0.62580142747E+02  0.90705923268E+02  0.47000000000E+01 0. -1.
        -11    1    6    6    0    0 -0.33509254635E+02 -0.33883121079E+02  0.85890837479E+02  0.98225108822E+02  0.00000000000E+00 0.  1.
         12    1    6    6    0    0 -0.37532568165E+02  0.24104097005E+02  0.11455715633E+02  0.46053605572E+02  0.00000000000E+00 0. -1.
         -5    1    3    3    0  503 -0.33486142942E+02  0.15342938657E+02 -0.65954271315E+02  0.75688727302E+02  0.47000000000E+01 0.  1.
         11    1    4    4    0    0 -0.62611938034E+01 -0.21313143572E+01  0.50090821395E+02  0.50525591899E+02  0.00000000000E+00 0. -1.
        -12    1    4    4    0    0  0.45486571713E+02  0.15445748789E+01 -0.94397917866E+01  0.46481432709E+02  0.00000000000E+00 0.  1.
</event>
<event>
12    1  0.1594973E-001  0.2439123E+03  0.7818608E-02  0.1117325E+00
         21   -1    0    0  501  502  0.00000000000E+00  0.00000000000E+00  0.12560980988E+03  0.12560980988E+03  0.00000000000E+00 0. -1.
         21   -1    0    0  502  503 -0.00000000000E+00 -0.00000000000E+00 -0.47308071143E+03  0.47308071143E+03  0.00000000000E+00 0. -1.
         -6    2    1    2    0  503  0.16615943414E+03  0.46287527239E+02 -0.18559276880E+03  0.30594874006E+03  0.17148895877E+03 0.  0.
        -24    2    3    3    0    0  0.17521371795E+03 -0.32349836574E+00 -0.12836997923E+03  0.23144299927E+03  0.79919076161E+02 0.  0.
          6    2    1    2  501    0 -0.16615943414E+03 -0.46287527239E+02 -0.16187813275E+03  0.29274178126E+03  0.17245790182E+03 0.  0.
         24    2    5    5    0    0 -0.69907595309E+02 -0.99647239672E+01  0.80777180494E+01  0.94018748529E+02  0.61545982326E+02 0.  0.
          5    1    5    5  501    0 -0.96251838833E+02 -0.36322803272E+02 -0.16995585080E+03  0.19872303273E+03  0.47000000000E+01 0. -1.
        -13    1    6    6    0    0  0.99451906604E+01 -0.13421024881E+01  0.93150088223E+01  0.13692240347E+02  0.00000000000E+00 0.  1.
         14    1    6    6    0    0 -0.79852785970E+02 -0.86226214791E+01 -0.12372907729E+01  0.80326508182E+02  0.00000000000E+00 0. -1.
         -5    1    3    3    0  503 -0.90542838132E+01  0.46611025605E+02 -0.57222789572E+02  0.74505740784E+02  0.47000000000E+01 0.  1.
         11    1    4    4    0    0  0.10849074211E+03 -0.35187157506E+02 -0.56174243604E+02  0.12713741708E+03  0.00000000000E+00 0. -1.
        -12    1    4    4    0    0  0.66722975842E+02  0.34863659140E+02 -0.72195735628E+02  0.10430558219E+03  0.00000000000E+00 0.  1.
</event>
<event>
12    1  0.1594973E-001  0.2338219E+03  0.7818608E-02  0.1124038E+00
         21   -1    0    0  503  502  0.00000000000E+00  0.00000000000E+00  0.10400486822E+04  0.10400486822E+04  0.00000000000E+00 0. -1.
         21   -1    0    0  501  503 -0.00000000000E+00 -0.00000000000E+00 -0.11942339569E+03  0.11942339569E+03  0.00000000000E+00 0. -1.
          6    2    1    2  501    0  0.84161794013E+00  0.15856166799E+03  0.26142583157E+02  0.23493327418E+03  0.17137006093E+03 0.  0.
         24    2    3    3    0    0 -0.53562927612E+02  0.33364100558E+02  0.95486505541E+01  0.97340636047E+02  0.73497430418E+02 0.  0.
         -6    2    1    2    0  502 -0.84161794013E+00 -0.15856166799E+03  0.89448270337E+03  0.92453880374E+03  0.17184348141E+03 0.  0.
        -24    2    5    5    0    0  0.19521176444E+02 -0.18014581606E+03  0.69443224982E+03  0.72224497583E+03  0.81043594093E+02 0.  0.
          5    1    3    3  501    0  0.54404545552E+02  0.12519756743E+03  0.16593932603E+02  0.13759263813E+03  0.47000000000E+01 0. -1.
        -13    1    4    4    0    0 -0.18581849553E+02  0.56055382094E+01  0.39196244356E+02  0.43738458627E+02  0.00000000000E+00 0.  1.
         14    1    4    4    0    0 -0.34981078060E+02  0.27758562349E+02 -0.29647593802E+02  0.53602177420E+02  0.00000000000E+00 0. -1.
         -5    1    5    5    0  502 -0.20362794384E+02  0.21584148070E+02  0.20005045355E+03  0.20229382791E+03  0.47000000000E+01 0.  1.
         13    1    6    6    0    0  0.24213335627E+02 -0.29465328714E+02  0.25115693735E+03  0.25403601791E+03  0.00000000000E+00 0. -1.
        -14    1    6    6    0    0 -0.46921591830E+01 -0.15068048735E+03  0.44327531247E+03  0.46820895792E+03  0.00000000000E+00 0.  1.
</event>
<event>
12    1  0.1594973E-001  0.1895601E+03  0.7818608E-02  0.1159205E+00
         21   -1    0    0  503  502  0.00000000000E+00  0.00000000000E+00  0.55498719783E+03  0.55498719783E+03  0.00000000000E+00 0.  1.
         21   -1    0    0  501  503 -0.00000000000E+00 -0.00000000000E+00 -0.28674740557E+03  0.28674740557E+03  0.00000000000E+00 0.  1.
          6    2    1    2  501    0  0.46348961405E+02  0.62508809361E+02 -0.23675068346E+03  0.30233826787E+03  0.17117816633E+03 0.  0.
         24    2    3    3    0    0  0.50270074405E+01  0.53332845107E+02 -0.24109482909E+03  0.25952864511E+03  0.79741694535E+02 0.  0.
         -6    2    1    2    0  502 -0.46348961405E+02 -0.62508809361E+02  0.50499047572E+03  0.53939633554E+03  0.17285094374E+03 0.  0.
        -24    2    5    5    0    0 -0.82603629576E+02 -0.44635824103E+02  0.23418641167E+03  0.26555189854E+03  0.82817987155E+02 0.  0.
          5    1    3    3  501    0  0.41321953964E+02  0.91759642542E+01  0.43441456315E+01  0.42809622758E+02  0.47000000000E+01 0. -1.
        -11    1    4    4    0    0  0.40265729243E+02  0.42568014376E+02 -0.13328618281E+03  0.14559729162E+03  0.00000000000E+00 0.  1.
         12    1    4    4    0    0 -0.35238721802E+02  0.10764830731E+02 -0.10780864628E+03  0.11393135349E+03  0.00000000000E+00 0. -1.
         -5    1    5    5    0  502  0.36254668171E+02 -0.17872985258E+02  0.27080406405E+03  0.27384443699E+03  0.47000000000E+01 0.  1.
         11    1    6    6    0    0 -0.45146324476E+01 -0.41293219627E+02  0.47133176366E+02  0.62825537862E+02  0.00000000000E+00 0. -1.
        -12    1    6    6    0    0 -0.78088997128E+02 -0.33426044757E+01  0.18705323530E+03  0.20272636068E+03  0.00000000000E+00 0.  1.
</event>
<event>
12    1  0.1594973E-001  0.1771621E+03  0.7818608E-02  0.1172434E+00
         21   -1    0    0  503  502  0.00000000000E+00  0.00000000000E+00  0.80454182020E+02  0.80454182020E+02  0.00000000000E+00 0.  1.
         21   -1    0    0  501  503 -0.00000000000E+00 -0.00000000000E+00 -0.55899905080E+03  0.55899905080E+03  0.00000000000E+00 0.  1.
          6    2    1    2  501    0  0.38729819965E+02 -0.18483868831E+02 -0.41973353504E+03  0.45278454160E+03  0.16430443789E+03 0.  0.
         24    2    3    3    0    0  0.47282658354E+02  0.47861040538E+02 -0.26055640232E+03  0.28005860948E+03  0.77568401902E+02 0.  0.
         -6    2    1    2    0  502 -0.38729819965E+02  0.18483868831E+02 -0.58811333744E+02  0.18666869123E+03  0.17188593586E+03 0.  0.
        -24    2    5    5    0    0 -0.47437708150E+01  0.74082797657E+02 -0.20255105389E+02  0.11080720450E+03  0.79732070113E+02 0.  0.
          5    1    3    3  501    0 -0.85528383883E+01 -0.66344909369E+02 -0.15917713272E+03  0.17272593212E+03  0.47000000000E+01 0. -1.
        -13    1    4    4    0    0  0.32440115675E+02 -0.15698834984E+02 -0.71822880144E+02  0.80357579836E+02  0.00000000000E+00 0.  1.
         14    1    4    4    0    0  0.14842542679E+02  0.63559875522E+02 -0.18873352217E+03  0.19970102965E+03  0.00000000000E+00 0. -1.
         -5    1    5    5    0  502 -0.33986049151E+02 -0.55598928826E+02 -0.38556228355E+02  0.75861486727E+02  0.47000000000E+01 0.  1.
         13    1    6    6    0    0  0.23777569301E+02  0.33662798815E+02  0.21125323020E+02  0.46312375221E+02  0.00000000000E+00 0. -1.
        -14    1    6    6    0    0 -0.28521340116E+02  0.40419998843E+02 -0.41380428409E+02  0.64494829279E+02  0.00000000000E+00 0.  1.
</event>
<event>
12    1  0.1594973E-001  0.2286499E+03  0.7818608E-02  0.1128069E+00
         21   -1    0    0  501  502  0.00000000000E+00  0.00000000000E+00  0.43641799022E+03  0.43641799022E+03  0.00000000000E+00 0.  1.
         21   -1    0    0  502  503 -0.00000000000E+00 -0.00000000000E+00 -0.16648545633E+03  0.16648545633E+03  0.00000000000E+00 0.  1.
         -6    2    1    2    0  503 -0.13184484436E+03 -0.69783797815E+02 -0.26471818444E+02  0.23017721748E+03  0.17328575491E+03 0.  0.
        -24    2    3    3    0    0 -0.15037622316E+03 -0.68104520091E+02 -0.58981499072E+02  0.19242537900E+03  0.79356632388E+02 0.  0.
          6    2    1    2  501    0  0.13184484436E+03  0.69783797815E+02  0.29640435234E+03  0.37272622907E+03  0.16975411727E+03 0.  0.
         24    2    5    5    0    0  0.55730174843E+02  0.89094657325E+02  0.24698957020E+03  0.27982702076E+03  0.79092372634E+02 0.  0.
          5    1    5    5  501    0  0.76114669517E+02 -0.19310859510E+02  0.49414782143E+02  0.92899208312E+02  0.47000000000E+01 0. -1.
        -13    1    6    6    0    0  0.71178149403E+02  0.87463324604E+02  0.23329244148E+03  0.25911681797E+03  0.00000000000E+00 0.  1.
         14    1    6    6    0    0 -0.15447974560E+02  0.16313327206E+01  0.13697128717E+02  0.20710202789E+02  0.00000000000E+00 0. -1.
         -5    1    3    3    0  503  0.18531378799E+02 -0.16792777236E+01  0.32509680628E+02  0.37751838477E+02  0.47000000000E+01 0.  1.
         13    1    4    4    0    0 -0.60066880541E+01  0.15065988318E+02 -0.86189453978E+01  0.18367104430E+02  0.00000000000E+00 0. -1.
        -14    1    4    4    0    0 -0.14436953510E+03 -0.83170508409E+02 -0.50362553674E+02  0.17405827457E+03  0.00000000000E+00 0.  1.
</event>
<event>
12    1  0.1594973E-001  0.1852820E+03  0.7818608E-02  0.1162787E+00
         21   -1    0    0  503  502  0.00000000000E+00  0.00000000000E+00  0.36018383006E+02  0.36018383006E+02  0.00000000000E+00 0. -1.
         21   -1    0    0  501  503 -0.00000000000E+00 -0.00000000000E+00 -0.11507914785E+04  0.11507914785E+04  0.00000000000E+00 0. -1.
          6    2    1    2  501    0 -0.65492211338E+02 -0.25367513621E+02 -0.80333483840E+03  0.82442481225E+03  0.17145456535E+03 0.  0.
         24    2    3    3    0    0  0.21381943785E+02 -0.51537259791E+02 -0.38372032451E+03  0.39508764322E+03  0.75760687168E+02 0.  0.
         -6    2    1    2    0  502  0.65492211338E+02  0.25367513621E+02 -0.31143825711E+03  0.36238504926E+03  0.17145377058E+03 0.  0.
        -24    2    5    5    0    0  0.78450879477E+02  0.59832794998E+02 -0.14828737199E+03  0.19506474561E+03  0.79539967567E+02 0.  0.
          5    1    3    3  501    0 -0.86874155123E+02  0.26169746170E+02 -0.41961451389E+03  0.42933716903E+03  0.47000000000E+01 0. -1.
        -11    1    4    4    0    0  0.15374548695E+02  0.18346701116E+02 -0.10034645323E+03  0.10316195455E+03  0.00000000000E+00 0.  1.
         12    1    4    4    0    0  0.60073950903E+01 -0.69883960908E+02 -0.28337387127E+03  0.29192568868E+03  0.00000000000E+00 0. -1.
         -5    1    5    5    0  502 -0.12958668140E+02 -0.34465281377E+02 -0.16315088511E+03  0.16732030365E+03  0.47000000000E+01 0.  1.
         13    1    6    6    0    0  0.54899942120E+02  0.53717916180E+02 -0.15214032126E+03  0.17042973777E+03  0.00000000000E+00 0. -1.
        -14    1    6    6    0    0  0.23550937357E+02  0.61148788177E+01  0.38529492669E+01  0.24635007843E+02  0.00000000000E+00 0.  1.
</event>
<event>
12    1  0.1594973E-001  0.2121520E+03  0.7818608E-02  0.1139997E+00
         21   -1    0    0  501  502  0.00000000000E+00  0.00000000000E+00  0.74848729635E+02  0.74848729635E+02  0.00000000000E+00 0. -1.
         21   -1    0    0  502  503 -0.00000000000E+00 -0.00000000000E+00 -0.60549700375E+03  0.60549700375E+03  0.00000000000E+00 0.  1.
         -6    2    1    2    0  503  0.72506241325E+02  0.10063850063E+03 -0.23116411742E+03  0.31333179168E+03  0.17133213257E+03 0.  0.
        -24    2    3    3    0    0  0.52581096558E+02 -0.12574824782E+02 -0.11380932059E+03  0.14898914114E+03  0.79512922167E+02 0.  0.
          6    2    1    2  501    0 -0.72506241325E+02 -0.10063850063E+03 -0.29948415669E+03  0.36701394171E+03  0.17211394615E+03 0.  0.
         24    2    5    5    0    0 -0.28227186646E+02  0.47534683657E+01 -0.19504398259E+03  0.21210125089E+03  0.78265036607E+02 0.  0.
          5    1    5    5  501    0 -0.44279054679E+02 -0.10539196900E+03 -0.10444017410E+03  0.15491269082E+03  0.47000000000E+01 0. -1.
        -13    1    6    6    0    0  0.64092394145E+01  0.35545146855E+02 -0.70489713980E+02  0.79204391241E+02  0.00000000000E+00 0.  1.
         14    1    6    6    0    0 -0.34636426060E+02 -0.30791678489E+02 -0.12455426861E+03  0.13289685965E+03  0.00000000000E+00 0. -1.
         -5    1    3    3    0  503  0.19925144767E+02  0.11321332541E+03 -0.11735479683E+03  0.16434265054E+03  0.47000000000E+01 0.  1.
         11    1    4    4    0    0  0.33465326198E+01  0.12857802288E+02  0.77593215146E+01  0.15386014124E+02  0.00000000000E+00 0. -1.
        -12    1    4    4    0    0  0.49234563939E+02 -0.25432627070E+02 -0.12156864210E+03  0.13360312702E+03  0.00000000000E+00 0.  1.
</event>
<event>
12    1  0.1594973E-001  0.2042261E+03  0.7818608E-02  0.1146987E+00
         21   -1    0    0  501  502  0.00000000000E+00  0.00000000000E+00  0.13319459286E+03  0.13319459286E+03  0.00000000000E+00 0. -1.
         21   -1    0    0  502  503 -0.00000000000E+00 -0.00000000000E+00 -0.36234252405E+03  0.36234252405E+03  0.00000000000E+00 0. -1.
         -6    2    1    2    0  503  0.86970181386E+02  0.67918847127E+02 -0.21007194331E+03  0.29042204559E+03  0.16744539693E+03 0.  0.
        -24    2    3    3    0    0  0.25651327924E+02 -0.24151005383E+02 -0.11584998833E+03  0.14503729284E+03  0.79833168752E+02 0.  0.
          6    2    1    2  501    0 -0.86970181386E+02 -0.67918847127E+02 -0.19075987880E+02  0.20511507133E+03  0.17184736520E+03 0.  0.
         24    2    5    5    0    0 -0.22542283971E+02 -0.36275887564E+02 -0.68044077724E+02  0.11809671305E+03  0.86560629238E+02 0.  0.
          5    1    5    5  501    0 -0.64427897416E+02 -0.31642959563E+02  0.48968089844E+02  0.87018358283E+02  0.47000000000E+01 0. -1.
        -11    1    6    6    0    0  0.20994532706E+02 -0.66220952041E+01 -0.61124374787E+02  0.64967774639E+02  0.00000000000E+00 0.  1.
         12    1    6    6    0    0 -0.43536816677E+02 -0.29653792360E+02 -0.69197029373E+01  0.53128938409E+02  0.00000000000E+00 0. -1.
         -5    1    3    3    0  503  0.61318853463E+02  0.92069852510E+02 -0.94221954977E+02  0.14538475275E+03  0.47000000000E+01 0.  1.
         11    1    4    4    0    0  0.12821385759E+02  0.19527614018E+02 -0.32534458855E+01  0.23586024509E+02  0.00000000000E+00 0. -1.
        -12    1    4    4    0    0  0.12829942164E+02 -0.43678619400E+02 -0.11259654245E+03  0.12145126833E+03  0.00000000000E+00 0.  1.
</event>
<event>
12    1  0.1594973E-001  0.1734796E+03  0.7818608E-02  0.1174584E+00
         21   -1    0    0  501  502  0.00000000000E+00  0.00000000000E+00  0.19859356233E+03  0.19859356233E+03  0.00000000000E+00 0. -1.
         21   -1    0    0  502  503 -0.00000000000E+00 -0.00000000000E+00 -0.21097306064E+03  0.21097306064E+03  0.00000000000E+00 0. -1.
         -6    2    1    2    0  503  0.16417739910E+02  0.23216253174E+02 -0.11585055522E+03  0.20757295410E+03  0.16987243312E+03 0.  0.
        -24    2    3    3    0    0  0.29173653569E+02 -0.48560597030E+02 -0.79824197295E+02  0.12611978950E+03  0.79530278403E+02 0.  0.
          6    2    1    2  501    0 -0.16417739910E+02 -0.23216253174E+02  0.10347105691E+03  0.20199366887E+03  0.17113341594E+03 0.  0.
         24    2    5    5    0    0 -0.44419608093E+01  0.42851333235E+02  0.16022299926E+02  0.91640959989E+02  0.79280411685E+02 0.  0.
          5    1    5    5  501    0 -0.11975779101E+02 -0.66067586409E+02  0.87448756982E+02  0.11035270888E+03  0.47000000000E+01 0. -1.
        -13    1    6    6    0    0  0.33729509465E+02  0.12735889634E+02 -0.87100499772E+01  0.37091072566E+02  0.00000000000E+00 0.  1.
         14    1    6    6    0    0 -0.38171470274E+02  0.30115443601E+02  0.24732349903E+02  0.54549887423E+02  0.00000000000E+00 0. -1.
         -5    1    3    3    0  503 -0.12755913659E+02  0.71776850204E+02 -0.36026357926E+02  0.81453164603E+02  0.47000000000E+01 0.  1.
         11    1    4    4    0    0  0.20049629534E+02 -0.42548997959E+01 -0.78214842658E+02  0.80855756930E+02  0.00000000000E+00 0. -1.
        -12    1    4    4    0    0  0.91240240349E+01 -0.44305697234E+02 -0.16093546371E+01  0.45264032568E+02  0.00000000000E+00 0.  1.
</event>
<event>
12    1  0.1594973E-001  0.1895310E+03  0.7818608E-02  0.1159543E+00
         21   -1    0    0  503  502  0.00000000000E+00  0.00000000000E+00  0.10050883607E+04  0.10050883607E+04  0.00000000000E+00 0.  1.
         21   -1    0    0  501  503 -0.00000000000E+00 -0.00000000000E+00 -0.38837032872E+02  0.38837032872E+02  0.00000000000E+00 0.  1.
          6    2    1    2  501    0  0.55165931928E+02  0.48806186989E+02  0.32671644892E+03  0.37771102957E+03  0.17463292911E+03 0.  0.
         24    2    3    3    0    0  0.73943066562E+02  0.66714362898E+02  0.32624332548E+03  0.35133684910E+03  0.84169417305E+02 0.  0.
         -6    2    1    2    0  502 -0.55165931928E+02 -0.48806186989E+02  0.63953487892E+03  0.66621436401E+03  0.17149750300E+03 0.  0.
        -24    2    5    5    0    0  0.11462232602E+02  0.13252280465E+01  0.47323559651E+03  0.48012295526E+03  0.80205881082E+02 0.  0.
          5    1    3    3  501    0 -0.18777134634E+02 -0.17908175909E+02  0.47312344374E+00  0.26374180466E+02  0.47000000000E+01 0. -1.
        -13    1    4    4    0    0  0.28361849998E+02  0.32368780650E+02  0.26154969423E+03  0.26506673697E+03  0.00000000000E+00 0.  1.
         14    1    4    4    0    0  0.45581216565E+02  0.34345582247E+02  0.64693631247E+02  0.86270112132E+02  0.00000000000E+00 0. -1.
         -5    1    5    5    0  502 -0.66628164530E+02 -0.50131415036E+02  0.16629928241E+03  0.18609140875E+03  0.47000000000E+01 0.  1.
         13    1    6    6    0    0  0.21783701595E+01 -0.28306539025E+02  0.39397714241E+03  0.39499872682E+03  0.00000000000E+00 0. -1.
        -14    1    6    6    0    0  0.92838624424E+01  0.29631767071E+02  0.79258454105E+02  0.85124228447E+02  0.00000000000E+00 0.  1.
</event>
<event>
12    1  0.1594973E-001  0.2019126E+03  0.7818608E-02  0.1148198E+00
         21   -1    0    0  503  502  0.00000000000E+00  0.00000000000E+00  0.17649083954E+03  0.17649083954E+03  0.00000000000E+00 0. -1.
         21   -1    0    0  501  503 -0.00000000000E+00 -0.00000000000E+00 -0.39526058452E+03  0.39526058452E+03  0.00000000000E+00 0. -1.
          6    2    1    2  501    0  0.10234253455E+03  0.26033407462E+02 -0.29391798201E+03  0.35659006585E+03  0.17209579377E+03 0.  0.
         24    2    3    3    0    0  0.70619609742E+02  0.76876814750E+02 -0.13684570854E+03  0.18840806588E+03  0.76639920508E+02 0.  0.
         -6    2    1    2    0  502 -0.10234253455E+03 -0.26033407462E+02  0.75148237028E+02  0.21516135822E+03  0.17174230655E+03 0.  0.
        -24    2    5    5    0    0 -0.63645293584E+02 -0.80510951214E+02  0.25105791809E+02  0.13154547722E+03  0.78365650216E+02 0.  0.
          5    1    3    3  501    0  0.31722924805E+02 -0.50843407288E+02 -0.15707227347E+03  0.16818199998E+03  0.47000000000E+01 0. -1.
        -13    1    4    4    0    0  0.35676726456E+02  0.69960311687E+01 -0.72339181145E+01  0.37068893078E+02  0.00000000000E+00 0.  1.
         14    1    4    4    0    0  0.34942883286E+02  0.69880783582E+02 -0.12961179042E+03  0.15133917280E+03  0.00000000000E+00 0. -1.
         -5    1    5    5    0  502 -0.38697240962E+02  0.54477543752E+02  0.50042445220E+02  0.83615880997E+02  0.47000000000E+01 0.  1.
         11    1    6    6    0    0  0.27982377221E+01 -0.47328378499E+02  0.31625840710E+02  0.56991221660E+02  0.00000000000E+00 0. -1.
        -12    1    6    6    0    0 -0.66443531306E+02 -0.33182572716E+02 -0.65200489009E+01  0.74554255560E+02  0.00000000000E+00 0.  1.
</event>
<event>
12    1  0.1594973E-001  0.2325089E+03  0.7818608E-02  0.1125069E+00
         21   -1    0    0  501  502  0.00000000000E+00  0.00000000000E+00  0.12828780825E+03  0.12828780825E+03  0.00000000000E+00 0. -1.
         21   -1    0    0  502  503 -0.00000000000E+00 -0.00000000000E+00 -0.41950808942E+03  0.41950808942E+03  0.00000000000E+00 0. -1.
         -6    2    1    2    0  503 -0.47823381473E+02  0.14770297543E+03 -0.14638894254E+03  0.27386797131E+03  0.17167031905E+03 0.  0.
        -24    2    3    3    0    0 -0.92739247564E+01  0.14236044544E+03 -0.51546360035E+02  0.17124337047E+03  0.79465480499E+02 0.  0.
          6    2    1    2  501    0  0.47823381473E+02 -0.14770297543E+03 -0.14483133863E+03  0.27392792635E+03  0.17308133181E+03 0.  0.
         24    2    5    5    0    0  0.36567049908E+01 -0.10372579136E+03 -0.16200559101E+03  0.20910715056E+03  0.81899802255E+02 0.  0.
          5    1    5    5  501    0  0.44166676482E+02 -0.43977184066E+02  0.17174252387E+02  0.64820775797E+02  0.47000000000E+01 0. -1.
        -11    1    6    6    0    0  0.33521475367E+02 -0.18378144004E+02 -0.72031966515E+02  0.81547836806E+02  0.00000000000E+00 0.  1.
         12    1    6    6    0    0 -0.29864770376E+02 -0.85347647357E+02 -0.89973624499E+02  0.12755931375E+03  0.00000000000E+00 0. -1.
         -5    1    3    3    0  503 -0.38549456716E+02  0.53425299860E+01 -0.94842582510E+02  0.10262460084E+03  0.47000000000E+01 0.  1.
         11    1    4    4    0    0  0.75952779075E+01  0.72449890478E+02  0.13718218695E+02  0.74127352583E+02  0.00000000000E+00 0. -1.
        -12    1    4    4    0    0 -0.16869202664E+02  0.69910554963E+02 -0.65264578729E+02  0.97116017888E+02  0.00000000000E+00 0.  1.
</event>
<event>
12    1  0.1594973E-001  0.1838347E+03  0.7818608E-02  0.1165972E+00
         21   -1    0    0  501  502  0.00000000000E+00  0.00000000000E+00  0.74134626942E+03  0.74134626942E+03  0.00000000000E+00 0. -1.
         21   -1    0    0  502  503 -0.00000000000E+00 -0.00000000000E+00 -0.46160507355E+02  0.46160507355E+02  0.00000000000E+00 0.  1.
         -6    2    1    2    0  503 -0.59820866353E+02 -0.25814543125E+02  0.44503035842E+03  0.48150516881E+03  0.17190195168E+03 0.  0.
        -24    2    3    3    0    0 -0.43184873372E+02  0.31806212446E+02  0.38039562166E+03  0.39320654521E+03  0.83868884426E+02 0.  0.
          6    2    1    2  501    0  0.59820866353E+02  0.25814543125E+02  0.25015540365E+03  0.30600160797E+03  0.16375082111E+03 0.  0.
         24    2    5    5    0    0  0.26315674773E+02 -0.73675941448E+01  0.43119109092E+02  0.93611002334E+02  0.78466336775E+02 0.  0.
          5    1    5    5  501    0  0.33505191580E+02  0.33182137269E+02  0.20703629456E+03  0.21239060563E+03  0.47000000000E+01 0. -1.
        -13    1    6    6    0    0 -0.16195992364E+02  0.19963435618E+02 -0.21033396777E+01  0.25792885998E+02  0.00000000000E+00 0.  1.
         14    1    6    6    0    0  0.42511667137E+02 -0.27331029763E+02  0.45222448770E+02  0.67818116336E+02  0.00000000000E+00 0. -1.
         -5    1    3    3    0  503 -0.16635992981E+02 -0.57620755571E+02  0.64634736756E+02  0.88298623605E+02  0.47000000000E+01 0.  1.
         13    1    4    4    0    0 -0.29563124643E+02  0.49732055846E+01  0.34684299824E+03  0.34813614656E+03  0.00000000000E+00 0. -1.
        -14    1    4    4    0    0 -0.13621748729E+02  0.26833006861E+02  0.33552623418E+02  0.45070398644E+02  0.00000000000E+00 0.  1.
</event>
<event>
12    1  0.1594973E-001  0.1972640E+03  0.7818608E-02  0.1152302E+00
         21   -1    0    0  501  502  0.00000000000E+00  0.00000000000E+00  0.11133462389E+03  0.11133462389E+03  0.00000000000E+00 0.  1.
         21   -1    0    0  502  503 -0.00000000000E+00 -0.00000000000E+00 -0.57955427017E+03  0.57955427017E+03  0.00000000000E+00 0. -1.
         -6    2    1    2    0  503 -0.17587653208E+02 -0.96550668172E+02 -0.45303926740E+03  0.49412311353E+03  0.17111901254E+03 0.  0.
        -24    2    3    3    0    0 -0.83160148764E+01 -0.12923260931E+03 -0.42169903719E+03  0.44766482489E+03  0.76180667267E+02 0.  0.
          6    2    1    2  501    0  0.17587653208E+02  0.96550668172E+02 -0.15180378886E+02  0.19676578052E+03  0.16986751135E+03 0.  0.
         24    2    5    5    0    0  0.21178045827E+02  0.11749938849E+03  0.33580548703E+02  0.14336673688E+03  0.71914894645E+02 0.  0.
          5    1    5    5  501    0 -0.35903926195E+01 -0.20948720323E+02 -0.48760927589E+02  0.53399043640E+02  0.47000000000E+01 0. -1.
        -13    1    6    6    0    0 -0.14690566106E+02  0.96732142302E+02  0.25940368795E+02  0.10122165193E+03  0.00000000000E+00 0.  1.
         14    1    6    6    0    0  0.35868611933E+02  0.20767246192E+02  0.76401799077E+01  0.42145084950E+02  0.00000000000E+00 0. -1.
         -5    1    3    3    0  503 -0.92716383314E+01  0.32681941139E+02 -0.31340230211E+02  0.46458288643E+02  0.47000000000E+01 0.  1.
         11    1    4    4    0    0  0.14254129080E+02 -0.31562232330E+01 -0.13650107029E+02  0.19986679635E+02  0.00000000000E+00 0. -1.
        -12    1    4    4    0    0 -0.22570143956E+02 -0.12607638608E+03 -0.40804893016E+03  0.42767814526E+03  0.00000000000E+00 0.  1.
</event>
<event>
12    1  0.1594973E-001  0.2712398E+03  0.7818608E-02  0.1100626E+00
         21   -1    0    0  503  502  0.00000000000E+00  0.00000000000E+00  0.14400643332E+04  0.14400643332E+04  0.00000000000E+00 0.  1.
         21   -1    0    0  501  503 -0.00000000000E+00 -0.00000000000E+00 -0.51055271662E+02  0.51055271662E+02  0.00000000000E+00 0. -1.
          6    2    1    2  501    0  0.13292495389E+03  0.16122589348E+03  0.71542644431E+03  0.76511832292E+03  0.17293992815E+03 0.  0.
         24    2    3    3    0    0  0.10966721934E+03  0.10096314912E+03  0.65534644648E+03  0.67677684504E+03  0.79545437266E+02 0.  0.
         -6    2    1    2    0  502 -0.13292495389E+03 -0.16122589348E+03  0.67358261721E+03  0.72600128193E+03  0.17234119373E+03 0.  0.
        -24    2    5    5    0    0 -0.14341544803E+03 -0.69092630836E+02  0.42283374570E+03  0.45861452998E+03  0.78721840926E+02 0.  0.
          5    1    3    3  501    0  0.23257734552E+02  0.60262744363E+02  0.60079997834E+02  0.88341477882E+02  0.47000000000E+01 0. -1.
        -11    1    4    4    0    0  0.73082458858E+02  0.61951249717E+02  0.24678537194E+03  0.26473009450E+03  0.00000000000E+00 0.  1.
         12    1    4    4    0    0  0.36584760478E+02  0.39011899400E+02  0.40856107454E+03  0.41204675053E+03  0.00000000000E+00 0. -1.
         -5    1    5    5    0  502  0.10490494139E+02 -0.92133262643E+02  0.25074887151E+03  0.26738675195E+03  0.47000000000E+01 0.  1.
         13    1    6    6    0    0 -0.13500717091E+02 -0.29022972598E+02  0.33994258861E+02  0.46692739649E+02  0.00000000000E+00 0. -1.
        -14    1    6    6    0    0 -0.12991473094E+03 -0.40069658238E+02  0.38883948684E+03  0.41192179033E+03  0.00000000000E+00 0.  1.
</event>
<event>
12    1  0.1594973E-001  0.1777215E+03  0.7818608E-02  0.1170501E+00
         21   -1    0    0  501  502  0.00000000000E+00  0.00000000000E+00  0.38415642013E+03  0.38415642013E+03  0.00000000000E+00 0.  1.
         21   -1    0    0  502  503 -0.00000000000E+00 -0.00000000000E+00 -0.83797502278E+02  0.83797502278E+02  0.00000000000E+00 0.  1.
         -6    2    1    2    0  503 -0.41968677127E+02  0.18711075745E+02  0.10928198675E+03  0.20700310923E+03  0.16969460919E+03 0.  0.
        -24    2    3    3    0    0  0.78575098952E+01  0.67663640771E+02  0.72109351991E+02  0.12773837993E+03  0.80481217178E+02 0.  0.
          6    2    1    2  501    0  0.41968677127E+02 -0.18711075745E+02  0.19107693111E+03  0.26095081318E+03  0.17167835939E+03 0.  0.
         24    2    5    5    0    0  0.64465825276E+02  0.43649145528E+01  0.20136813840E+03  0.22679496521E+03  0.81926393630E+02 0.  0.
          5    1    5    5  501    0 -0.22497148149E+02 -0.23075990298E+02 -0.10291207295E+02  0.34155847972E+02  0.47000000000E+01 0. -1.
        -11    1    6    6    0    0  0.27779379129E+02 -0.38251238983E+02  0.10636372742E+03  0.11639627872E+03  0.00000000000E+00 0.  1.
         12    1    6    6    0    0  0.36686446147E+02  0.42616153536E+02  0.95004410981E+02  0.11039868649E+03  0.00000000000E+00 0. -1.
         -5    1    3    3    0  503 -0.49826187022E+02 -0.48952565026E+02  0.37172634755E+02  0.79264729296E+02  0.47000000000E+01 0.  1.
         13    1    4    4    0    0 -0.31161477736E+02  0.48960325722E+02  0.58438171101E+02  0.82360008689E+02  0.00000000000E+00 0. -1.
        -14    1    4    4    0    0  0.39018987631E+02  0.18703315049E+02  0.13671180889E+02  0.45378371241E+02  0.00000000000E+00 0.  1.
</event>
<event>
12    1  0.1594973E-001  0.2069316E+03  0.7818608E-02  0.1144316E+00
         21   -1    0    0  503  502  0.00000000000E+00  0.00000000000E+00  0.47923064745E+03  0.47923064745E+03  0.00000000000E+00 0. -1.
         21   -1    0    0  501  503 -0.00000000000E+00 -0.00000000000E+00 -0.94388120681E+02  0.94388120681E+02  0.00000000000E+00 0.  1.
          6    2    1    2  501    0  0.79794800037E+02  0.82344414831E+02  0.12278393472E+03  0.24061706667E+03  0.17225813589E+03 0.  0.
         24    2    3    3    0    0  0.53372789002E+02  0.54024326449E+01  0.12707097067E+03  0.15901645413E+03  0.79128757175E+02 0.  0.
         -6    2    1    2    0  502 -0.79794800037E+02 -0.82344414831E+02  0.26205859205E+03  0.33300170146E+03  0.17049227180E+03 0.  0.
        -24    2    5    5    0    0 -0.58414161641E+02 -0.99071968814E+02  0.27020601799E+03  0.30427169433E+03  0.79639830022E+02 0.  0.
          5    1    3    3  501    0  0.26422011034E+02  0.76941982186E+02 -0.42870359510E+01  0.81600612541E+02  0.47000000000E+01 0. -1.
        -13    1    4    4    0    0  0.15976937022E+02 -0.28850376097E+02  0.15455825269E+02  0.36421000154E+02  0.00000000000E+00 0.  1.
         14    1    4    4    0    0  0.37395851981E+02  0.34252808741E+02  0.11161514540E+03  0.12259545398E+03  0.00000000000E+00 0. -1.
         -5    1    5    5    0  502 -0.21380638395E+02  0.16727553983E+02 -0.81474259412E+01  0.28730007134E+02  0.47000000000E+01 0.  1.
         13    1    6    6    0    0 -0.59223993684E+02 -0.31126857609E+02  0.17458690508E+03  0.18696777829E+03  0.00000000000E+00 0. -1.
        -14    1    6    6    0    0  0.80983204286E+00 -0.67945111205E+02  0.95619112913E+02  0.11730391604E+03  0.00000000000E+00 0.  1.
</event>
<event>
12    1  0.1594973E-001  0.2126659E+03  0.7818608E-02  0.1139648E+00
         21   -1    0    0  503  502  0.00000000000E+00  0.00000000000E+00  0.68741029342E+03  0.68741029342E+03  0.00000000000E+00 0. -1.
         21   -1    0    0  501  503 -0.00000000000E+00 -0.00000000000E+00 -0.74026399229E+02  0.74026399229E+02  0.00000000000E+00 0.  1.
          6    2    1    2  501    0  0.24877392170E+02  0.12119872456E+03  0.43637351482E+03  0.48543654475E+03  0.17297045722E+03 0.  0.
         24    2    3    3    0    0 -0.49331511365E+02  0.36980762598E+02  0.20858454390E+03  0.23144927784E+03  0.79120676467E+02 0.  0.
         -6    2    1    2    0  502 -0.24877392170E+02 -0.12119872456E+03  0.17701037937E+03  0.27600014789E+03  0.17185863887E+03 0.  0.
        -24    2    5    5    0    0 -0.61573930037E+02 -0.76215601663E+02  0.45588003993E+02  0.13225019837E+03  0.76234388989E+02 0.  0.
          5    1    3    3  501    0  0.74208903535E+02  0.84217961961E+02  0.22778897092E+03  0.25398726691E+03  0.47000000000E+01 0. -1.
        -13    1    4    4    0    0 -0.44647800615E+01  0.44662767034E+02  0.53566022148E+02  0.69885733514E+02  0.00000000000E+00 0.  1.
         14    1    4    4    0    0 -0.44866731304E+02 -0.76820044361E+01  0.15501852175E+03  0.16156354433E+03  0.00000000000E+00 0. -1.
         -5    1    5    5    0  502  0.36696537867E+02 -0.44983122895E+02  0.13142237538E+03  0.14374994952E+03  0.47000000000E+01 0.  1.
         13    1    6    6    0    0 -0.37300129673E+02 -0.64574457068E+01  0.44444229873E+02  0.58380543400E+02  0.00000000000E+00 0. -1.
        -14    1    6    6    0    0 -0.24273800364E+02 -0.69758155956E+02  0.11437741200E+01  0.73869654973E+02  0.00000000000E+00 0.  1.
</event>
<event>
12    1  0.1594973E-001  0.1847518E+03  0.7818608E-02  0.1163898E+00
         21   -1    0    0  501  502  0.00000000000E+00  0.00000000000E+00  0.72445938144E+02  0.72445938144E+02  0.00000000000E+00 0.  1.
         21   -1    0    0  502  503 -0.00000000000E+00 -0.00000000000E+00 -0.93671893527E+03  0.93671893527E+03  0.00000000000E+00 0. -1.
         -6    2    1    2    0  503 -0.65838922780E+02 -0.41602999449E+01 -0.79191560920E+03  0.81318112756E+03  0.17257213646E+03 0.  0.
        -24    2    3    3    0    0 -0.59440690135E+02 -0.35692955459E+02 -0.76089383051E+03  0.76824020526E+03  0.80164886009E+02 0.  0.
          6    2    1    2  501    0  0.65838922780E+02  0.41602999449E+01 -0.72357387932E+02  0.19598374586E+03  0.16977033075E+03 0.  0.
         24    2    5    5    0    0  0.54170296117E+02 -0.62388633487E+02 -0.58500585574E+02  0.12685330133E+03  0.76437418688E+02 0.  0.
          5    1    5    5  501    0  0.11668626663E+02  0.66548933432E+02 -0.13856802358E+02  0.69130444528E+02  0.47000000000E+01 0. -1.
        -11    1    6    6    0    0 -0.11322979137E+01  0.30866418342E+01  0.14132740457E+02  0.14510127815E+02  0.00000000000E+00 0.  1.
         12    1    6    6    0    0  0.55302594030E+02 -0.65475275321E+02 -0.72633326031E+02  0.11234317351E+03  0.00000000000E+00 0. -1.
         -5    1    3    3    0  503 -0.63982326443E+01  0.31532655514E+02 -0.31021778686E+02  0.44940922304E+02  0.47000000000E+01 0.  1.
         11    1    4    4    0    0 -0.46534751418E+02 -0.24671183416E+02 -0.19200142332E+03  0.19909469339E+03  0.00000000000E+00 0. -1.
        -12    1    4    4    0    0 -0.12905938717E+02 -0.11021772043E+02 -0.56889240719E+03  0.56914551186E+03  0.00000000000E+00 0.  1.
</event>
<event>
12    1  0.1594973E-001  0.2193422E+03  0.7818608E-02  0.1134395E+00
         21   -1    0    0  503  502  0.00000000000E+00  0.00000000000E+00  0.19244094777E+03  0.19244094777E+03  0.00000000000E+00 0. -1.
         21   -1    0    0  501  503 -0.00000000000E+00 -0.00000000000E+00 -0.29248090184E+03  0.29248090184E+03  0.00000000000E+00 0.  1.
          6    2    1    2  501    0  0.10242930117E+03 -0.91802465808E+02 -0.14254591814E+03  0.26149899436E+03  0.17071300713E+03 0.  0.
         24    2    3    3    0    0  0.67326836671E+02 -0.96605920279E+02 -0.33460924015E+02  0.14670839312E+03  0.80858595137E+02 0.  0.
         -6    2    1    2    0  502 -0.10242930117E+03  0.91802465808E+02  0.42505964068E+02  0.22342285525E+03  0.17085537978E+03 0.  0.
        -24    2    5    5    0    0 -0.62124806331E+02  0.42478347502E+02  0.90680953553E+02  0.14342135175E+03  0.81748071727E+02 0.  0.
          5    1    3    3  501    0  0.35102464499E+02  0.48034544705E+01 -0.10908499412E+03  0.11479060123E+03  0.47000000000E+01 0. -1.
        -11    1    4    4    0    0  0.32304768656E+02 -0.10214471416E+03 -0.28883995282E+02  0.11095686501E+03  0.00000000000E+00 0.  1.
         12    1    4    4    0    0  0.35022068015E+02  0.55387938845E+01 -0.45769287331E+01  0.35751528112E+02  0.00000000000E+00 0. -1.
         -5    1    5    5    0  502 -0.40304494839E+02  0.49324118306E+02 -0.48174989485E+02  0.80001503503E+02  0.47000000000E+01 0.  1.
         13    1    6    6    0    0 -0.36947150381E+02  0.64596030571E+00  0.86923544426E+02  0.94452166527E+02  0.00000000000E+00 0. -1.
        -14    1    6    6    0    0 -0.25177655950E+02  0.41832387196E+02  0.37574091275E+01  0.48969185219E+02  0.00000000000E+00 0.  1.
</event>
<event>
12    1  0.1594973E-001  0.1840054E+03  0.7818608E-02  0.1165367E+00
         21   -1    0    0  501  502  0.00000000000E+00  0.00000000000E+00  0.21340103324E+03  0.21340103324E+03  0.00000000000E+00 0. -1.
         21   -1    0    0  502  503 -0.00000000000E+00 -0.00000000000E+00 -0.70278666761E+03  0.70278666761E+03  0.00000000000E+00 0. -1.
         -6    2    1    2    0  503  0.55619813105E+02  0.19104757980E+02 -0.64873851544E+03  0.67277170960E+03  0.16823066436E+03 0.  0.
        -24    2    3    3    0    0  0.63153538890E+02 -0.15112615626E+02 -0.61595188499E+03  0.62455720123E+03  0.80363003676E+02 0.  0.
          6    2    1    2  501    0 -0.55619813105E+02 -0.19104757980E+02  0.15935288107E+03  0.24341599126E+03  0.17435437679E+03 0.  0.
         24    2    5    5    0    0  0.16911161696E+02 -0.15851012470E+02  0.15491085797E+03  0.17052462870E+03  0.67409443637E+02 0.  0.
          5    1    5    5  501    0 -0.72530974801E+02 -0.32537455108E+01  0.44420231046E+01  0.72891362552E+02  0.47000000000E+01 0. -1.
        -11    1    6    6    0    0  0.31075206331E+02 -0.31683628862E+02  0.69104459601E+02  0.82127627039E+02  0.00000000000E+00 0.  1.
         12    1    6    6    0    0 -0.14164044635E+02  0.15832616393E+02  0.85806398369E+02  0.88397001665E+02  0.00000000000E+00 0. -1.
         -5    1    3    3    0  503 -0.75337257845E+01  0.34217373606E+02 -0.32786630448E+02  0.48214508365E+02  0.47000000000E+01 0.  1.
         11    1    4    4    0    0  0.33745275864E+02  0.29840094613E+02 -0.19188478999E+03  0.19710136357E+03  0.00000000000E+00 0. -1.
        -12    1    4    4    0    0  0.29408263026E+02 -0.44952710239E+02 -0.42406709500E+03  0.42745583766E+03  0.00000000000E+00 0.  1.
</event>
<event>
12    1  0.1594973E-001  0.1735020E+03  0.7818608E-02  0.1174245E+00
         21   -1    0    0  503  502  0.00000000000E+00  0.00000000000E+00  0.15872910335E+03  0.15872910335E+03  0.00000000000E+00 0. -1.
         21   -1    0    0  501  503 -0.00000000000E+00 -0.00000000000E+00 -0.26127969007E+03  0.26127969007E+03  0.00000000000E+00 0. -1.
          6    2    1    2  501    0  0.16093995345E+02 -0.74594596405E+01 -0.16123432283E+03  0.23685322354E+03  0.17259282262E+03 0.  0.
         24    2    3    3    0    0 -0.82885743028E+00 -0.43668355730E+02 -0.26356320776E+02  0.96099422384E+02  0.81442194475E+02 0.  0.
         -6    2    1    2    0  502 -0.16093995345E+02  0.74594596405E+01  0.58683736107E+02  0.18315556988E+03  0.17259061872E+03 0.  0.
        -24    2    5    5    0    0 -0.13326863059E+02  0.71004809356E+02  0.54402163228E+02  0.11923303584E+03  0.77702208730E+02 0.  0.
          5    1    3    3  501    0  0.16922852775E+02  0.36208896090E+02 -0.13487800205E+03  0.14075380116E+03  0.47000000000E+01 0. -1.
        -13    1    4    4    0    0  0.23879525726E+01  0.23002798776E+02 -0.16990498358E+02  0.28696830896E+02  0.00000000000E+00 0.  1.
         14    1    4    4    0    0 -0.32168100029E+01 -0.66671154506E+02 -0.93658224179E+01  0.67402591488E+02  0.00000000000E+00 0. -1.
         -5    1    5    5    0  502 -0.27671322855E+01 -0.63545349715E+02  0.42815728788E+01  0.63922534038E+02  0.47000000000E+01 0.  1.
         11    1    6    6    0    0 -0.23554525234E+02  0.65635407654E+02  0.65892988971E+01  0.70044566220E+02  0.00000000000E+00 0. -1.
        -12    1    6    6    0    0  0.10227662175E+02  0.53694017012E+01  0.47812864331E+02  0.49188469622E+02  0.00000000000E+00 0.  1.
</event>
<event>
12    1  0.1594973E-001  0.1774812E+03  0.7818608E-02  0.1170934E+00
         21   -1    0    0  501  502  0.00000000000E+00  0.00000000000E+00  0.15084214367E+03  0.15084214367E+03  0.00000000000E+00 0.  1.
         21   -1    0    0  502  503 -0.00000000000E+00 -0.00000000000E+00 -0.35994608143E+03  0.35994608143E+03  0.00000000000E+00 0.  1.
         -6    2    1    2    0  503  0.31066118372E+02  0.11100571172E+02 -0.27221352471E+03  0.32496121130E+03  0.17438824338E+03 0.  0.
        -24    2    3    3    0    0  0.32341698923E+02  0.69303468010E+02 -0.12292493978E+03  0.16465408141E+03  0.78431304575E+02 0.  0.
          6    2    1    2  501    0 -0.31066118372E+02 -0.11100571172E+02  0.63109586940E+02  0.18582701380E+03  0.17164070817E+03 0.  0.
         24    2    5    5    0    0 -0.75341467771E+02 -0.35768886848E+02  0.37196918043E+02  0.12870968917E+03  0.90701837594E+02 0.  0.
          5    1    5    5  501    0  0.44275349399E+02  0.24668315676E+02  0.25912668897E+02  0.57117324623E+02  0.47000000000E+01 0. -1.
        -13    1    6    6    0    0 -0.51815685791E+02  0.12945277849E+02  0.49953407560E+02  0.73128574712E+02  0.00000000000E+00 0.  1.
         14    1    6    6    0    0 -0.23525781980E+02 -0.48714164697E+02 -0.12756489516E+02  0.55581114461E+02  0.00000000000E+00 0. -1.
         -5    1    3    3    0  503 -0.12755805514E+01 -0.58202896838E+02 -0.14928858493E+03  0.16030712990E+03  0.47000000000E+01 0.  1.
         13    1    4    4    0    0 -0.26002731831E+02  0.22890072799E+02 -0.33015816534E+02  0.47855424320E+02  0.00000000000E+00 0. -1.
        -14    1    4    4    0    0  0.58344430754E+02  0.46413395211E+02 -0.89909123244E+02  0.11679865709E+03  0.00000000000E+00 0.  1.
</event>
<event>
12    1  0.1594973E-001  0.1720621E+03  0.7818608E-02  0.1176386E+00
         21   -1    0    0  503  502  0.00000000000E+00  0.00000000000E+00  0.17409561582E+03  0.17409561582E+03  0.00000000000E+00 0.  1.
         21   -1    0    0  501  503 -0.00000000000E+00 -0.00000000000E+00 -0.17759731807E+03  0.17759731807E+03  0.00000000000E+00 0.  1.
          6    2    1    2  501    0  0.56145814338E+00 -0.37710963794E+01 -0.43676438973E+02  0.17500286680E+03  0.16942206368E+03 0.  0.
         24    2    3    3    0    0 -0.11635458817E+02 -0.54213345071E+02  0.13086301337E+02  0.97949093858E+02  0.79676238737E+02 0.  0.
         -6    2    1    2    0  502 -0.56145814338E+00  0.37710963794E+01  0.40174736719E+02  0.17669006709E+03  0.17201986494E+03 0.  0.
        -24    2    5    5    0    0  0.14117977784E+02  0.46213824263E+02  0.64902128784E+02  0.12520798372E+03  0.95549557915E+02 0.  0.
          5    1    3    3  501    0  0.12196916961E+02  0.50442248692E+02 -0.56762740310E+02  0.77053772937E+02  0.47000000000E+01 0. -1.
        -13    1    4    4    0    0 -0.32784556721E+02 -0.10014609123E+02  0.30564277599E+02  0.45927057607E+02  0.00000000000E+00 0.  1.
         14    1    4    4    0    0  0.21149097904E+02 -0.44198735948E+02 -0.17477976262E+02  0.52022036251E+02  0.00000000000E+00 0. -1.
         -5    1    5    5    0  502 -0.14679435928E+02 -0.42442727884E+02 -0.24727392064E+02  0.51482083366E+02  0.47000000000E+01 0.  1.
         13    1    6    6    0    0  0.24928605116E+02  0.61734350305E+02  0.10233038837E+02  0.67359338213E+02  0.00000000000E+00 0. -1.
        -14    1    6    6    0    0 -0.10810627331E+02 -0.15520526042E+02  0.54669089946E+02  0.57848645511E+02  0.00000000000E+00 0.  1.
</event>
<event>
12    1  0.1594973E-001  0.1982039E+03  0.7818608E-02  0.1151532E+00
         21   -1    0    0  501  502  0.00000000000E+00  0.00000000000E+00  0.39559318370E+02  0.39559318370E+02  0.00000000000E+00 0.  1.
         21   -1    0    0  502  503 -0.00000000000E+00 -0.00000000000E+00 -0.13428501712E+04  0.13428501712E+04  0.00000000000E+00 0.  1.
         -6    2    1    2    0  503  0.87108564759E+02 -0.43333009604E+02 -0.10090907524E+04  0.10283719842E+04  0.17268219212E+03 0.  0.
        -24    2    3    3    0    0  0.12848169611E+03 -0.31680666698E+02 -0.73655770425E+03  0.75243020512E+03  0.78248009622E+02 0.  0.
          6    2    1    2  501    0 -0.87108564759E+02  0.43333009604E+02 -0.29420010035E+03  0.35403750531E+03  0.17124019490E+03 0.  0.
         24    2    5    5    0    0 -0.84282574898E+02  0.26169176296E+02 -0.30825361777E+03  0.33118636213E+03  0.82920054108E+02 0.  0.
          5    1    5    5  501    0 -0.28259898609E+01  0.17163833308E+02  0.14053517428E+02  0.22851143180E+02  0.47000000000E+01 0. -1.
        -11    1    6    6    0    0  0.21718375151E+01  0.60070974125E+01  0.33296129990E+01  0.72033617317E+01  0.00000000000E+00 0.  1.
         12    1    6    6    0    0 -0.86454412413E+02  0.20162078883E+02 -0.31158323077E+03  0.32398300040E+03  0.00000000000E+00 0. -1.
         -5    1    3    3    0  503 -0.41373131347E+02 -0.11652342906E+02 -0.27253304818E+03  0.27594177908E+03  0.47000000000E+01 0.  1.
         13    1    4    4    0    0  0.24160319331E+02  0.18356120578E+02 -0.76302503516E+02  0.82114190221E+02  0.00000000000E+00 0. -1.
        -14    1    4    4    0    0  0.10432137678E+03 -0.50036787277E+02 -0.66025520073E+03  0.67031601490E+03  0.00000000000E+00 0.  1.
</event>
<event>
12    1  0.1594973E-001  0.1842768E+03  0.7818608E-02  0.1164052E+00
         21   -1    0    0  501  502  0.00000000000E+00  0.00000000000E+00  0.32396624907E+03  0.32396624907E+03  0.00000000000E+00 0.  1.
         21   -1    0    0  502  503 -0.00000000000E+00 -0.00000000000E+00 -0.13332759581E+03  0.13332759581E+03  0.00000000000E+00 0.  1.
         -6    2    1    2    0  503  0.60568728414E+02 -0.18193001560E+02 -0.11572501748E+02  0.18463981744E+03  0.17308490177E+03 0.  0.
        -24    2    3    3    0    0 -0.26520845744E+02 -0.36548407482E+02  0.12615195220E+02  0.92289129633E+02  0.79492131369E+02 0.  0.
          6    2    1    2  501    0 -0.60568728414E+02  0.18193001560E+02  0.20221115501E+03  0.27265402744E+03  0.17161384357E+03 0.  0.
         24    2    5    5    0    0 -0.91945845486E+02  0.63970984552E+01  0.79402228721E+02  0.14526568739E+03  0.79387937598E+02 0.  0.
          5    1    5    5  501    0  0.31377117072E+02  0.11795903105E+02  0.12280892629E+03  0.12738834005E+03  0.47000000000E+01 0. -1.
        -11    1    6    6    0    0 -0.13690380765E+02 -0.26737872006E+02  0.43838603654E+02  0.53142859306E+02  0.00000000000E+00 0.  1.
         12    1    6    6    0    0 -0.78255464721E+02  0.33134970462E+02  0.35563625067E+02  0.92122828083E+02  0.00000000000E+00 0. -1.
         -5    1    3    3    0  503  0.87089574158E+02  0.18355405922E+02 -0.24187696968E+02  0.92350687806E+02  0.47000000000E+01 0.  1.
         13    1    4    4    0    0 -0.29530932548E+01 -0.24917837563E+02  0.44428241405E+02  0.51024386551E+02  0.00000000000E+00 0. -1.
        -14    1    4    4    0    0 -0.23567752489E+02 -0.11630569919E+02 -0.31813046185E+02  0.41264743082E+02  0.00000000000E+00 0.  1.
</event>
<event>
12    1  0.1594973E-001  0.1870284E+03  0.7818608E-02  0.1162462E+00
         21   -1    0    0  501  502  0.00000000000E+00  0.00000000000E+00  0.46147811866E+03  0.46147811866E+03  0.00000000000E+00 0. -1.
         21   -1    0    0  502  503 -0.00000000000E+00 -0.00000000000E+00 -0.17921274213E+03  0.17921274213E+03  0.00000000000E+00 0. -1.
         -6    2    1    2    0  503 -0.59030966589E+02 -0.40368171416E+02  0.38793899531E+03  0.43066957576E+03  0.17281601524E+03 0.  0.
        -24    2    3    3    0    0 -0.29121442296E+02  0.43743293519E+02  0.22405498470E+03  0.24398969706E+03  0.81048146032E+02 0.  0.
          6    2    1    2  501    0  0.59030966589E+02  0.40368171416E+02 -0.10567361878E+03  0.21002128503E+03  0.16681661241E+03 0.  0.
         24    2    5    5    0    0  0.28079836613E+01 -0.33668591789E+02 -0.52401684473E+02  0.10277178572E+03  0.81698497906E+02 0.  0.
          5    1    5    5  501    0  0.56222982928E+02  0.74036763205E+02 -0.53271934311E+02  0.10724949930E+03  0.47000000000E+01 0. -1.
        -13    1    6    6    0    0  0.32352368616E+02 -0.17129908056E+02  0.41675509291E+01  0.36843968106E+02  0.00000000000E+00 0.  1.
         14    1    6    6    0    0 -0.29544384955E+02 -0.16538683733E+02 -0.56569235402E+02  0.65927817618E+02  0.00000000000E+00 0. -1.
         -5    1    3    3    0  503 -0.29909524293E+02 -0.84111464934E+02  0.16388401061E+03  0.18667987870E+03  0.47000000000E+01 0.  1.
         13    1    4    4    0    0  0.25498037270E+02  0.26288413260E+02  0.61037171886E+02  0.71181225953E+02  0.00000000000E+00 0. -1.
        -14    1    4    4    0    0 -0.54619479567E+02  0.17454880259E+02  0.16301781282E+03  0.17280847111E+03  0.00000000000E+00 0.  1.
</event>
<event>
12    1  0.1594973E-001  0.2097110E+03  0.7818608E-02  0.1142306E+00
         21   -1    0    0  503  502  0.00000000000E+00  0.00000000000E+00  0.22725105125E+03  0.22725105125E+03  0.00000000000E+00 0. -1.
         21   -1    0    0  501  503 -0.00000000000E+00 -0.00000000000E+00 -0.22444903506E+03  0.22444903506E+03  0.00000000000E+00 0. -1.
          6    2    1    2  501    0  0.11157930342E+03  0.27372313321E+02 -0.85571322368E+02  0.22412909953E+03  0.17237232248E+03 0.  0.
         24    2    3    3    0    0  0.13530140829E+03  0.56728562560E+02 -0.56775807733E+02  0.17642376134E+03  0.79857687966E+02 0.  0.
         -6    2    1    2    0  502 -0.11157930342E+03 -0.27372313321E+02  0.88373338558E+02  0.22757098678E+03  0.17544093755E+03 0.  0.
        -24    2    5    5    0    0 -0.30354757747E+02  0.34482899062E+02 -0.74834363899E+00  0.91967674298E+02  0.79668133228E+02 0.  0.
          5    1    3    3  501    0 -0.23722104871E+02 -0.29356249239E+02 -0.28795514635E+02  0.47705338192E+02  0.47000000000E+01 0. -1.
        -11    1    4    4    0    0  0.96410336046E+02  0.17255105197E+02 -0.12105455834E+01  0.97949767598E+02  0.00000000000E+00 0.  1.
         12    1    4    4    0    0  0.38891072242E+02  0.39473457363E+02 -0.55565262149E+02  0.78473993743E+02  0.00000000000E+00 0. -1.
         -5    1    5    5    0  502 -0.81224545670E+02 -0.61855212383E+02  0.89121682197E+02  0.13560331248E+03  0.47000000000E+01 0.  1.
         11    1    6    6    0    0 -0.50553046325E+02  0.10229583594E+02  0.18736224797E+02  0.54875322258E+02  0.00000000000E+00 0. -1.
        -12    1    6    6    0    0  0.20198288579E+02  0.24253315468E+02 -0.19484568436E+02  0.37092352040E+02  0.00000000000E+00 0.  1.
</event>
<event>
12    1  0.1594973E-001  0.2303998E+03  0.7818608E-02  0.1126359E+00
         21   -1    0    0  501  502  0.00000000000E+00  0.00000000000E+00  0.13683259741E+03  0.13683259741E+03  0.00000000000E+00 0.  1.
         21   -1    0    0  502  503 -0.00000000000E+00 -0.00000000000E+00 -0.41520963119E+03  0.41520963119E+03  0.00000000000E+00 0. -1.
         -6    2    1    2    0  503 -0.14845311881E+03 -0.37938096878E+02 -0.68457024158E+02  0.24035479339E+03  0.17206520528E+03 0.  0.
        -24    2    3    3    0    0 -0.43803411169E+02 -0.51852066759E+02  0.14621156881E+02  0.10593294237E+03  0.80003964858E+02 0.  0.
          6    2    1    2  501    0  0.14845311881E+03  0.37938096878E+02 -0.20992000962E+03  0.31168743522E+03  0.17206109134E+03 0.  0.
         24    2    5    5    0    0  0.10008601306E+03  0.51320784821E-01 -0.41233100912E+02  0.13209860513E+03  0.75714333009E+02 0.  0.
          5    1    5    5  501    0  0.48367105755E+02  0.37886776093E+02 -0.16868690871E+03  0.17958883009E+03  0.47000000000E+01 0. -1.
        -11    1    6    6    0    0  0.50972736514E+02 -0.29442484041E+02 -0.45864075660E+02  0.74623006978E+02  0.00000000000E+00 0.  1.
         12    1    6    6    0    0  0.49113276543E+02  0.29493804826E+02  0.46309747478E+01  0.57475598152E+02  0.00000000000E+00 0. -1.
         -5    1    3    3    0  503 -0.10464970764E+03  0.13913969881E+02 -0.83078181039E+02  0.13442185102E+03  0.47000000000E+01 0.  1.
         11    1    4    4    0    0  0.82263080011E+01 -0.42349578700E+02 -0.14553388691E+02  0.45529771378E+02  0.00000000000E+00 0. -1.
        -12    1    4    4    0    0 -0.52029719170E+02 -0.95024880596E+01  0.29174545572E+02  0.60403170990E+02  0.00000000000E+00 0.  1.
</event>
<event>
12    1  0.1594973E-001  0.1843642E+03  0.7818608E-02  0.1163806E+00
         21   -1    0    0  501  502  0.00000000000E+00  0.00000000000E+00  0.91349823452E+02  0.91349823452E+02  0.00000000000E+00 0.  1.
         21   -1    0    0  502  503 -0.00000000000E+00 -0.00000000000E+00 -0.52620156193E+03  0.52620156193E+03  0.00000000000E+00 0.  1.
         -6    2    1    2    0  503 -0.59193051692E+02 -0.25091780395E+02 -0.38556008424E+03  0.42737187759E+03  0.17279099625E+03 0.  0.
        -24    2    3    3    0    0 -0.96262113569E+02 -0.52974860947E+02 -0.30528222171E+03  0.33453758036E+03  0.81519490801E+02 0.  0.
          6    2    1    2  501    0  0.59193051692E+02  0.25091780395E+02 -0.49291654236E+02  0.19017950779E+03  0.17206150991E+03 0.  0.
         24    2    5    5    0    0 -0.57784995534E+01  0.54436842816E+01  0.30652440030E+02  0.85200946359E+02  0.79098700527E+02 0.  0.
          5    1    5    5  501    0  0.64971551245E+02  0.19648096114E+02 -0.79944094266E+02  0.10497856143E+03  0.47000000000E+01 0. -1.
        -11    1    6    6    0    0  0.32087323808E+02 -0.14091369175E+02  0.22980380569E+02  0.41907766888E+02  0.00000000000E+00 0.  1.
         12    1    6    6    0    0 -0.37865823362E+02  0.19535053456E+02  0.76720594609E+01  0.43293179472E+02  0.00000000000E+00 0. -1.
         -5    1    3    3    0  503  0.37069061877E+02  0.27883080552E+02 -0.80277862528E+02  0.92834297227E+02  0.47000000000E+01 0.  1.
         11    1    4    4    0    0  0.84669353774E+01 -0.21646875055E+02 -0.27422451891E+02  0.35948116252E+02  0.00000000000E+00 0. -1.
        -12    1    4    4    0    0 -0.10472904895E+03 -0.31327985892E+02 -0.27785976982E+03  0.29858946411E+03  0.00000000000E+00 0.  1.
</event>
<event>
12    1  0.1594973E-001  0.2113443E+03  0.7818608E-02  0.1141544E+00
         21   -1    0    0  503  502  0.00000000000E+00  0.00000000000E+00  0.23088478817E+03  0.23088478817E+03  0.00000000000E+00 0.  1.
         21   -1    0    0  501  503 -0.00000000000E+00 -0.00000000000E+00 -0.23610524999E+03  0.23610524999E+03  0.00000000000E+00 0.  1.
          6    2    1    2  501    0  0.39570117213E+02  0.11618521384E+03 -0.10724289486E+03  0.23699670054E+03  0.17205115366E+03 0.  0.
         24    2    3    3    0    0 -0.42292825191E+02  0.78734491608E+02 -0.73972076279E+02  0.14090749561E+03  0.79970313352E+02 0.  0.
         -6    2    1    2    0  502 -0.39570117213E+02 -0.11618521384E+03  0.10202243304E+03  0.22999333761E+03  0.16560060510E+03 0.  0.
        -24    2    5    5    0    0  0.40706635453E+02 -0.58041536091E+02  0.60821855436E+02  0.12254743552E+03  0.79326702772E+02 0.  0.
          5    1    3    3  501    0  0.81862942404E+02  0.37450722237E+02 -0.33270818584E+02  0.96089204932E+02  0.47000000000E+01 0. -1.
        -13    1    4    4    0    0 -0.45044447683E+01  0.76085145890E+02 -0.68795048900E+02  0.10267423338E+03  0.00000000000E+00 0.  1.
         14    1    4    4    0    0 -0.37788380423E+02  0.26493457181E+01 -0.51770273786E+01  0.38233262223E+02  0.00000000000E+00 0. -1.
         -5    1    5    5    0  502 -0.80276752666E+02 -0.58143677753E+02  0.41200577607E+02  0.10744590209E+03  0.47000000000E+01 0.  1.
         13    1    6    6    0    0  0.49221027211E+02 -0.17334340929E+02  0.42818935838E+01  0.52359559851E+02  0.00000000000E+00 0. -1.
        -14    1    6    6    0    0 -0.85143917574E+01 -0.40707195163E+02  0.56539961853E+02  0.70187875672E+02  0.00000000000E+00 0.  1.
</event>
<event>
12    1  0.1594973E-001  0.2278636E+03  0.7818608E-02  0.1128178E+00
         21   -1    0    0  501  502  0.00000000000E+00  0.00000000000E+00  0.11773607640E+04  0.11773607640E+04  0.00000000000E+00 0.  1.
         21   -1    0    0  502  503 -0.00000000000E+00 -0.00000000000E+00 -0.50264528063E+02  0.50264528063E+02  0.00000000000E+00 0.  1.
         -6    2    1    2    0  503  0.14872977497E+03 -0.47579126154E+01  0.77915012436E+03  0.81178615261E+03  0.17256493732E+03 0.  0.
        -24    2    3    3    0    0  0.17355214204E+02  0.12334185428E+02  0.44084885039E+03  0.44843885731E+03  0.79349633076E+02 0.  0.
          6    2    1    2  501    0 -0.14872977497E+03  0.47579126154E+01  0.34794611158E+03  0.41583913945E+03  0.17237316972E+03 0.  0.
         24    2    5    5    0    0 -0.15487282400E+03  0.49839143923E+02  0.29481839193E+03  0.34573422477E+03  0.78388379706E+02 0.  0.
          5    1    5    5  501    0  0.61430490278E+01 -0.45081231307E+02  0.53127719642E+02  0.70104914677E+02  0.47000000000E+01 0. -1.
        -11    1    6    6    0    0 -0.10329744711E+03  0.20485442304E+00  0.21496155637E+03  0.23849292497E+03  0.00000000000E+00 0.  1.
         12    1    6    6    0    0 -0.51575376894E+02  0.49634289500E+02  0.79856835560E+02  0.10724129979E+03  0.00000000000E+00 0. -1.
         -5    1    3    3    0  503  0.13137456077E+03 -0.17092098043E+02  0.33830127397E+03  0.36334729530E+03  0.47000000000E+01 0.  1.
         11    1    4    4    0    0  0.30490839715E+02  0.53798760361E+01  0.62023654105E+02  0.69322204532E+02  0.00000000000E+00 0. -1.
        -12    1    4    4    0    0 -0.13135625511E+02  0.69543093916E+01  0.37882519628E+03  0.37911665278E+03  0.00000000000E+00 0.  1.
</event>
<event>
12    1  0.1594973E-001  0.2134996E+03  0.7818608E-02  0.1139237E+00
         21   -1    0    0  503  502  0.00000000000E+00  0.00000000000E+00  0.72456594065E+02  0.72456594065E+02  0.00000000000E+00 0. -1.
         21   -1    0    0  501  503 -0.00000000000E+00 -0.00000000000E+00 -0.15015178287E+04  0.15015178287E+04  0.00000000000E+00 0. -1.
          6    2    1    2  501    0 -0.53565305421E+01 -0.11835276223E+03 -0.13150685312E+04  0.13319488157E+04  0.17506095297E+03 0.  0.
         24    2    3    3    0    0 -0.37804387800E+02 -0.12466504113E+03 -0.73033212174E+03  0.74625993344E+03  0.80921789363E+02 0.  0.
         -6    2    1    2    0  502  0.53565305421E+01  0.11835276223E+03 -0.11399270346E+03  0.24202560704E+03  0.17761190635E+03 0.  0.
        -24    2    5    5    0    0 -0.70365659938E+01 -0.11726470192E+02 -0.46737370857E+02  0.94989674998E+02  0.81557545068E+02 0.  0.
          5    1    3    3  501    0  0.32447857258E+02  0.63122788981E+01 -0.58473640945E+03  0.58568888229E+03  0.47000000000E+01 0. -1.
        -11    1    4    4    0    0 -0.85340822454E+01  0.95595828493E+00 -0.21011784904E+03  0.21029325929E+03  0.00000000000E+00 0.  1.
         12    1    4    4    0    0 -0.29270305554E+02 -0.12562099941E+03 -0.52021427270E+03  0.53596667415E+03  0.00000000000E+00 0. -1.
         -5    1    5    5    0  502  0.12393096536E+02  0.13007923242E+03 -0.67255332599E+02  0.14703593205E+03  0.47000000000E+01 0.  1.
         13    1    6    6    0    0  0.20580463666E+02  0.24949826365E+02 -0.45915963188E+01  0.32666987573E+02  0.00000000000E+00 0. -1.
        -14    1    6    6    0    0 -0.27617029660E+02 -0.36676296557E+02 -0.42145774538E+02  0.62322687425E+02  0.00000000000E+00 0.  1.
</event>
<event>
12    1  0.1594973E-001  0.1778130E+03  0.7818608E-02  0.1170555E+00
         21   -1    0    0  501  502  0.00000000000E+00  0.00000000000E+00  0.33647937080E+03  0.33647937080E+03  0.00000000000E+00 0. -1.
         21   -1    0    0  502  503 -0.00000000000E+00 -0.00000000000E+00 -0.95265108024E+02  0.95265108024E+02  0.00000000000E+00 0. -1.
         -6    2    1    2    0  503  0.23909234523E+02  0.27139600412E+02  0.84023204458E+02  0.19441242540E+03  0.17154615372E+03 0.  0.
        -24    2    3    3    0    0 -0.44447868471E+02 -0.16590869418E+02  0.56262669322E+02  0.10851839282E+03  0.79748878749E+02 0.  0.
          6    2    1    2  501    0 -0.23909234523E+02 -0.27139600412E+02  0.15719105831E+03  0.23733205342E+03  0.17409556388E+03 0.  0.
         24    2    5    5    0    0  0.29287657631E+02  0.35496530895E+02  0.77057904057E+02  0.12245556892E+03  0.83304712875E+02 0.  0.
          5    1    5    5  501    0 -0.53196892154E+02 -0.62636131307E+02  0.80133154257E+02  0.11487648450E+03  0.47000000000E+01 0. -1.
        -13    1    6    6    0    0 -0.24053257217E+02 -0.38346246197E+01  0.55936463668E+01  0.24991046565E+02  0.00000000000E+00 0.  1.
         14    1    6    6    0    0  0.53340914848E+02  0.39331155515E+02  0.71464257690E+02  0.97464522356E+02  0.00000000000E+00 0. -1.
         -5    1    3    3    0  503  0.68357102994E+02  0.43730469830E+02  0.27760535136E+02  0.85894032577E+02  0.47000000000E+01 0.  1.
         11    1    4    4    0    0  0.22306939639E+02  0.28773726621E+01  0.79877801591E+01  0.23868042680E+02  0.00000000000E+00 0. -1.
        -12    1    4    4    0    0 -0.66754808110E+02 -0.19468242080E+02  0.48274889163E+02  0.84650350142E+02  0.00000000000E+00 0.  1.
</event>
<event>
12    1  0.1594973E-001  0.2807328E+03  0.7818608E-02  0.1095848E+00
         21   -1    0    0  503  502  0.00000000000E+00  0.00000000000E+00  0.79837750218E+02  0.79837750218E+02  0.00000000000E+00 0. -1.
         21   -1    0    0  501  503 -0.00000000000E+00 -0.00000000000E+00 -0.11009614105E+04  0.11009614105E+04  0.00000000000E+00 0. -1.
          6    2    1    2  501    0 -0.21076684306E+03 -0.72783937977E+02 -0.70864708720E+03  0.76073667494E+03  0.16376639045E+03 0.  0.
         24    2    3    3    0    0 -0.13177566055E+03 -0.10914869408E+03 -0.47073961684E+03  0.50739094899E+03  0.81064950050E+02 0.  0.
         -6    2    1    2    0  502  0.21076684306E+03  0.72783937977E+02 -0.31247657307E+03  0.42006248577E+03  0.17056001721E+03 0.  0.
        -24    2    5    5    0    0  0.23292185163E+03  0.75810192213E+02 -0.27956158076E+03  0.37999392779E+03  0.78999579208E+02 0.  0.
          5    1    3    3  501    0 -0.78991182516E+02  0.36364756104E+02 -0.23790747036E+03  0.25334572595E+03  0.47000000000E+01 0. -1.
        -11    1    4    4    0    0 -0.76807156249E+02 -0.63032030884E+02 -0.15893514425E+03  0.18743733952E+03  0.00000000000E+00 0.  1.
         12    1    4    4    0    0 -0.54968504297E+02 -0.46116663197E+02 -0.31180447258E+03  0.31995360947E+03  0.00000000000E+00 0. -1.
         -5    1    5    5    0  502 -0.22155008565E+02 -0.30262542359E+01 -0.32914992318E+02  0.40068557979E+02  0.47000000000E+01 0.  1.
         11    1    6    6    0    0  0.10114426710E+03 -0.68931488018E+01 -0.12091784007E+03  0.15779354332E+03  0.00000000000E+00 0. -1.
        -12    1    6    6    0    0  0.13177758453E+03  0.82703341015E+02 -0.15864374069E+03  0.22220038447E+03  0.00000000000E+00 0.  1.
</event>
<event>
12    1  0.1594973E-001  0.1974042E+03  0.7818608E-02  0.1152184E+00
         21   -1    0    0  501  502  0.00000000000E+00  0.00000000000E+00  0.75137955544E+02  0.75137955544E+02  0.00000000000E+00 0.  1.
         21   -1    0    0  502  503 -0.00000000000E+00 -0.00000000000E+00 -0.52980522203E+03  0.52980522203E+03  0.00000000000E+00 0. -1.
         -6    2    1    2    0  503  0.16561512890E+02  0.95233729074E+02 -0.17868362224E+03  0.26626352301E+03  0.17211821509E+03 0.  0.
        -24    2    3    3    0    0 -0.90015969928E+01  0.13081668507E+03 -0.14540090970E+03  0.21104171302E+03  0.78760054929E+02 0.  0.
          6    2    1    2  501    0 -0.16561512890E+02 -0.95233729074E+02 -0.27598364424E+03  0.33867965456E+03  0.17086014651E+03 0.  0.
         24    2    5    5    0    0 -0.67496475769E+02 -0.46273644652E+02 -0.11200373898E+03  0.16006565836E+03  0.79869600040E+02 0.  0.
          5    1    5    5  501    0  0.50934962879E+02 -0.48960084422E+02 -0.16397990526E+03  0.17861399620E+03  0.47000000000E+01 0. -1.
        -11    1    6    6    0    0 -0.60613172318E+01 -0.11211682575E+02  0.11870967885E+02  0.17417269340E+02  0.00000000000E+00 0.  1.
         12    1    6    6    0    0 -0.61435158537E+02 -0.35061962078E+02 -0.12387470687E+03  0.14264838902E+03  0.00000000000E+00 0. -1.
         -5    1    3    3    0  503  0.25563109883E+02 -0.35582955995E+02 -0.33282712547E+02  0.55221809991E+02  0.47000000000E+01 0.  1.
         11    1    4    4    0    0  0.17800229665E+02  0.10449360941E+03 -0.70661591930E+02  0.12739239835E+03  0.00000000000E+00 0. -1.
        -12    1    4    4    0    0 -0.26801826658E+02  0.26323075662E+02 -0.74739317767E+02  0.83649314670E+02  0.00000000000E+00 0.  1.
</event>
<event>
12    1  0.1594973E-001  0.2298314E+03  0.7818608E-02  0.1127004E+00
         21   -1    0    0  501  502  0.00000000000E+00  0.00000000000E+00  0.55486924053E+03  0.55486924053E+03  0.00000000000E+00 0. -1.
         21   -1    0    0  502  503 -0.00000000000E+00 -0.00000000000E+00 -0.19176373124E+03  0.19176373124E+03  0.00000000000E+00 0. -1.
         -6    2    1    2    0  503  0.82543405755E+02  0.12491354579E+03 -0.84419170903E+02  0.24354172950E+03  0.17253744474E+03 0.  0.
        -24    2    3    3    0    0  0.30441204911E+02  0.73297636775E+02  0.20304525079E+02  0.11560430770E+03  0.81565137817E+02 0.  0.
          6    2    1    2  501    0 -0.82543405755E+02 -0.12491354579E+03  0.44752468019E+03  0.50309124227E+03  0.17437216208E+03 0.  0.
         24    2    5    5    0    0 -0.10803019967E+03 -0.73061116271E+02  0.21914130389E+03  0.26746588777E+03  0.80663742152E+02 0.  0.
          5    1    5    5  501    0  0.25486793915E+02 -0.51852429515E+02  0.22838337630E+03  0.23562535450E+03  0.47000000000E+01 0. -1.
        -13    1    6    6    0    0 -0.30841046694E+02 -0.21513147076E+02  0.10394381383E+02  0.39013187804E+02  0.00000000000E+00 0.  1.
         14    1    6    6    0    0 -0.77189152976E+02 -0.51547969195E+02  0.20874692250E+03  0.22845269996E+03  0.00000000000E+00 0. -1.
         -5    1    3    3    0  503  0.52102200844E+02  0.51615909011E+02 -0.10472369598E+03  0.12793742180E+03  0.47000000000E+01 0.  1.
         11    1    4    4    0    0  0.43462503570E+02  0.75377546162E+02 -0.49114350381E+01  0.87148642423E+02  0.00000000000E+00 0. -1.
        -12    1    4    4    0    0 -0.13021298659E+02 -0.20799093870E+01  0.25215960117E+02  0.28455665279E+02  0.00000000000E+00 0.  1.
</event>
<event>
12    1  0.1594973E-001  0.1737402E+03  0.7818608E-02  0.1174021E+00
         21   -1    0    0  503  502  0.00000000000E+00  0.00000000000E+00  0.90524883745E+03  0.90524883745E+03  0.00000000000E+00 0.  1.
         21   -1    0    0  501  503 -0.00000000000E+00 -0.00000000000E+00 -0.65961095593E+02  0.65961095593E+02  0.00000000000E+00 0.  1.
          6    2    1    2  501    0  0.16900396915E+02  0.19636072043E+02  0.78054108124E+02  0.19040119420E+03  0.17172353425E+03 0.  0.
         24    2    3    3    0    0 -0.23444191562E+02  0.31872314611E+02 -0.13148895897E+02  0.89815462638E+02  0.79551551266E+02 0.  0.
         -6    2    1    2    0  502 -0.16900396915E+02 -0.19636072043E+02  0.76123363373E+03  0.78080873884E+03  0.17179767980E+03 0.  0.
        -24    2    5    5    0    0  0.10780062050E+02  0.52525622974E+02  0.39913935580E+03  0.41052793439E+03  0.79660584713E+02 0.  0.
          5    1    3    3  501    0  0.40344588477E+02 -0.12236242568E+02  0.91203004021E+02  0.10058573156E+03  0.47000000000E+01 0. -1.
        -13    1    4    4    0    0 -0.41847318754E+02  0.48234302426E+02 -0.58143441710E+01  0.64121389688E+02  0.00000000000E+00 0.  1.
         14    1    4    4    0    0  0.18403127192E+02 -0.16361987815E+02 -0.73345517260E+01  0.25694072949E+02  0.00000000000E+00 0. -1.
         -5    1    5    5    0  502 -0.27680458965E+02 -0.72161695017E+02  0.36209427793E+03  0.37028080445E+03  0.47000000000E+01 0.  1.
         13    1    6    6    0    0  0.45239609629E+02  0.26854203516E+02  0.19985933508E+03  0.20666766642E+03  0.00000000000E+00 0. -1.
        -14    1    6    6    0    0 -0.34459547579E+02  0.25671419457E+02  0.19928002072E+03  0.20386026797E+03  0.00000000000E+00 0.  1.
</event>
<event>
12    1  0.1594973E-001  0.2049134E+03  0.7818608E-02  0.1145709E+00
         21   -1    0    0  501  502  0.00000000000E+00  0.00000000000E+00  0.22919006674E+04  0.22919006674E+04  0.00000000000E+00 0. -1.
         21   -1    0    0  502  503 -0.00000000000E+00 -0.00000000000E+00 -0.86412065117E+02  0.86412065117E+02  0.00000000000E+00 0.  1.
         -6    2    1    2    0  503 -0.11028802272E+03 -0.22042667871E+02  0.46838498781E+02  0.20995857292E+03  0.17099540991E+03 0.  0.
        -24    2    3    3    0    0 -0.60670372052E+02  0.46884808788E+02  0.56112056316E+02  0.12439574708E+03  0.80291093449E+02 0.  0.
          6    2    1    2  501    0  0.11028802272E+03  0.22042667871E+02  0.21586501035E+04  0.21683541596E+04  0.17128971051E+03 0.  0.
         24    2    5    5    0    0  0.10129875338E+02  0.12361025481E+02  0.47603949132E+03  0.48273084731E+03  0.78486077273E+02 0.  0.
          5    1    5    5  501    0  0.10015814738E+03  0.96816423898E+01  0.16826106122E+04  0.16856233123E+04  0.47000000000E+01 0. -1.
        -13    1    6    6    0    0 -0.68324778052E+01 -0.31615695621E+02  0.22378426489E+03  0.22610977903E+03  0.00000000000E+00 0.  1.
         14    1    6    6    0    0  0.16962353143E+02  0.43976721102E+02  0.25225522643E+03  0.25662106828E+03  0.00000000000E+00 0. -1.
         -5    1    3    3    0  503 -0.49617650671E+02 -0.68927476659E+02 -0.92735575351E+01  0.85562825841E+02  0.47000000000E+01 0.  1.
         13    1    4    4    0    0 -0.11749224362E+02  0.56856633868E+02  0.15646551341E+02  0.60129324433E+02  0.00000000000E+00 0. -1.
        -14    1    4    4    0    0 -0.48921147690E+02 -0.99718250805E+01  0.40465504975E+02  0.64266422645E+02  0.00000000000E+00 0.  1.
</event>
<event>
12    1  0.1594973E-001  0.2051229E+03  0.7818608E-02  0.1145630E+00
         21   -1    0    0  501  502  0.00000000000E+00  0.00000000000E+00  0.97258795907E+02  0.97258795907E+02  0.00000000000E+00 0.  1.
         21   -1    0    0  502  503 -0.00000000000E+00 -0.00000000000E+00 -0.53402087777E+03  0.53402087777E+03  0.00000000000E+00 0.  1.
         -6    2    1    2    0  503 -0.37572434834E+02  0.10704906116E+03 -0.35722154940E+03  0.41192554314E+03  0.17089244684E+03 0.  0.
        -24    2    3    3    0    0 -0.86011206758E+02  0.88702752067E+02 -0.29640653418E+03  0.33190393507E+03  0.83888513508E+02 0.  0.
          6    2    1    2  501    0  0.37572434834E+02 -0.10704906116E+03 -0.79540532460E+02  0.21935413053E+03  0.17005395885E+03 0.  0.
         24    2    5    5    0    0  0.28217028913E+01 -0.13261189039E+03 -0.29618439720E+02  0.15320749832E+03  0.70720648257E+02 0.  0.
          5    1    5    5  501    0  0.34750731942E+02  0.25562829234E+02 -0.49922092740E+02  0.66146632209E+02  0.47000000000E+01 0. -1.
        -11    1    6    6    0    0  0.13157339497E+02 -0.88603361629E+02 -0.51134188931E+02  0.10314250604E+03  0.00000000000E+00 0.  1.
         12    1    6    6    0    0 -0.10335636606E+02 -0.44008528761E+02  0.21515749212E+02  0.50064992279E+02  0.00000000000E+00 0. -1.
         -5    1    3    3    0  503  0.48438771924E+02  0.18346309089E+02 -0.60815015218E+02  0.80021608074E+02  0.47000000000E+01 0.  1.
         13    1    4    4    0    0 -0.18880857808E+02 -0.11001436525E+02 -0.93927514988E+02  0.96435970826E+02  0.00000000000E+00 0. -1.
        -14    1    4    4    0    0 -0.67130348950E+02  0.99704188592E+02 -0.20247901919E+03  0.23546796425E+03  0.00000000000E+00 0.  1.
</event>
<event>
12    1  0.1594973E-001  0.1817068E+03  0.7818608E-02  0.1166233E+00
         21   -1    0    0  501  502  0.00000000000E+00  0.00000000000E+00  0.44599418911E+02  0.44599418911E+02  0.00000000000E+00 0. -1.
         21   -1    0    0  502  503 -0.00000000000E+00 -0.00000000000E+00 -0.76439915367E+03  0.76439915367E+03  0.00000000000E+00 0.  1.
         -6    2    1    2    0  503 -0.14374430577E+02 -0.55202457454E+02 -0.43378734286E+03  0.47030714993E+03  0.17252078391E+03 0.  0.
        -24    2    3    3    0    0  0.17190609525E+02 -0.40352925499E+02 -0.10391162395E+03  0.13855884129E+03  0.80480129568E+02 0.  0.
          6    2    1    2  501    0  0.14374430577E+02  0.55202457454E+02 -0.28601239190E+03  0.33869142266E+03  0.17220585327E+03 0.  0.
         24    2    5    5    0    0  0.60684415218E+02  0.26499562445E+02 -0.98129205977E+02  0.14301144818E+03  0.80237822659E+02 0.  0.
          5    1    5    5  501    0 -0.46309984641E+02  0.28702895009E+02 -0.18788318592E+03  0.19567997448E+03  0.47000000000E+01 0. -1.
        -11    1    6    6    0    0 -0.11098554509E+02 -0.15199409043E+02 -0.30932075305E+02  0.36207640494E+02  0.00000000000E+00 0.  1.
         12    1    6    6    0    0  0.71782969726E+02  0.41698971488E+02 -0.67197130672E+02  0.10680380769E+03  0.00000000000E+00 0. -1.
         -5    1    3    3    0  503 -0.31565040102E+02 -0.14849531955E+02 -0.32987571891E+03  0.33174830864E+03  0.47000000000E+01 0.  1.
         11    1    4    4    0    0  0.14790777093E+02  0.21490279885E+02 -0.50362566236E+02  0.56718491644E+02  0.00000000000E+00 0. -1.
        -12    1    4    4    0    0  0.23998324321E+01 -0.61843205384E+02 -0.53549057717E+02  0.81840349647E+02  0.00000000000E+00 0.  1.
</event>
<event>
12    1  0.1594973E-001  0.2361100E+03  0.7818608E-02  0.1124218E+00
         21   -1    0    0  501  502  0.00000000000E+00  0.00000000000E+00  0.51327438489E+03  0.51327438489E+03  0.00000000000E+00 0. -1.
         21   -1    0    0  502  503 -0.00000000000E+00 -0.00000000000E+00 -0.10868891354E+03  0.10868891354E+03  0.00000000000E+00 0. -1.
         -6    2    1    2    0  503  0.16084138630E+03  0.21982820988E+02  0.27192383408E+03  0.36012567108E+03  0.17144891795E+03 0.  0.
        -24    2    3    3    0    0  0.87562804571E+02 -0.41708771306E+02  0.88463826296E+02  0.15250574447E+03  0.77622723388E+02 0.  0.
          6    2    1    2  501    0 -0.16084138630E+03 -0.21982820988E+02  0.13266163727E+03  0.26183762734E+03  0.15686502836E+03 0.  0.
         24    2    5    5    0    0 -0.47414890497E+02 -0.44442069590E+02  0.95112154366E+02  0.14017398666E+03  0.79869613976E+02 0.  0.
          5    1    5    5  501    0 -0.11342649581E+03  0.22459248603E+02  0.37549482904E+02  0.12166364069E+03  0.47000000000E+01 0. -1.
        -13    1    6    6    0    0 -0.13328693455E+01 -0.24239089873E+02 -0.79010833311E+01  0.25529142883E+02  0.00000000000E+00 0.  1.
         14    1    6    6    0    0 -0.46082021151E+02 -0.20202979718E+02  0.10301323770E+03  0.11464484377E+03  0.00000000000E+00 0. -1.
         -5    1    3    3    0  503  0.73278581733E+02  0.63691592294E+02  0.18346000778E+03  0.20761992661E+03  0.47000000000E+01 0.  1.
         11    1    4    4    0    0  0.40582068064E+02 -0.51416995492E+00  0.79662876506E+02  0.89405494866E+02  0.00000000000E+00 0. -1.
        -12    1    4    4    0    0  0.46980736508E+02 -0.41194601351E+02  0.88009497905E+01  0.63100249607E+02  0.00000000000E+00 0.  1.
</event>
<event>
12    1  0.1594973E-001  0.1946692E+03  0.7818608E-02  0.1154928E+00
         21   -1    0    0  503  502  0.00000000000E+00  0.00000000000E+00  0.27435422282E+03  0.27435422282E+03  0.00000000000E+00 0.  1.
         21   -1    0    0  501  503 -0.00000000000E+00 -0.00000000000E+00 -0.15177567279E+03  0.15177567279E+03  0.00000000000E+00 0. -1.
          6    2    1    2  501    0 -0.62427248453E+02 -0.70828617836E+02 -0.66470916644E+01  0.19478262595E+03  0.17024169022E+03 0.  0.
         24    2    3    3    0    0 -0.70531338702E+02 -0.29485620568E+02  0.51742944854E+02  0.12262719603E+03  0.80721901025E+02 0.  0.
         -6    2    1    2    0  502  0.62427248453E+02  0.70828617836E+02  0.12922564169E+03  0.23134726966E+03  0.16705818823E+03 0.  0.
        -24    2    5    5    0    0  0.70537189177E+02 -0.25116425605E+01  0.11253603731E+03  0.15555018642E+03  0.80930200766E+02 0.  0.
          5    1    3    3  501    0  0.81040902492E+01 -0.41342997268E+02 -0.58390036519E+02  0.72155429917E+02  0.47000000000E+01 0. -1.
        -11    1    4    4    0    0 -0.25636524472E+02 -0.35488476753E+02  0.62275610628E+02  0.76124339395E+02  0.00000000000E+00 0.  1.
         12    1    4    4    0    0 -0.44894814230E+02  0.60028561847E+01 -0.10532665774E+02  0.46502856637E+02  0.00000000000E+00 0. -1.
         -5    1    5    5    0  502 -0.81099407236E+01  0.73340260397E+02  0.16689604380E+02  0.75797083242E+02  0.47000000000E+01 0.  1.
         13    1    6    6    0    0  0.35414909733E+02  0.23548511571E+01 -0.21005016462E+01  0.35555214281E+02  0.00000000000E+00 0. -1.
        -14    1    6    6    0    0  0.35122279444E+02 -0.48664937176E+01  0.11463653896E+03  0.11999497214E+03  0.00000000000E+00 0.  1.
</event>
<event>
12    1  0.1594973E-001  0.2431372E+03  0.7818608E-02  0.1117749E+00
         21   -1    0    0  503  502  0.00000000000E+00  0.00000000000E+00  0.66142804375E+03  0.66142804375E+03  0.00000000000E+00 0.  1.
         21   -1    0    0  501  503 -0.00000000000E+00 -0.00000000000E+00 -0.89317432047E+02  0.89317432047E+02  0.00000000000E+00 0. -1.
          6    2    1    2  501    0 -0.35501520311E+02  0.16835723464E+03  0.28908776905E+03  0.37773990561E+03  0.17178818840E+03 0.  0.
         24    2    3    3    0    0  0.28653147640E+02  0.13777009815E+03  0.24787786020E+03  0.29544931729E+03  0.77751287425E+02 0.  0.
         -6    2    1    2    0  502  0.35501520311E+02 -0.16835723464E+03  0.28302284265E+03  0.37300557018E+03  0.17154215086E+03 0.  0.
        -24    2    5    5    0    0  0.71224363856E+02 -0.12116772255E+03  0.12513693398E+03  0.20432533494E+03  0.79593110632E+02 0.  0.
          5    1    3    3  501    0 -0.64154667951E+02  0.30587136499E+02  0.41209908851E+02  0.82290588324E+02  0.47000000000E+01 0.  1.
        -13    1    4    4    0    0 -0.19816047921E+02  0.39739516963E+02  0.11550262994E+03  0.12374474731E+03  0.00000000000E+00 0.  1.
         14    1    4    4    0    0  0.48469195561E+02  0.98030581183E+02  0.13237523026E+03  0.17170456998E+03  0.00000000000E+00 0. -1.
         -5    1    5    5    0  502 -0.35722843545E+02 -0.47189512096E+02  0.15788590867E+03  0.16868023524E+03  0.47000000000E+01 0.  1.
         11    1    6    6    0    0  0.59329688335E+02 -0.24884809142E+02  0.54522653953E+02  0.84332588232E+02  0.00000000000E+00 0. -1.
        -12    1    6    6    0    0  0.11894675521E+02 -0.96282913407E+02  0.70614280026E+02  0.11999274671E+03  0.00000000000E+00 0.  1.
</event>
<event>
12    1  0.1594973E-001  0.2200419E+03  0.7818608E-02  0.1134193E+00
         21   -1    0    0  503  502  0.00000000000E+00  0.00000000000E+00  0.71930128698E+03  0.71930128698E+03  0.00000000000E+00 0.  1.
         21   -1    0    0  501  503 -0.00000000000E+00 -0.00000000000E+00 -0.15353506286E+03  0.15353506286E+03  0.00000000000E+00 0.  1.
          6    2    1    2  501    0  0.61277961814E+02 -0.12407025309E+03 -0.44702786405E+02  0.22453679535E+03  0.17108482413E+03 0.  0.
         24    2    3    3    0    0  0.38719770067E+02 -0.12440519684E+03 -0.87675480674E+02  0.17577485676E+03  0.78955283310E+02 0.  0.
         -6    2    1    2    0  502 -0.61277961814E+02  0.12407025309E+03  0.61046901052E+03  0.64829955449E+03  0.16873494966E+03 0.  0.
        -24    2    5    5    0    0 -0.89337868393E+02  0.13180879471E+03  0.57642243775E+03  0.60326065462E+03  0.79408926348E+02 0.  0.
          5    1    3    3  501    0  0.22558191747E+02  0.33494374953E+00  0.42972694268E+02  0.48761938588E+02  0.47000000000E+01 0. -1.
        -11    1    4    4    0    0  0.25018895776E+02 -0.64981475057E+02 -0.91138109371E+02  0.11469390666E+03  0.00000000000E+00 0.  1.
         12    1    4    4    0    0  0.13700874290E+02 -0.59423721784E+02  0.34626286969E+01  0.61080950095E+02  0.00000000000E+00 0. -1.
         -5    1    5    5    0  502  0.28059906579E+02 -0.77385416196E+01  0.34046572778E+02  0.45038899870E+02  0.47000000000E+01 0.  1.
         13    1    6    6    0    0 -0.13004976034E+02  0.69353891151E+02  0.33721288483E+03  0.34451650369E+03  0.00000000000E+00 0. -1.
        -14    1    6    6    0    0 -0.76332892358E+02  0.62454903559E+02  0.23920955292E+03  0.25874415093E+03  0.00000000000E+00 0.  1.
</event>
<event>
12    1  0.1594973E-001  0.2102202E+03  0.7818608E-02  0.1142842E+00
         21   -1    0    0  503  502  0.00000000000E+00  0.00000000000E+00  0.93458118268E+02  0.93458118268E+02  0.00000000000E+00 0.  1.
         21   -1    0    0  501  503 -0.00000000000E+00 -0.00000000000E+00 -0.11104461397E+04  0.11104461397E+04  0.00000000000E+00 0.  1.
          6    2    1    2  501    0  0.90606101387E+02  0.57953599487E+02 -0.43049328121E+02  0.20753628904E+03  0.17219169932E+03 0.  0.
         24    2    3    3    0    0  0.56212380269E+02 -0.13599726467E+02 -0.71656547029E+02  0.12301842418E+03  0.81572591592E+02 0.  0.
         -6    2    1    2    0  502 -0.90606101387E+02 -0.57953599487E+02 -0.97393869336E+03  0.99636796898E+03  0.18062244014E+03 0.  0.
        -24    2    5    5    0    0  0.18863868934E+02  0.81207264792E+01 -0.48647659944E+03  0.49239289622E+03  0.73276808712E+02 0.  0.
          5    1    3    3  501    0  0.34393721118E+02  0.71553325954E+02  0.28607218907E+02  0.84517864863E+02  0.47000000000E+01 0. -1.
        -11    1    4    4    0    0  0.21114792956E+00 -0.18667236683E+02  0.12020318567E+02  0.22203566544E+02  0.00000000000E+00 0.  1.
         12    1    4    4    0    0  0.56001232340E+02  0.50675102161E+01 -0.83676865595E+02  0.10081485763E+03  0.00000000000E+00 0. -1.
         -5    1    5    5    0  502 -0.10946997032E+03 -0.66074325966E+02 -0.48746209392E+03  0.50397507276E+03  0.47000000000E+01 0.  1.
         13    1    6    6    0    0 -0.27582955878E+01  0.16578356162E+02 -0.23808739965E+02  0.29142858238E+02  0.00000000000E+00 0. -1.
        -14    1    6    6    0    0  0.21622164522E+02 -0.84576296824E+01 -0.46266785947E+03  0.46325003798E+03  0.00000000000E+00 0.  1.
</event>
<event>
12    1  0.1594973E-001  0.3280455E+03  0.7818608E-02  0.1072810E+00
         21   -1    0    0  501  502  0.00000000000E+00  0.00000000000E+00  0.32369584724E+03  0.32369584724E+03  0.00000000000E+00 0. -1.
         21   -1    0    0  502  503 -0.00000000000E+00 -0.00000000000E+00 -0.53981878388E+03  0.53981878388E+03  0.00000000000E+00 0.  1.
         -6    2    1    2    0  503  0.10809671494E+03  0.25829176963E+03 -0.37953650037E+03  0.49702062052E+03  0.15678649199E+03 0.  0.
        -24    2    3    3    0    0  0.65123420779E+02  0.65834087457E+02 -0.11849361834E+03  0.16983238770E+03  0.78912073346E+02 0.  0.
          6    2    1    2  501    0 -0.10809671494E+03 -0.25829176963E+03  0.16341356373E+03  0.36649401059E+03  0.17092199669E+03 0.  0.
         24    2    5    5    0    0 -0.14048935793E+03 -0.18737771587E+03  0.14268655703E+03  0.28568692460E+03  0.80061833809E+02 0.  0.
          5    1    5    5  501    0  0.32392642988E+02 -0.70914053762E+02  0.20727006698E+02  0.80807085997E+02  0.47000000000E+01 0. -1.
        -13    1    6    6    0    0 -0.23085602611E+02 -0.23875058141E+02 -0.81004074557E+01  0.34184500144E+02  0.00000000000E+00 0.  1.
         14    1    6    6    0    0 -0.11740375532E+03 -0.16350265773E+03  0.15078696448E+03  0.25150242445E+03  0.00000000000E+00 0. -1.
         -5    1    3    3    0  503  0.42973294165E+02  0.19245768217E+03 -0.26104288203E+03  0.32718823282E+03  0.47000000000E+01 0.  1.
         11    1    4    4    0    0 -0.13208980304E+02  0.27930134699E+02 -0.14202451711E+02  0.34004105923E+02  0.00000000000E+00 0. -1.
        -12    1    4    4    0    0  0.78332401083E+02  0.37903952758E+02 -0.10429116663E+03  0.13582828178E+03  0.00000000000E+00 0.  1.
</event>
<event>
12    1  0.1594973E-001  0.2783878E+03  0.7818608E-02  0.1096858E+00
         21   -1    0    0  503  502  0.00000000000E+00  0.00000000000E+00  0.46736572929E+03  0.46736572929E+03  0.00000000000E+00 0.  1.
         21   -1    0    0  501  503 -0.00000000000E+00 -0.00000000000E+00 -0.18588322905E+03  0.18588322905E+03  0.00000000000E+00 0. -1.
          6    2    1    2  501    0 -0.18485278133E+02 -0.21570180736E+03  0.30666217298E+02  0.28007174045E+03  0.17501653554E+03 0.  0.
         24    2    3    3    0    0  0.42902083618E+02 -0.14498798791E+03 -0.22112223798E+02  0.17247756641E+03  0.79984092530E+02 0.  0.
         -6    2    1    2    0  502  0.18485278133E+02  0.21570180736E+03  0.25081628295E+03  0.37317721789E+03  0.17170746329E+03 0.  0.
        -24    2    5    5    0    0  0.66149556866E+02  0.15376592363E+03  0.11500162593E+03  0.21641099633E+03  0.74757088106E+02 0.  0.
          5    1    3    3  501    0 -0.61387361751E+02 -0.70713819451E+02  0.52778441095E+02  0.10759417405E+03  0.47000000000E+01 0. -1.
        -11    1    4    4    0    0 -0.66549746796E+01 -0.80299374190E+01  0.18531575586E+02  0.21264709653E+02  0.00000000000E+00 0.  1.
         12    1    4    4    0    0  0.49557058298E+02 -0.13695805049E+03 -0.40643799384E+02  0.15121285676E+03  0.00000000000E+00 0. -1.
         -5    1    5    5    0  502 -0.47664278733E+02  0.61935883729E+02  0.13581465702E+03  0.15676622156E+03  0.47000000000E+01 0.  1.
         13    1    6    6    0    0 -0.15260811674E+02  0.11306343202E+02  0.85852385950E+01  0.20843034599E+02  0.00000000000E+00 0. -1.
        -14    1    6    6    0    0  0.81410368540E+02  0.14245958043E+03  0.10641638734E+03  0.19556796173E+03  0.00000000000E+00 0.  1.
</event>
<event>
12    1  0.1594973E-001  0.2017157E+03  0.7818608E-02  0.1148625E+00
         21   -1    0    0  503  502  0.00000000000E+00  0.00000000000E+00  0.36208162915E+03  0.36208162915E+03  0.00000000000E+00 0. -1.
         21   -1    0    0  501  503 -0.00000000000E+00 -0.00000000000E+00 -0.11377017109E+03  0.11377017109E+03  0.00000000000E+00 0.  1.
          6    2    1    2  501    0 -0.29935335287E+02  0.10000311356E+03  0.15815348008E+03  0.25632350625E+03  0.17260495235E+03 0.  0.
         24    2    3    3    0    0  0.36113931298E+02  0.82745810161E+02  0.54171760788E+02  0.13184616661E+03  0.79358344554E+02 0.  0.
         -6    2    1    2    0  502  0.29935335287E+02 -0.10000311356E+03  0.90157977970E+02  0.21952829399E+03  0.17078484666E+03 0.  0.
        -24    2    5    5    0    0  0.40100812613E+02 -0.12660406618E+03  0.10575684507E+03  0.18672033361E+03  0.77738715967E+02 0.  0.
          5    1    3    3  501    0 -0.66049266585E+02  0.17257303394E+02  0.10398171929E+03  0.12447733964E+03  0.47000000000E+01 0. -1.
        -13    1    4    4    0    0  0.53069833011E+01  0.39991566757E+02 -0.16588128953E+02  0.43619439538E+02  0.00000000000E+00 0.  1.
         14    1    4    4    0    0  0.30806947996E+02  0.42754243405E+02  0.70759889742E+02  0.88226727074E+02  0.00000000000E+00 0. -1.
         -5    1    5    5    0  502 -0.10165477325E+02  0.26600952621E+02 -0.15598867095E+02  0.32807960379E+02  0.47000000000E+01 0.  1.
         11    1    6    6    0    0  0.59757910689E+02 -0.98514634708E+02  0.61097620851E+02  0.13041878858E+03  0.00000000000E+00 0. -1.
        -12    1    6    6    0    0 -0.19657098076E+02 -0.28089431469E+02  0.44659224214E+02  0.56301545027E+02  0.00000000000E+00 0.  1.
</event>
<event>
12    1  0.1594973E-001  0.2012806E+03  0.7818608E-02  0.1148685E+00
         21   -1    0    0  501  502  0.00000000000E+00  0.00000000000E+00  0.11914182426E+04  0.11914182426E+04  0.00000000000E+00 0. -1.
         21   -1    0    0  502  503 -0.00000000000E+00 -0.00000000000E+00 -0.34226647443E+02  0.34226647443E+02  0.00000000000E+00 0. -1.
         -6    2    1    2    0  503 -0.81208784412E+02 -0.64777609550E+02  0.52718271246E+03  0.56426370625E+03  0.17228149206E+03 0.  0.
        -24    2    3    3    0    0  0.18377022289E+02 -0.33425244169E+02  0.13695193783E+03  0.16028047494E+03  0.74020507120E+02 0.  0.
          6    2    1    2  501    0  0.81208784412E+02  0.64777609550E+02  0.63000888273E+03  0.66138118383E+03  0.17240322689E+03 0.  0.
         24    2    5    5    0    0  0.33749137347E+01  0.84301125958E+02  0.44326023475E+03  0.45806756736E+03  0.78918886717E+02 0.  0.
          5    1    5    5  501    0  0.77833870678E+02 -0.19523516408E+02  0.18674864798E+03  0.20331361646E+03  0.47000000000E+01 0. -1.
        -11    1    6    6    0    0  0.15363015273E+02 -0.37059007912E+01  0.19504025446E+02  0.25103046579E+02  0.00000000000E+00 0.  1.
         12    1    6    6    0    0 -0.11988101538E+02  0.88007026749E+02  0.42375620930E+03  0.43296452078E+03  0.00000000000E+00 0. -1.
         -5    1    3    3    0  503 -0.99585806701E+02 -0.31352365380E+02  0.39023077463E+03  0.40398323131E+03  0.47000000000E+01 0.  1.
         13    1    4    4    0    0 -0.24557998377E+02 -0.77514209530E+01  0.18530809439E+02  0.31726498539E+02  0.00000000000E+00 0. -1.
        -14    1    4    4    0    0  0.42935020666E+02 -0.25673823217E+02  0.11842112839E+03  0.12855397640E+03  0.00000000000E+00 0.  1.
</event>
<event>
12    1  0.1594973E-001  0.2047011E+03  0.7818608E-02  0.1145994E+00
         21   -1    0    0  501  502  0.00000000000E+00  0.00000000000E+00  0.44043469410E+02  0.44043469410E+02  0.00000000000E+00 0. -1.
         21   -1    0    0  502  503 -0.00000000000E+00 -0.00000000000E+00 -0.13413532209E+04  0.13413532209E+04  0.00000000000E+00 0. -1.
         -6    2    1    2    0  503 -0.81161570925E+01  0.10944753012E+03 -0.27429549015E+03  0.34225802732E+03  0.17279440817E+03 0.  0.
        -24    2    3    3    0    0 -0.63618279993E+02  0.10855338869E+03 -0.19758031509E+03  0.24744983559E+03  0.79764130267E+02 0.  0.
          6    2    1    2  501    0  0.81161570925E+01 -0.10944753012E+03 -0.10230142613E+04  0.10431386630E+04  0.17185883002E+03 0.  0.
         24    2    5    5    0    0  0.44042120733E+02 -0.12621928310E+03 -0.91165517583E+03  0.92483861021E+03  0.79625871982E+02 0.  0.
          5    1    5    5  501    0 -0.35925963640E+02  0.16771752980E+02 -0.11135908550E+03  0.11830005277E+03  0.47000000000E+01 0. -1.
        -13    1    6    6    0    0  0.29729309082E+02 -0.17942957291E+01 -0.14594659930E+03  0.14895456074E+03  0.00000000000E+00 0.  1.
         14    1    6    6    0    0  0.14312811651E+02 -0.12442498737E+03 -0.76570857652E+03  0.77588404947E+03  0.00000000000E+00 0. -1.
         -5    1    3    3    0  503  0.55502122901E+02  0.89414143394E+00 -0.76715175051E+02  0.94808191727E+02  0.47000000000E+01 0.  1.
         13    1    4    4    0    0 -0.14606339328E+02  0.24752015188E+02 -0.16510522180E+01  0.28787729641E+02  0.00000000000E+00 0. -1.
        -14    1    4    4    0    0 -0.49011940665E+02  0.83801373500E+02 -0.19592926288E+03  0.21866210595E+03  0.00000000000E+00 0.  1.
</event>
<event>
12    1  0.1594973E-001  0.2304343E+03  0.7818608E-02  0.1126669E+00
         21   -1    0    0  501  502  0.00000000000E+00  0.00000000000E+00  0.21644369561E+03  0.21644369561E+03  0.00000000000E+00 0.  1.
         21   -1    0    0  502  503 -0.00000000000E+00 -0.00000000000E+00 -0.79648660693E+03  0.79648660693E+03  0.00000000000E+00 0. -1.
         -6    2    1    2    0  503  0.13934854153E+03  0.56267864633E+02 -0.71173055240E+03  0.74752195899E+03  0.17217610559E+03 0.  0.
        -24    2    3    3    0    0  0.55546585033E+02  0.32577113485E+02 -0.16503252651E+03  0.19391122832E+03  0.78861512983E+02 0.  0.
          6    2    1    2  501    0 -0.13934854153E+03 -0.56267864633E+02  0.13168764107E+03  0.26540834356E+03  0.17468790857E+03 0.  0.
         24    2    5    5    0    0 -0.48321383082E+02  0.37502567164E+02  0.62800231106E+02  0.11760305709E+03  0.78391398786E+02 0.  0.
          5    1    5    5  501    0 -0.91027158452E+02 -0.93770431797E+02  0.68887409966E+02  0.14780528646E+03  0.47000000000E+01 0. -1.
        -13    1    6    6    0    0  0.29699737806E+01  0.94671356783E+01 -0.16400060922E+02  0.19167926347E+02  0.00000000000E+00 0.  1.
         14    1    6    6    0    0 -0.51291356862E+02  0.28035431486E+02  0.79200292028E+02  0.98435130745E+02  0.00000000000E+00 0. -1.
         -5    1    3    3    0  503  0.83801956501E+02  0.23690751148E+02 -0.54669802589E+03  0.55361073067E+03  0.47000000000E+01 0.  1.
         11    1    4    4    0    0  0.46696342544E+02  0.14813972891E+01 -0.15205944240E+03  0.15907487849E+03  0.00000000000E+00 0. -1.
        -12    1    4    4    0    0  0.88502424889E+01  0.31095716196E+02 -0.12973084111E+02  0.34836349826E+02  0.00000000000E+00 0.  1.
</event>
<event>
12    1  0.1594973E-001  0.4059299E+03  0.7818608E-02  0.1041973E+00
         21   -1    0    0  503  502  0.00000000000E+00  0.00000000000E+00  0.58332921532E+03  0.58332921532E+03  0.00000000000E+00 0.  1.
         21   -1    0    0  501  503 -0.00000000000E+00 -0.00000000000E+00 -0.55070662310E+03  0.55070662310E+03  0.00000000000E+00 0. -1.
          6    2    1    2  501    0  0.14156565572E+03  0.33597418297E+03 -0.38074744471E+03  0.55654979591E+03  0.17849249895E+03 0.  0.
         24    2    3    3    0    0  0.10344020027E+03  0.17946475051E+03 -0.12532580875E+03  0.25453811582E+03  0.78585128089E+02 0.  0.
         -6    2    1    2    0  502 -0.14156565572E+03 -0.33597418297E+03  0.41337003694E+03  0.57748604251E+03  0.17232485414E+03 0.  0.
        -24    2    5    5    0    0 -0.34185306667E+02 -0.75785193928E+02  0.76632172842E+02  0.13857451555E+03  0.80114765402E+02 0.  0.
          5    1    3    3  501    0  0.38125455451E+02  0.15650943245E+03 -0.25542163595E+03  0.30201168009E+03  0.47000000000E+01 0. -1.
        -13    1    4    4    0    0  0.56847206326E+02  0.30836093850E+02 -0.48650242016E+02  0.80927841928E+02  0.00000000000E+00 0.  1.
         14    1    4    4    0    0  0.46592993943E+02  0.14862865666E+03 -0.76675566738E+02  0.17361027389E+03  0.00000000000E+00 0. -1.
         -5    1    5    5    0  502 -0.10738034905E+03 -0.26018898904E+03  0.33673786409E+03  0.43891152696E+03  0.47000000000E+01 0.  1.
         13    1    6    6    0    0 -0.96131627460E+01 -0.70884536372E+02  0.16472476638E+02  0.73405537129E+02  0.00000000000E+00 0. -1.
        -14    1    6    6    0    0 -0.24572143921E+02 -0.49006575560E+01  0.60159696204E+02  0.65168978423E+02  0.00000000000E+00 0.  1.
</event>
<event>
12    1  0.1594973E-001  0.2309836E+03  0.7818608E-02  0.1126229E+00
         21   -1    0    0  503  502  0.00000000000E+00  0.00000000000E+00  0.18022122147E+03  0.18022122147E+03  0.00000000000E+00 0.  1.
         21   -1    0    0  501  503 -0.00000000000E+00 -0.00000000000E+00 -0.36072131049E+03  0.36072131049E+03  0.00000000000E+00 0. -1.
          6    2    1    2  501    0 -0.15267590214E+03  0.21483786305E+02  0.26320967467E+02  0.23089676765E+03  0.16985005098E+03 0.  0.
         24    2    3    3    0    0 -0.96123329419E+02  0.72674246198E+02 -0.12755282422E+02  0.14506146041E+03  0.79742645722E+02 0.  0.
         -6    2    1    2    0  502  0.15267590214E+03 -0.21483786305E+02 -0.20682105649E+03  0.31004576431E+03  0.17199401847E+03 0.  0.
        -24    2    5    5    0    0  0.77213378975E+02  0.28428467855E+02 -0.18312261026E+03  0.21639998559E+03  0.80777346442E+02 0.  0.
          5    1    3    3  501    0 -0.56552572717E+02 -0.51190459893E+02  0.39076249888E+02  0.85835307248E+02  0.47000000000E+01 0. -1.
        -11    1    4    4    0    0 -0.40563251325E+02  0.87694350153E+01  0.29017041744E+02  0.50638612344E+02  0.00000000000E+00 0.  1.
         12    1    4    4    0    0 -0.55560078094E+02  0.63904811183E+02 -0.41772324166E+02  0.94422848063E+02  0.00000000000E+00 0. -1.
         -5    1    5    5    0  502  0.75462523161E+02 -0.49912254160E+02 -0.23698446223E+02  0.93645778712E+02  0.47000000000E+01 0.  1.
         13    1    6    6    0    0  0.37607497184E+02 -0.26804188209E+02 -0.89450605952E+02  0.10066876008E+03  0.00000000000E+00 0. -1.
        -14    1    6    6    0    0  0.39605881791E+02  0.55232656064E+02 -0.93672004311E+02  0.11573122552E+03  0.00000000000E+00 0.  1.
</event>
<event>
12    1  0.1594973E-001  0.2009304E+03  0.7818608E-02  0.1149123E+00
         21   -1    0    0  503  502  0.00000000000E+00  0.00000000000E+00  0.50575729922E+02  0.50575729922E+02  0.00000000000E+00 0. -1.
         21   -1    0    0  501  503 -0.00000000000E+00 -0.00000000000E+00 -0.84753987148E+03  0.84753987148E+03  0.00000000000E+00 0.  1.
          6    2    1    2  501    0 -0.99810898535E+02  0.28051479933E+02 -0.28606378292E+03  0.34912362139E+03  0.17118911800E+03 0.  0.
         24    2    3    3    0    0 -0.86063759517E+02 -0.37880951437E+02 -0.23031960317E+03  0.26157036381E+03  0.80808405717E+02 0.  0.
         -6    2    1    2    0  502  0.99810898535E+02 -0.28051479933E+02 -0.51090035863E+03  0.54899198000E+03  0.17211599770E+03 0.  0.
        -24    2    5    5    0    0  0.13017811688E+03  0.82102442847E+01 -0.41332436742E+03  0.44045514453E+03  0.78421625954E+02 0.  0.
          5    1    3    3  501    0 -0.13747139018E+02  0.65932431370E+02 -0.55744179751E+02  0.87553257584E+02  0.47000000000E+01 0. -1.
        -11    1    4    4    0    0 -0.71767660661E+02 -0.30334072865E+00 -0.19594114873E+03  0.20867108783E+03  0.00000000000E+00 0.  1.
         12    1    4    4    0    0 -0.14296098856E+02 -0.37577610708E+02 -0.34378454445E+02  0.52899275978E+02  0.00000000000E+00 0. -1.
         -5    1    5    5    0  502 -0.30367218342E+02 -0.36261724218E+02 -0.97575991212E+02  0.10853683547E+03  0.47000000000E+01 0.  1.
         11    1    6    6    0    0  0.94105627701E+02  0.52805568566E+01 -0.37911105386E+03  0.39065194817E+03  0.00000000000E+00 0. -1.
        -12    1    6    6    0    0  0.36072489175E+02  0.29296874281E+01 -0.34213313560E+02  0.49803196368E+02  0.00000000000E+00 0.  1.
</event>
<event>
12    1  0.1594973E-001  0.2033220E+03  0.7818608E-02  0.1147296E+00
         21   -1    0    0  503  502  0.00000000000E+00  0.00000000000E+00  0.16285531428E+03  0.16285531428E+03  0.00000000000E+00 0.  1.
         21   -1    0    0  501  503 -0.00000000000E+00 -0.00000000000E+00 -0.27176848443E+03  0.27176848443E+03  0.00000000000E+00 0.  1.
          6    2    1    2  501    0  0.59005105288E+02 -0.90480702234E+02  0.45543197778E+01  0.20178328692E+03  0.17037427366E+03 0.  0.
         24    2    3    3    0    0 -0.33264375083E+02 -0.25205931975E+02  0.53214493417E+01  0.88658881383E+02  0.78039872941E+02 0.  0.
         -6    2    1    2    0  502 -0.59005105288E+02  0.90480702234E+02 -0.11346748992E+03  0.23284051178E+03  0.17225409351E+03 0.  0.
        -24    2    5    5    0    0 -0.96975255326E+02  0.31127568213E+02 -0.91399662597E+02  0.15885669048E+03  0.80674804853E+02 0.  0.
          5    1    3    3  501    0  0.92269480371E+02 -0.65274770259E+02 -0.76712956391E+00  0.11312440554E+03  0.47000000000E+01 0. -1.
        -11    1    4    4    0    0 -0.37883149306E+01 -0.49001174847E+02 -0.49856861931E+01  0.49399630902E+02  0.00000000000E+00 0.  1.
         12    1    4    4    0    0 -0.29476060152E+02  0.23795242872E+02  0.10307135535E+02  0.39259250482E+02  0.00000000000E+00 0. -1.
         -5    1    5    5    0  502  0.37970150039E+02  0.59353134021E+02 -0.22067827328E+02  0.73983821306E+02  0.47000000000E+01 0.  1.
         13    1    6    6    0    0  0.81193345096E+01  0.91722044196E+01 -0.36032036326E+02  0.38057332652E+02  0.00000000000E+00 0. -1.
        -14    1    6    6    0    0 -0.10509458984E+03  0.21955363793E+02 -0.55367626271E+02  0.12079935783E+03  0.00000000000E+00 0.  1.
</event>
<event>
12    1  0.1594973E-001  0.2199949E+03  0.7818608E-02  0.1134022E+00
         21   -1    0    0  503  502  0.00000000000E+00  0.00000000000E+00  0.42040819417E+03  0.42040819417E+03  0.00000000000E+00 0.  1.
         21   -1    0    0  501  503 -0.00000000000E+00 -0.00000000000E+00 -0.15758349775E+03  0.15758349775E+03  0.00000000000E+00 0. -1.
          6    2    1    2  501    0  0.10906257927E+03 -0.82621044371E+02 -0.19426156220E+02  0.22013234970E+03  0.17134757853E+03 0.  0.
         24    2    3    3    0    0  0.67863611057E+02 -0.10963620731E+03  0.24744463752E+02  0.15379753471E+03  0.80098848555E+02 0.  0.
         -6    2    1    2    0  502 -0.10906257927E+03  0.82621044371E+02  0.28225085264E+03  0.35785934223E+03  0.17226979374E+03 0.  0.
        -24    2    5    5    0    0 -0.62816069552E+02  0.12125558291E+03  0.17691575779E+03  0.23641413056E+03  0.77095270902E+02 0.  0.
          5    1    3    3  501    0  0.41198968215E+02  0.27015162934E+02 -0.44170619973E+02  0.66334814985E+02  0.47000000000E+01 0. -1.
        -13    1    4    4    0    0 -0.75278166172E+01 -0.61865395426E+02  0.14255461211E+02  0.63931317432E+02  0.00000000000E+00 0.  1.
         14    1    4    4    0    0  0.75391427674E+02 -0.47770811879E+02  0.10489002541E+02  0.89866217283E+02  0.00000000000E+00 0. -1.
         -5    1    5    5    0  502 -0.46246509721E+02 -0.38634538538E+02  0.10533509485E+03  0.12144521166E+03  0.47000000000E+01 0.  1.
         11    1    6    6    0    0  0.13190309250E+02  0.54724684593E+01  0.39255958425E+01  0.14810215119E+02  0.00000000000E+00 0. -1.
        -12    1    6    6    0    0 -0.76006378801E+02  0.11578311445E+03  0.17299016195E+03  0.22160391544E+03  0.00000000000E+00 0.  1.
</event>
<event>
12    1  0.1594973E-001  0.2190803E+03  0.7818608E-02  0.1137644E+00
         21   -1    0    0  503  502  0.00000000000E+00  0.00000000000E+00  0.10076614251E+03  0.10076614251E+03  0.00000000000E+00 0. -1.
         21   -1    0    0  501  503 -0.00000000000E+00 -0.00000000000E+00 -0.71681937717E+03  0.71681937717E+03  0.00000000000E+00 0. -1.
          6    2    1    2  501    0  0.73308353886E+02  0.70466392717E+02 -0.56782686543E+03  0.60862430630E+03  0.19405300788E+03 0.  0.
         24    2    3    3    0    0 -0.24963585085E+02 -0.17450356390E+02 -0.22472389096E+03  0.24102606113E+03  0.81639692906E+02 0.  0.
         -6    2    1    2    0  502 -0.73308353886E+02 -0.70466392717E+02 -0.48226369233E+02  0.20896121338E+03  0.17606640439E+03 0.  0.
        -24    2    5    5    0    0 -0.18806712259E+01 -0.72555625157E+02  0.21358210610E+02  0.10910941072E+03  0.78618284647E+02 0.  0.
          5    1    3    3  501    0  0.98271938971E+02  0.87916749106E+02 -0.34310297446E+03  0.36759824516E+03  0.47000000000E+01 0. -1.
        -13    1    4    4    0    0 -0.46618578998E+02  0.13601276859E+02 -0.11073900845E+03  0.12091904164E+03  0.00000000000E+00 0.  1.
         14    1    4    4    0    0  0.21654993913E+02 -0.31051633249E+02 -0.11398488252E+03  0.12010701949E+03  0.00000000000E+00 0. -1.
         -5    1    5    5    0  502 -0.71427682660E+02  0.20892324402E+01 -0.69584579843E+02  0.99851802659E+02  0.47000000000E+01 0.  1.
         11    1    6    6    0    0 -0.40060597900E+02 -0.31792821831E+02  0.97114373772E+01  0.52057151670E+02  0.00000000000E+00 0. -1.
        -12    1    6    6    0    0  0.38179926674E+02 -0.40762803326E+02  0.11646773232E+02  0.57052259049E+02  0.00000000000E+00 0.  1.
</event>
<event>
12    1  0.1594973E-001  0.2389738E+03  0.7818608E-02  0.1121445E+00
         21   -1    0    0  501  502  0.00000000000E+00  0.00000000000E+00  0.88674438103E+03  0.88674438103E+03  0.00000000000E+00 0. -1.
         21   -1    0    0  502  503 -0.00000000000E+00 -0.00000000000E+00 -0.10183547161E+03  0.10183547161E+03  0.00000000000E+00 0.  1.
         -6    2    1    2    0  503  0.36915862537E+01  0.16603082028E+03  0.83815342977E+02  0.24787702043E+03  0.16382351616E+03 0.  0.
        -24    2    3    3    0    0 -0.37598990456E+01  0.35903468382E+02  0.78932217471E+02  0.11736040364E+03  0.78993502925E+02 0.  0.
          6    2    1    2  501    0 -0.36915862537E+01 -0.16603082028E+03  0.70109356644E+03  0.74070283222E+03  0.17183898177E+03 0.  0.
         24    2    5    5    0    0  0.16420157601E+02 -0.17687877774E+03  0.47729017389E+03  0.51568681292E+03  0.81063279829E+02 0.  0.
          5    1    5    5  501    0 -0.20111743854E+02  0.10847957465E+02  0.22380339255E+03  0.22501601930E+03  0.47000000000E+01 0. -1.
        -13    1    6    6    0    0 -0.15167208115E+02 -0.12902208125E+03  0.25584393027E+03  0.28693702847E+03  0.00000000000E+00 0.  1.
         14    1    6    6    0    0  0.31587365716E+02 -0.47856696494E+02  0.22144624362E+03  0.22874978445E+03  0.00000000000E+00 0. -1.
         -5    1    3    3    0  503  0.74514852992E+01  0.13012735190E+03  0.48831255068E+01  0.13051661679E+03  0.47000000000E+01 0.  1.
         11    1    4    4    0    0  0.16032877952E+02  0.34631150310E+02  0.87724081291E+02  0.95665480637E+02  0.00000000000E+00 0. -1.
        -12    1    4    4    0    0 -0.19792776997E+02  0.12723180727E+01 -0.87918638202E+01  0.21694923000E+02  0.00000000000E+00 0.  1.
</event>
<event>
12    1  0.1594973E-001  0.2043296E+03  0.7818608E-02  0.1146461E+00
         21   -1    0    0  503  502  0.00000000000E+00  0.00000000000E+00  0.26552347625E+03  0.26552347625E+03  0.00000000000E+00 0. -1.
         21   -1    0    0  501  503 -0.00000000000E+00 -0.00000000000E+00 -0.55160303293E+03  0.55160303293E+03  0.00000000000E+00 0. -1.
          6    2    1    2  501    0  0.92660241714E+02 -0.54504294117E+02 -0.48886959098E+03  0.52924739478E+03  0.17190895680E+03 0.  0.
         24    2    3    3    0    0 -0.73433351371E+01 -0.63060303728E+02 -0.24138863726E+03  0.26214660269E+03  0.80136387650E+02 0.  0.
         -6    2    1    2    0  502 -0.92660241714E+02  0.54504294117E+02  0.20279003430E+03  0.28787911439E+03  0.17376405848E+03 0.  0.
        -24    2    5    5    0    0 -0.12013717794E+03  0.39106429848E+02  0.96008051895E+02  0.17644950426E+03  0.77166230598E+02 0.  0.
          5    1    3    3  501    0  0.10000357685E+03  0.85560096110E+01 -0.24748095372E+03  0.26710079209E+03  0.47000000000E+01 0. -1.
        -11    1    4    4    0    0 -0.43197011741E+01 -0.29202994325E+02 -0.22002935939E+03  0.22200088669E+03  0.00000000000E+00 0.  1.
         12    1    4    4    0    0 -0.30236339631E+01 -0.33857309403E+02 -0.21359277874E+02  0.40145716006E+02  0.00000000000E+00 0. -1.
         -5    1    5    5    0  502  0.27476936228E+02  0.15397864269E+02  0.10678198240E+03  0.11142961014E+03  0.47000000000E+01 0.  1.
         11    1    6    6    0    0 -0.92207980037E+02  0.39408029317E+02  0.10680796615E+03  0.14650339924E+03  0.00000000000E+00 0. -1.
        -12    1    6    6    0    0 -0.27929197904E+02 -0.30159946846E+00 -0.10799914250E+02  0.29946105016E+02  0.00000000000E+00 0.  1.
</event>
<event>
12    1  0.1594973E-001  0.1852366E+03  0.7818608E-02  0.1163020E+00
         21   -1    0    0  501  502  0.00000000000E+00  0.00000000000E+00  0.64273563681E+02  0.64273563681E+02  0.00000000000E+00 0.  1.
         21   -1    0    0  502  503 -0.00000000000E+00 -0.00000000000E+00 -0.81114757304E+03  0.81114757304E+03  0.00000000000E+00 0.  1.
         -6    2    1    2    0  503 -0.46947537707E+02 -0.47877454153E+02 -0.63098343133E+03  0.65761136164E+03  0.17267394254E+03 0.  0.
        -24    2    3    3    0    0 -0.81632597993E+02  0.66328413742E+01 -0.31651664100E+03  0.33654146591E+03  0.79809138604E+02 0.  0.
          6    2    1    2  501    0  0.46947537707E+02  0.47877454153E+02 -0.11589057803E+03  0.21780977508E+03  0.17179682806E+03 0.  0.
         24    2    5    5    0    0  0.95460179005E+02  0.17005655492E+02 -0.89674586902E+02  0.15443854731E+03  0.80049330199E+02 0.  0.
          5    1    5    5  501    0 -0.48512641298E+02  0.30871798661E+02 -0.26215991129E+02  0.63371227771E+02  0.47000000000E+01 0. -1.
        -13    1    6    6    0    0  0.71686836900E+02  0.13254395434E+02 -0.12969808526E+02  0.74046590173E+02  0.00000000000E+00 0.  1.
         14    1    6    6    0    0  0.23773342105E+02  0.37512600587E+01 -0.76704778376E+02  0.80391957139E+02  0.00000000000E+00 0. -1.
         -5    1    3    3    0  503  0.34685060286E+02 -0.54510295528E+02 -0.31446679032E+03  0.32106989573E+03  0.47000000000E+01 0.  1.
         13    1    4    4    0    0 -0.46793925481E+02 -0.35647459368E+02 -0.14463106562E+03  0.15613634415E+03  0.00000000000E+00 0. -1.
        -14    1    4    4    0    0 -0.34838672513E+02  0.42280300742E+02 -0.17188557538E+03  0.18040512176E+03  0.00000000000E+00 0.  1.
</event>
<event>
12    1  0.1594973E-001  0.2951768E+03  0.7818608E-02  0.1087866E+00
         21   -1    0    0  503  502  0.00000000000E+00  0.00000000000E+00  0.81903721799E+03  0.81903721799E+03  0.00000000000E+00 0. -1.
         21   -1    0    0  501  503 -0.00000000000E+00 -0.00000000000E+00 -0.17565192863E+03  0.17565192863E+03  0.00000000000E+00 0.  1.
          6    2    1    2  501    0  0.23867504116E+03  0.22285854577E+02  0.76841348480E+01  0.29380019413E+03  0.16969700515E+03 0.  0.
         24    2    3    3    0    0  0.16984616835E+03 -0.21915105324E+02  0.58167680106E+02  0.19756186014E+03  0.79493501789E+02 0.  0.
         -6    2    1    2    0  502 -0.23867504116E+03 -0.22285854577E+02  0.63570115451E+03  0.70088895248E+03  0.17224091059E+03 0.  0.
        -24    2    5    5    0    0 -0.32173338573E+02  0.60596743222E+01  0.21553630436E+03  0.23183990017E+03  0.78879638961E+02 0.  0.
          5    1    3    3  501    0  0.68828872812E+02  0.44200959901E+02 -0.50483545258E+02  0.96238333997E+02  0.47000000000E+01 0. -1.
        -13    1    4    4    0    0  0.67775125489E+02  0.17510741616E+02 -0.67624869395E+01  0.70326559255E+02  0.00000000000E+00 0.  1.
         14    1    4    4    0    0  0.10207104286E+03 -0.39425846940E+02  0.64930167045E+02  0.12723530088E+03  0.00000000000E+00 0. -1.
         -5    1    5    5    0  502 -0.20650170259E+03 -0.28345528899E+02  0.42016485015E+03  0.46904905232E+03  0.47000000000E+01 0.  1.
         11    1    6    6    0    0 -0.27790370766E+02 -0.55817132242E+01  0.21741913098E+03  0.21925906765E+03  0.00000000000E+00 0. -1.
        -12    1    6    6    0    0 -0.43829678066E+01  0.11641387546E+02 -0.18828266160E+01  0.12580832519E+02  0.00000000000E+00 0.  1.
</event>
<event>
12    1  0.1594973E-001  0.2420365E+03  0.7818608E-02  0.1118500E+00
         21   -1    0    0  503  502  0.00000000000E+00  0.00000000000E+00  0.21797886018E+03  0.21797886018E+03  0.00000000000E+00 0.  1.
         21   -1    0    0  501  503 -0.00000000000E+00 -0.00000000000E+00 -0.29759509157E+03  0.29759509157E+03  0.00000000000E+00 0. -1.
          6    2    1    2  501    0 -0.10853972969E+03 -0.13141395067E+03  0.40999868268E+02  0.24514855167E+03  0.17136605217E+03 0.  0.
         24    2    3    3    0    0 -0.45707714456E+02 -0.14643201543E+03  0.48567829579E+02  0.17993529806E+03  0.80537861383E+02 0.  0.
         -6    2    1    2    0  502  0.10853972969E+03  0.13141395067E+03 -0.12061609966E+03  0.27042540007E+03  0.17184630969E+03 0.  0.
        -24    2    5    5    0    0  0.13261223726E+03  0.92016903051E+02 -0.51658681022E+02  0.18730603671E+03  0.79760993878E+02 0.  0.
          5    1    3    3  501    0 -0.62832015236E+02  0.15018064755E+02 -0.75679613108E+01  0.65213253607E+02  0.47000000000E+01 0. -1.
        -13    1    4    4    0    0 -0.33954691229E+02 -0.13292514862E+03  0.10171778321E+02  0.13756991410E+03  0.00000000000E+00 0.  1.
         14    1    4    4    0    0 -0.11753023227E+02 -0.13506866807E+02  0.38396051258E+02  0.42365383961E+02  0.00000000000E+00 0. -1.
         -5    1    5    5    0  502 -0.24072507563E+02  0.39397047621E+02 -0.68957418637E+02  0.83119363367E+02  0.47000000000E+01 0.  1.
         11    1    6    6    0    0  0.10818259171E+03  0.10474860017E+03 -0.33364224065E+02  0.15423655155E+03  0.00000000000E+00 0. -1.
        -12    1    6    6    0    0  0.24429645549E+02 -0.12731697120E+02 -0.18294456956E+02  0.33069485157E+02  0.00000000000E+00 0.  1.
</event>
<event>
12    1  0.1594973E-001  0.2347318E+03  0.7818608E-02  0.1123529E+00
         21   -1    0    0  503  502  0.00000000000E+00  0.00000000000E+00  0.90481685565E+03  0.90481685565E+03  0.00000000000E+00 0. -1.
         21   -1    0    0  501  503 -0.00000000000E+00 -0.00000000000E+00 -0.24703741150E+03  0.24703741150E+03  0.00000000000E+00 0.  1.
          6    2    1    2  501    0 -0.15164688584E+03  0.42781549930E+02 -0.17157245478E+03  0.28992410150E+03  0.17260312394E+03 0.  0.
         24    2    3    3    0    0 -0.42118488579E+02  0.56177706163E+02 -0.31133805333E+02  0.11125952452E+03  0.80495131608E+02 0.  0.
         -6    2    1    2    0  502  0.15164688584E+03 -0.42781549930E+02  0.82935189893E+03  0.86193016565E+03  0.17398850309E+03 0.  0.
        -24    2    5    5    0    0  0.14609695148E+03 -0.85212827418E+02  0.74715295203E+03  0.76914023112E+03  0.68801280511E+02 0.  0.
          5    1    3    3  501    0 -0.10952839726E+03 -0.13396156234E+02 -0.14043864945E+03  0.17866457698E+03  0.47000000000E+01 0. -1.
        -13    1    4    4    0    0 -0.24369432756E+02  0.31570350849E+02 -0.58231743393E+02  0.70579687192E+02  0.00000000000E+00 0.  1.
         14    1    4    4    0    0 -0.17749055823E+02  0.24607355314E+02  0.27097938059E+02  0.40679837330E+02  0.00000000000E+00 0. -1.
         -5    1    5    5    0  502  0.55499343575E+01  0.42431277489E+02  0.82198946895E+02  0.92789934536E+02  0.47000000000E+01 0.  1.
         11    1    6    6    0    0  0.12166777729E+03 -0.96827266080E+02  0.64244010611E+03  0.66099005849E+03  0.00000000000E+00 0. -1.
        -12    1    6    6    0    0  0.24429174194E+02  0.11614438661E+02  0.10471284593E+03  0.10815017263E+03  0.00000000000E+00 0.  1.
</event>
<event>
12    1  0.1594973E-001  0.2175693E+03  0.7818608E-02  0.1135955E+00
         21   -1    0    0  501  502  0.00000000000E+00  0.00000000000E+00  0.46134916696E+03  0.46134916696E+03  0.00000000000E+00 0. -1.
         21   -1    0    0  502  503 -0.00000000000E+00 -0.00000000000E+00 -0.10206114110E+03  0.10206114110E+03  0.00000000000E+00 0. -1.
         -6    2    1    2    0  503  0.12669016861E+03  0.38454330101E+02  0.18649389179E+03  0.28557182912E+03  0.17100340226E+03 0.  0.
        -24    2    3    3    0    0  0.33483456658E+02  0.79592431442E+02  0.93463154248E+02  0.14752602997E+03  0.74648987296E+02 0.  0.
          6    2    1    2  501    0 -0.12669016861E+03 -0.38454330101E+02  0.17279413407E+03  0.27783847895E+03  0.17264783025E+03 0.  0.
         24    2    5    5    0    0 -0.62680962890E+02  0.16187280107E+02  0.16287217679E+03  0.19296551966E+03  0.80730506368E+02 0.  0.
          5    1    5    5  501    0 -0.64009205719E+02 -0.54641610208E+02  0.99219572795E+01  0.84872959293E+02  0.47000000000E+01 0. -1.
        -13    1    6    6    0    0  0.17646142249E+02  0.12586318417E+02  0.48855338628E+02  0.53447599198E+02  0.00000000000E+00 0.  1.
         14    1    6    6    0    0 -0.80327105139E+02  0.36009616906E+01  0.11401683816E+03  0.13951792046E+03  0.00000000000E+00 0. -1.
         -5    1    3    3    0  503  0.93206711951E+02 -0.41138101341E+02  0.93030737542E+02  0.13804579915E+03  0.47000000000E+01 0.  1.
         11    1    4    4    0    0  0.49565873430E+02  0.44735528020E+02  0.85222821307E+02  0.10826344049E+03  0.00000000000E+00 0. -1.
        -12    1    4    4    0    0 -0.16082416772E+02  0.34856903422E+02  0.82403329407E+01  0.39262589476E+02  0.00000000000E+00 0.  1.
</event>
<event>
12    1  0.1594973E-001  0.2133780E+03  0.7818608E-02  0.1141450E+00
         21   -1    0    0  503  502  0.00000000000E+00  0.00000000000E+00  0.93676958088E+02  0.93676958088E+02  0.00000000000E+00 0. -1.
         21   -1    0    0  501  503 -0.00000000000E+00 -0.00000000000E+00 -0.52592673830E+03  0.52592673830E+03  0.00000000000E+00 0. -1.
          6    2    1    2  501    0  0.34368279477E+02 -0.99317487407E+02 -0.33341573744E+03  0.39584874798E+03  0.18570146840E+03 0.  0.
         24    2    3    3    0    0  0.15906080946E+02 -0.13932056269E+03 -0.21048009140E+03  0.26517219357E+03  0.79694421182E+02 0.  0.
         -6    2    1    2    0  502 -0.34368279477E+02  0.99317487407E+02 -0.98834042778E+02  0.22375494841E+03  0.17103498761E+03 0.  0.
        -24    2    5    5    0    0 -0.77199901248E+02  0.37205217739E+02 -0.27014960816E+02  0.11948341634E+03  0.78755480395E+02 0.  0.
          5    1    3    3  501    0  0.18462198531E+02  0.40003075278E+02 -0.12293564604E+03  0.13067655441E+03  0.47000000000E+01 0. -1.
        -11    1    4    4    0    0  0.19959348028E+02 -0.98880202385E+02 -0.80717526543E+02  0.12919361087E+03  0.00000000000E+00 0.  1.
         12    1    4    4    0    0 -0.40532670824E+01 -0.40440360301E+02 -0.12976256486E+03  0.13597858270E+03  0.00000000000E+00 0. -1.
         -5    1    5    5    0  502  0.42831621771E+02  0.62112269668E+02 -0.71819081962E+02  0.10427153207E+03  0.47000000000E+01 0.  1.
         13    1    6    6    0    0  0.37308553575E+01 -0.10189650976E+02  0.13498947251E+02  0.17319637571E+02  0.00000000000E+00 0. -1.
        -14    1    6    6    0    0 -0.80930756605E+02  0.47394868715E+02 -0.40513908067E+02  0.10216377877E+03  0.00000000000E+00 0.  1.
</event>
<event>
12    1  0.1594973E-001  0.2605055E+03  0.7818608E-02  0.1106952E+00
         21   -1    0    0  503  502  0.00000000000E+00  0.00000000000E+00  0.39254007606E+03  0.39254007606E+03  0.00000000000E+00 0. -1.
         21   -1    0    0  501  503 -0.00000000000E+00 -0.00000000000E+00 -0.20571211848E+03  0.20571211848E+03  0.00000000000E+00 0. -1.
          6    2    1    2  501    0 -0.17211648854E+03  0.92915555882E+02 -0.26867530210E+02  0.26188736178E+03  0.17206318586E+03 0.  0.
         24    2    3    3    0    0 -0.29700258237E+02  0.47256296668E+02  0.31224116152E+02  0.10137605382E+03  0.78656823887E+02 0.  0.
         -6    2    1    2    0  502  0.17211648854E+03 -0.92915555882E+02  0.21369548779E+03  0.33636483275E+03  0.17093318302E+03 0.  0.
        -24    2    5    5    0    0  0.15790248681E+03 -0.91698600991E+02  0.10377484466E+03  0.22542270094E+03  0.81880076638E+02 0.  0.
          5    1    3    3  501    0 -0.14241623031E+03  0.45659259214E+02 -0.58091646362E+02  0.16051130796E+03  0.47000000000E+01 0. -1.
        -13    1    4    4    0    0 -0.42570359438E+02  0.21896334031E+02  0.48463152622E+02  0.68120203381E+02  0.00000000000E+00 0.  1.
         14    1    4    4    0    0  0.12870101200E+02  0.25359962637E+02 -0.17239036469E+02  0.33255850436E+02  0.00000000000E+00 0. -1.
         -5    1    5    5    0  502  0.14214001731E+02 -0.12169548918E+01  0.10992064313E+03  0.11094213181E+03  0.47000000000E+01 0.  1.
         11    1    6    6    0    0  0.14504754399E+03 -0.10691686235E+03  0.93383348509E+02  0.20295431813E+03  0.00000000000E+00 0. -1.
        -12    1    6    6    0    0  0.12854942826E+02  0.15218261355E+02  0.10391496150E+02  0.22468382807E+02  0.00000000000E+00 0.  1.
</event>
<event>
12    1  0.1594973E-001  0.3697300E+03  0.7818608E-02  0.1054993E+00
         21   -1    0    0  503  502  0.00000000000E+00  0.00000000000E+00  0.10495252686E+04  0.10495252686E+04  0.00000000000E+00 0. -1.
         21   -1    0    0  501  503 -0.00000000000E+00 -0.00000000000E+00 -0.23593446349E+03  0.23593446349E+03  0.00000000000E+00 0.  1.
          6    2    1    2  501    0 -0.31229325673E+03  0.98127932298E+02 -0.24217851852E+02  0.37052226283E+03  0.17188389574E+03 0.  0.
         24    2    3    3    0    0 -0.75188854344E+02  0.58869653684E+02 -0.39060015661E+02  0.12968603239E+03  0.78573419366E+02 0.  0.
         -6    2    1    2    0  502  0.31229325673E+03 -0.98127932298E+02  0.83780865701E+03  0.91493746930E+03  0.16742478211E+03 0.  0.
        -24    2    5    5    0    0  0.31709721234E+03 -0.11094436735E+03  0.74725631979E+03  0.82323602562E+03  0.80413006923E+02 0.  0.
          5    1    3    3  501    0 -0.23710440238E+03  0.39258278614E+02  0.14842163808E+02  0.24083623045E+03  0.47000000000E+01 0. -1.
        -13    1    4    4    0    0 -0.35773944915E+02  0.20301402148E+02 -0.58239294821E+02  0.71300333275E+02  0.00000000000E+00 0.  1.
         14    1    4    4    0    0 -0.39414909429E+02  0.38568251536E+02  0.19179279160E+02  0.58385699113E+02  0.00000000000E+00 0. -1.
         -5    1    5    5    0  502 -0.48039556173E+01  0.12816435050E+02  0.90552337223E+02  0.91701443682E+02  0.47000000000E+01 0.  1.
         11    1    6    6    0    0  0.25814879719E+03 -0.79270949305E+02  0.66122338273E+03  0.71424158851E+03  0.00000000000E+00 0. -1.
        -12    1    6    6    0    0  0.58948415157E+02 -0.31673418044E+02  0.86032937060E+02  0.10899443710E+03  0.00000000000E+00 0.  1.
</event>
<event>
12    1  0.1594973E-001  0.1770488E+03  0.7818608E-02  0.1170760E+00
         21   -1    0    0  501  502  0.00000000000E+00  0.00000000000E+00  0.50390413132E+03  0.50390413132E+03  0.00000000000E+00 0. -1.
         21   -1    0    0  502  503 -0.00000000000E+00 -0.00000000000E+00 -0.10802302405E+03  0.10802302405E+03  0.00000000000E+00 0. -1.
         -6    2    1    2    0  503 -0.75536517606E+01 -0.42077089584E+02 -0.14441453857E+01  0.17705466212E+03  0.17181015307E+03 0.  0.
        -24    2    3    3    0    0  0.52631011081E+02  0.42130418450E+01 -0.14255674229E+02  0.99910672200E+02  0.83613067894E+02 0.  0.
          6    2    1    2  501    0  0.75536517606E+01  0.42077089584E+02  0.39732525265E+03  0.43487249325E+03  0.17152023165E+03 0.  0.
         24    2    5    5    0    0  0.62780166252E+02 -0.58796423500E+01  0.17666173766E+03  0.20235519735E+03  0.75910057796E+02 0.  0.
          5    1    5    5  501    0 -0.55226514491E+02  0.47956731934E+02  0.22066351500E+03  0.23251729590E+03  0.47000000000E+01 0. -1.
        -11    1    6    6    0    0 -0.16550647549E+02 -0.96544323921E+01  0.38077885901E+02  0.42626956187E+02  0.00000000000E+00 0.  1.
         12    1    6    6    0    0  0.79330813800E+02  0.37747900422E+01  0.13858385176E+03  0.15972824117E+03  0.00000000000E+00 0. -1.
         -5    1    3    3    0  503 -0.60184662842E+02 -0.46290131429E+02  0.12811528843E+02  0.77143989918E+02  0.47000000000E+01 0.  1.
         13    1    4    4    0    0  0.55832187232E+02  0.10781350313E+02 -0.42337480458E+02  0.70893814238E+02  0.00000000000E+00 0. -1.
        -14    1    4    4    0    0 -0.32011761504E+01 -0.65683084675E+01  0.28081806230E+02  0.29016857962E+02  0.00000000000E+00 0.  1.
</event>
<event>
12    1  0.1594973E-001  0.2442556E+03  0.7818608E-02  0.1117102E+00
         21   -1    0    0  503  502  0.00000000000E+00  0.00000000000E+00  0.42584882639E+03  0.42584882639E+03  0.00000000000E+00 0. -1.
         21   -1    0    0  501  503 -0.00000000000E+00 -0.00000000000E+00 -0.14977024527E+03  0.14977024527E+03  0.00000000000E+00 0. -1.
          6    2    1    2  501    0 -0.91294907125E+02  0.14618187975E+03  0.63610223999E+02  0.25240259722E+03  0.17308064147E+03 0.  0.
         24    2    3    3    0    0 -0.41308151905E+02  0.12574139472E+02  0.63530785772E+02  0.10967278159E+03  0.78278259326E+02 0.  0.
         -6    2    1    2    0  502  0.91294907125E+02 -0.14618187975E+03  0.21246835711E+03  0.32321647444E+03  0.17211096579E+03 0.  0.
        -24    2    5    5    0    0  0.10558276547E+03 -0.14400614618E+03  0.22879645139E+03  0.30091012165E+03  0.79458131372E+02 0.  0.
          5    1    3    3  501    0 -0.49986755221E+02  0.13360774027E+03  0.79438226933E-01  0.14272981563E+03  0.47000000000E+01 0. -1.
        -13    1    4    4    0    0  0.15630998568E+02 -0.18986296952E+01 -0.75443591690E+01  0.17459961805E+02  0.00000000000E+00 0.  1.
         14    1    4    4    0    0 -0.56939150473E+02  0.14472769167E+02  0.71075144941E+02  0.92212819783E+02  0.00000000000E+00 0. -1.
         -5    1    5    5    0  502 -0.14287858343E+02 -0.21757335672E+01 -0.16328094273E+02  0.22306352799E+02  0.47000000000E+01 0.  1.
         11    1    6    6    0    0  0.57731983221E+02 -0.98120362634E+02  0.83438393501E+02  0.14114727401E+03  0.00000000000E+00 0. -1.
        -12    1    6    6    0    0  0.47850782247E+02 -0.45885783545E+02  0.14535805788E+03  0.15976284764E+03  0.00000000000E+00 0.  1.
</event>
<event>
12    1  0.1594973E-001  0.2108695E+03  0.7818608E-02  0.1140979E+00
         21   -1    0    0  503  502  0.00000000000E+00  0.00000000000E+00  0.43538432088E+03  0.43538432088E+03  0.00000000000E+00 0. -1.
         21   -1    0    0  501  503 -0.00000000000E+00 -0.00000000000E+00 -0.11100957808E+03  0.11100957808E+03  0.00000000000E+00 0. -1.
          6    2    1    2  501    0 -0.87215877764E+02  0.84628474716E+02  0.83681558922E+02  0.22639519992E+03  0.17170787745E+03 0.  0.
         24    2    3    3    0    0 -0.18761614457E+02 -0.14712579958E+02  0.59701267967E+02  0.10330265075E+03  0.80862463901E+02 0.  0.
         -6    2    1    2    0  502  0.87215877764E+02 -0.84628474716E+02  0.24069318387E+03  0.31999869904E+03  0.17232925044E+03 0.  0.
        -24    2    5    5    0    0  0.12715448783E+03 -0.80266629071E+02  0.19093522081E+03  0.25587332840E+03  0.80024409543E+02 0.  0.
          5    1    3    3  501    0 -0.68454263307E+02  0.99341054674E+02  0.23980290955E+02  0.12309254918E+03  0.47000000000E+01 0. -1.
        -11    1    4    4    0    0 -0.26443995275E+02  0.25030129266E+02  0.49693415721E+02  0.61605420405E+02  0.00000000000E+00 0.  1.
         12    1    4    4    0    0  0.76823808177E+01 -0.39742709224E+02  0.10007852245E+02  0.41697230341E+02  0.00000000000E+00 0. -1.
         -5    1    5    5    0  502 -0.39938610069E+02 -0.43618456450E+01  0.49757963064E+02  0.64125370642E+02  0.47000000000E+01 0.  1.
         11    1    6    6    0    0  0.18657611410E+02 -0.40749548702E+02  0.18810615503E+02  0.48605261428E+02  0.00000000000E+00 0. -1.
        -12    1    6    6    0    0  0.10849687642E+03 -0.39517080369E+02  0.17212460531E+03  0.20726806697E+03  0.00000000000E+00 0.  1.
</event>
<event>
12    1  0.1594973E-001  0.1890472E+03  0.7818608E-02  0.1159707E+00
         21   -1    0    0  503  502  0.00000000000E+00  0.00000000000E+00  0.46259391945E+03  0.46259391945E+03  0.00000000000E+00 0. -1.
         21   -1    0    0  501  503 -0.00000000000E+00 -0.00000000000E+00 -0.10169128598E+03  0.10169128598E+03  0.00000000000E+00 0. -1.
          6    2    1    2  501    0 -0.35493775681E+02  0.71087221294E+02  0.32006883235E+03  0.37087830877E+03  0.16968636166E+03 0.  0.
         24    2    3    3    0    0 -0.24151314102E+02  0.16483895755E+02  0.57849676237E+02  0.10275305739E+03  0.79728294671E+02 0.  0.
         -6    2    1    2    0  502  0.35493775681E+02 -0.71087221294E+02  0.40833801123E+02  0.19340689666E+03  0.17153899621E+03 0.  0.
        -24    2    5    5    0    0  0.14910165016E+02 -0.65387972938E+02  0.91139367725E+02  0.13855339640E+03  0.79954732688E+02 0.  0.
          5    1    3    3  501    0 -0.11342461579E+02  0.54603325539E+02  0.26221915611E+03  0.26812525138E+03  0.47000000000E+01 0. -1.
        -11    1    4    4    0    0  0.10364527206E+02 -0.24915355317E+02  0.53499521427E+01  0.27510367913E+02  0.00000000000E+00 0.  1.
         12    1    4    4    0    0 -0.34515841308E+02  0.41399251071E+02  0.52499724094E+02  0.75242689482E+02  0.00000000000E+00 0. -1.
         -5    1    5    5    0  502  0.20583610665E+02 -0.56992483557E+01 -0.50305566602E+02  0.54853500262E+02  0.47000000000E+01 0.  1.
         13    1    6    6    0    0  0.91287981144E+01 -0.79317238815E+02  0.93864405956E+02  0.12322778110E+03  0.00000000000E+00 0. -1.
        -14    1    6    6    0    0  0.57813669011E+01  0.13929265877E+02 -0.27250382309E+01  0.15325615305E+02  0.00000000000E+00 0.  1.
</event>
<event>
12    1  0.1594973E-001  0.1825400E+03  0.7818608E-02  0.1165518E+00
         21   -1    0    0  503  502  0.00000000000E+00  0.00000000000E+00  0.13161437074E+03  0.13161437074E+03  0.00000000000E+00 0. -1.
         21   -1    0    0  501  503 -0.00000000000E+00 -0.00000000000E+00 -0.25326968907E+03  0.25326968907E+03  0.00000000000E+00 0. -1.
          6    2    1    2  501    0  0.58523948126E+02  0.32467293581E+02 -0.48963208225E+02  0.18899267487E+03  0.16982831843E+03 0.  0.
         24    2    3    3    0    0  0.61331453937E+01 -0.22742925847E+02  0.23315352246E+02  0.83924864181E+02  0.77103313995E+02 0.  0.
         -6    2    1    2    0  502 -0.58523948126E+02 -0.32467293581E+02 -0.72692110102E+02  0.19589138493E+03  0.16914524576E+03 0.  0.
        -24    2    5    5    0    0 -0.45211409083E+02 -0.20822430277E+01 -0.11169970720E+03  0.14447001170E+03  0.79663997170E+02 0.  0.
          5    1    3    3  501    0  0.52390802733E+02  0.55210219428E+02 -0.72278560470E+02  0.10506781069E+03  0.47000000000E+01 0. -1.
        -11    1    4    4    0    0 -0.71490343784E+01  0.15580636351E+02  0.37276549068E+02  0.41029331363E+02  0.00000000000E+00 0.  1.
         12    1    4    4    0    0  0.13282179772E+02 -0.38323562198E+02 -0.13961196823E+02  0.42895532819E+02  0.00000000000E+00 0. -1.
         -5    1    5    5    0  502 -0.13312539044E+02 -0.30385050553E+02  0.39007597100E+02  0.51421373226E+02  0.47000000000E+01 0.  1.
         13    1    6    6    0    0 -0.12108930637E+02  0.14463404201E+02  0.70116077462E+01  0.20124087692E+02  0.00000000000E+00 0. -1.
        -14    1    6    6    0    0 -0.33102478446E+02 -0.16545647228E+02 -0.11871131495E+03  0.12434592401E+03  0.00000000000E+00 0.  1.
</event>
<event>
12    1  0.1594973E-001  0.1857561E+03  0.7818608E-02  0.1163294E+00
         21   -1    0    0  503  502  0.00000000000E+00  0.00000000000E+00  0.87514344809E+02  0.87514344809E+02  0.00000000000E+00 0.  1.
         21   -1    0    0  501  503 -0.00000000000E+00 -0.00000000000E+00 -0.46998413878E+03  0.46998413878E+03  0.00000000000E+00 0.  1.
          6    2    1    2  501    0  0.43530388684E+02 -0.41243280978E+02 -0.31095112997E+03  0.36220981518E+03  0.17581081316E+03 0.  0.
         24    2    3    3    0    0  0.15552479058E+02 -0.94275404024E+02 -0.20064834955E+03  0.23657557276E+03  0.81108014657E+02 0.  0.
         -6    2    1    2    0  502 -0.43530388684E+02  0.41243280978E+02 -0.71518664006E+02  0.19528866841E+03  0.17154253625E+03 0.  0.
        -24    2    5    5    0    0 -0.82976218534E+02  0.65275889503E+02 -0.66523166007E+02  0.14859193656E+03  0.80673647503E+02 0.  0.
          5    1    3    3  501    0  0.27977909626E+02  0.53032123046E+02 -0.11030278042E+03  0.12563424243E+03  0.47000000000E+01 0. -1.
        -13    1    4    4    0    0  0.19763586675E+02 -0.88585808828E+02 -0.20764962490E+03  0.22661953050E+03  0.00000000000E+00 0.  1.
         14    1    4    4    0    0 -0.42111076172E+01 -0.56895951955E+01  0.70012753528E+01  0.99560422567E+01  0.00000000000E+00 0. -1.
         -5    1    5    5    0  502  0.39445829851E+02 -0.24032608525E+02 -0.49954979988E+01  0.46696731849E+02  0.47000000000E+01 0.  1.
         13    1    6    6    0    0 -0.53421014401E+02 -0.15513257483E+01 -0.61306219615E+01  0.53794013764E+02  0.00000000000E+00 0. -1.
        -14    1    6    6    0    0 -0.29555204134E+02  0.66827215251E+02 -0.60392544046E+02  0.94797922793E+02  0.00000000000E+00 0.  1.
</event>
<event>
12    1  0.1594973E-001  0.2135193E+03  0.7818608E-02  0.1139417E+00
         21   -1    0    0  503  502  0.00000000000E+00  0.00000000000E+00  0.97129839077E+03  0.97129839077E+03  0.00000000000E+00 0.  1.
         21   -1    0    0  501  503 -0.00000000000E+00 -0.00000000000E+00 -0.61089993017E+02  0.61089993017E+02  0.00000000000E+00 0. -1.
          6    2    1    2  501    0 -0.32763415712E+02 -0.12064975540E+03  0.19821060928E+03  0.28906387345E+03  0.16923555305E+03 0.  0.
         24    2    3    3    0    0 -0.27266748279E+02 -0.92366619166E+02  0.21995532665E+03  0.25266233664E+03  0.78631054549E+02 0.  0.
         -6    2    1    2    0  502  0.32763415712E+02  0.12064975540E+03  0.71199778847E+03  0.74332451033E+03  0.17309151332E+03 0.  0.
        -24    2    5    5    0    0 -0.28166308265E+02  0.12264066259E+03  0.43972236789E+03  0.46426826219E+03  0.79719416763E+02 0.  0.
          5    1    3    3  501    0 -0.54966674339E+01 -0.28283136237E+02 -0.21744717373E+02  0.36401536807E+02  0.47000000000E+01 0. -1.
        -13    1    4    4    0    0 -0.45877828738E+02 -0.94554030963E+02  0.19415872277E+03  0.22077782853E+03  0.00000000000E+00 0.  1.
         14    1    4    4    0    0  0.18611080459E+02  0.21874117970E+01  0.25796603873E+02  0.31884508113E+02  0.00000000000E+00 0. -1.
         -5    1    5    5    0  502  0.60929723977E+02 -0.19909071878E+01  0.27227542058E+03  0.27905624814E+03  0.47000000000E+01 0.  1.
         11    1    6    6    0    0 -0.38274429715E+02  0.42390406557E+02  0.27364491030E+03  0.27954143784E+03  0.00000000000E+00 0. -1.
        -12    1    6    6    0    0  0.10108121449E+02  0.80250256034E+02  0.16607745759E+03  0.18472682435E+03  0.00000000000E+00 0.  1.
</event>
<event>
12    1  0.1594973E-001  0.1826236E+03  0.7818608E-02  0.1166070E+00
         21   -1    0    0  503  502  0.00000000000E+00  0.00000000000E+00  0.14564948616E+03  0.14564948616E+03  0.00000000000E+00 0. -1.
         21   -1    0    0  501  503 -0.00000000000E+00 -0.00000000000E+00 -0.28332226648E+03  0.28332226648E+03  0.00000000000E+00 0. -1.
          6    2    1    2  501    0 -0.43950104138E+02 -0.19205013151E+02 -0.16671213530E+03  0.24727376018E+03  0.17621274707E+03 0.  0.
         24    2    3    3    0    0  0.60101339336E+01 -0.72806769578E+02 -0.10859336801E+03  0.15363052875E+03  0.80454163236E+02 0.  0.
         -6    2    1    2    0  502  0.43950104138E+02  0.19205013151E+02  0.29039354979E+02  0.18169799246E+03  0.17283064585E+03 0.  0.
        -24    2    5    5    0    0 -0.42699807327E+01 -0.26382303051E+02  0.67206827708E+02  0.10500232141E+03  0.76121423801E+02 0.  0.
          5    1    3    3  501    0 -0.49960238072E+02  0.53601756427E+02 -0.58118767297E+02  0.93643231429E+02  0.47000000000E+01 0. -1.
        -11    1    4    4    0    0  0.74299776744E+00  0.14312241288E+02 -0.40411462482E+02  0.42877483559E+02  0.00000000000E+00 0.  1.
         12    1    4    4    0    0  0.52671361661E+01 -0.87119010866E+02 -0.68181905524E+02  0.11075304519E+03  0.00000000000E+00 0. -1.
         -5    1    5    5    0  502  0.48220084871E+02  0.45587316202E+02 -0.38167472729E+02  0.76695671051E+02  0.47000000000E+01 0.  1.
         11    1    6    6    0    0  0.72333689036E+01  0.26727278964E+01  0.72841916013E+02  0.73248957867E+02  0.00000000000E+00 0. -1.
        -12    1    6    6    0    0 -0.11503349636E+02 -0.29055030947E+02 -0.56350883050E+01  0.31753363545E+02  0.00000000000E+00 0.  1.
</event>
<event>
12    1  0.1594973E-001  0.1739722E+03  0.7818608E-02  0.1175302E+00
         21   -1    0    0  501  502  0.00000000000E+00  0.00000000000E+00  0.62820983960E+03  0.62820983960E+03  0.00000000000E+00 0.  1.
         21   -1    0    0  502  503 -0.00000000000E+00 -0.00000000000E+00 -0.51382526900E+02  0.51382526900E+02  0.00000000000E+00 0.  1.
         -6    2    1    2    0  503 -0.12118896344E+02  0.18390749609E+02  0.39721640743E+03  0.43364410402E+03  0.17257244074E+03 0.  0.
        -24    2    3    3    0    0  0.12319340221E+01  0.44845165141E+02  0.10169850829E+03  0.13660707017E+03  0.79412206445E+02 0.  0.
          6    2    1    2  501    0  0.12118896344E+02 -0.18390749609E+02  0.17961090527E+03  0.24594826247E+03  0.16656945459E+03 0.  0.
         24    2    5    5    0    0 -0.52230174506E+02 -0.29480057404E+02  0.80289668071E+02  0.12699207800E+03  0.77996744561E+02 0.  0.
          5    1    5    5  501    0  0.64349070850E+02  0.11089307795E+02  0.99321237194E+02  0.11895618447E+03  0.47000000000E+01 0. -1.
        -13    1    6    6    0    0 -0.35452449409E+02  0.51885785028E+01 -0.22581381011E+01  0.35901207551E+02  0.00000000000E+00 0.  1.
         14    1    6    6    0    0 -0.16777725097E+02 -0.34668635907E+02  0.82547806172E+02  0.91090870448E+02  0.00000000000E+00 0. -1.
         -5    1    3    3    0  503 -0.13350830366E+02 -0.26454415532E+02  0.29551789914E+03  0.29703703386E+03  0.47000000000E+01 0.  1.
         13    1    4    4    0    0 -0.20780146957E+02  0.60025657747E+02  0.80131005780E+02  0.10225395925E+03  0.00000000000E+00 0. -1.
        -14    1    4    4    0    0  0.22012080979E+02 -0.15180492606E+02  0.21567502515E+02  0.34353110915E+02  0.00000000000E+00 0.  1.
</event>
<event>
12    1  0.1594973E-001  0.2211664E+03  0.7818608E-02  0.1133556E+00
         21   -1    0    0  503  502  0.00000000000E+00  0.00000000000E+00  0.99765993889E+02  0.99765993889E+02  0.00000000000E+00 0. -1.
         21   -1    0    0  501  503 -0.00000000000E+00 -0.00000000000E+00 -0.66312536003E+03  0.66312536003E+03  0.00000000000E+00 0. -1.
          6    2    1    2  501    0  0.13684653466E+03  0.22267033833E+02 -0.47862872191E+03  0.52604997639E+03  0.16858330101E+03 0.  0.
         24    2    3    3    0    0  0.92316085638E+02 -0.50310144529E+02 -0.30847319979E+03  0.33572026401E+03  0.80616439796E+02 0.  0.
         -6    2    1    2    0  502 -0.13684653466E+03 -0.22267033833E+02 -0.84730644230E+02  0.23684137753E+03  0.17231297453E+03 0.  0.
        -24    2    5    5    0    0 -0.13821132130E+03  0.23759902883E+01 -0.22957323131E+01  0.15066280720E+03  0.59883189810E+02 0.  0.
          5    1    3    3  501    0  0.44530449027E+02  0.72577178362E+02 -0.17015552212E+03  0.19032971239E+03  0.47000000000E+01 0. -1.
        -11    1    4    4    0    0  0.62527543935E+02 -0.47064164814E+02 -0.11000684250E+03  0.13500457310E+03  0.00000000000E+00 0.  1.
         12    1    4    4    0    0  0.29788541703E+02 -0.32459797156E+01 -0.19846635729E+03  0.20071569091E+03  0.00000000000E+00 0. -1.
         -5    1    5    5    0  502  0.13647866337E+01 -0.24643024121E+02 -0.82434911917E+02  0.86178570325E+02  0.47000000000E+01 0.  1.
         11    1    6    6    0    0 -0.88073970389E+02 -0.25907440703E+02  0.81183133666E+01  0.92163586930E+02  0.00000000000E+00 0. -1.
        -12    1    6    6    0    0 -0.50137350909E+02  0.28283430992E+02 -0.10414045680E+02  0.58499220271E+02  0.00000000000E+00 0.  1.
</event>
<event>
12    1  0.1594973E-001  0.2223075E+03  0.7818608E-02  0.1132420E+00
         21   -1    0    0  503  502  0.00000000000E+00  0.00000000000E+00  0.64149277989E+03  0.64149277989E+03  0.00000000000E+00 0. -1.
         21   -1    0    0  501  503 -0.00000000000E+00 -0.00000000000E+00 -0.10341770553E+03  0.10341770553E+03  0.00000000000E+00 0. -1.
          6    2    1    2  501    0  0.13149702572E+03  0.46444547942E+02  0.78700642356E+02  0.23457188954E+03  0.17141066610E+03 0.  0.
         24    2    3    3    0    0  0.12324150373E+03 -0.19420575452E+02  0.80279508606E+02  0.16800650108E+03  0.78840078068E+02 0.  0.
         -6    2    1    2    0  502 -0.13149702572E+03 -0.46444547942E+02  0.45937443201E+03  0.51033859587E+03  0.17312437683E+03 0.  0.
        -24    2    5    5    0    0 -0.36339854358E+02 -0.77378092164E+02  0.29927791962E+03  0.32148745159E+03  0.80491951133E+02 0.  0.
          5    1    3    3  501    0  0.82555219848E+01  0.65865123394E+02 -0.15788662493E+01  0.66565388466E+02  0.47000000000E+01 0. -1.
        -11    1    4    4    0    0  0.95559984098E+02 -0.26004238459E+02  0.19556275796E+02  0.10094740661E+03  0.00000000000E+00 0.  1.
         12    1    4    4    0    0  0.27681519634E+02  0.65836630073E+01  0.60723232810E+02  0.67059094466E+02  0.00000000000E+00 0. -1.
         -5    1    5    5    0  502 -0.95157171358E+02  0.30933544222E+02  0.16009651239E+03  0.18885114429E+03  0.47000000000E+01 0.  1.
         11    1    6    6    0    0 -0.52484145021E+02 -0.83991869273E+02  0.23828484001E+03  0.25804822139E+03  0.00000000000E+00 0. -1.
        -12    1    6    6    0    0  0.16144290662E+02  0.66137771092E+01  0.60993079607E+02  0.63439230201E+02  0.00000000000E+00 0.  1.
</event>
<event>
12    1  0.1594973E-001  0.2012136E+03  0.7818608E-02  0.1148914E+00
         21   -1    0    0  501  502  0.00000000000E+00  0.00000000000E+00  0.55347097111E+03  0.55347097111E+03  0.00000000000E+00 0. -1.
         21   -1    0    0  502  503 -0.00000000000E+00 -0.00000000000E+00 -0.19027242019E+03  0.19027242019E+03  0.00000000000E+00 0. -1.
         -6    2    1    2    0  503 -0.10614937875E+03  0.71606078931E+01 -0.11041778880E+03  0.22951906075E+03  0.17078625896E+03 0.  0.
        -24    2    3    3    0    0 -0.39168898479E+02 -0.56816295251E+02 -0.40166999864E+02  0.11317176934E+03  0.80200794780E+02 0.  0.
          6    2    1    2  501    0  0.10614937875E+03 -0.71606078931E+01  0.47361633972E+03  0.51422433054E+03  0.16969166143E+03 0.  0.
         24    2    5    5    0    0  0.86210773413E+02  0.94044578383E+01  0.47352685068E+03  0.48787955129E+03  0.79234064461E+02 0.  0.
          5    1    5    5  501    0  0.19938605336E+02 -0.16565065731E+02  0.89489033742E-01  0.26344779250E+02  0.47000000000E+01 0. -1.
        -11    1    6    6    0    0  0.46079239458E+02  0.44235341516E+02  0.27965773457E+03  0.28685973969E+03  0.00000000000E+00 0.  1.
         12    1    6    6    0    0  0.40131533955E+02 -0.34830883678E+02  0.19386911611E+03  0.20101981161E+03  0.00000000000E+00 0. -1.
         -5    1    3    3    0  503 -0.66980480270E+02  0.63976903144E+02 -0.70250788931E+02  0.11634729141E+03  0.47000000000E+01 0.  1.
         13    1    4    4    0    0 -0.53334199826E+02 -0.68907155032E+02 -0.31842036427E+02  0.92772022558E+02  0.00000000000E+00 0. -1.
        -14    1    4    4    0    0  0.14165301348E+02  0.12090859781E+02 -0.83249634369E+01  0.20399746781E+02  0.00000000000E+00 0.  1.
</event>
<event>
12    1  0.1594973E-001  0.1778071E+03  0.7818608E-02  0.1171218E+00
         21   -1    0    0  501  502  0.00000000000E+00  0.00000000000E+00  0.11858719498E+03  0.11858719498E+03  0.00000000000E+00 0. -1.
         21   -1    0    0  502  503 -0.00000000000E+00 -0.00000000000E+00 -0.55207492738E+03  0.55207492738E+03  0.00000000000E+00 0. -1.
         -6    2    1    2    0  503  0.20372786148E+02 -0.38640051184E+02 -0.45957365009E+03  0.49095164513E+03  0.16708522984E+03 0.  0.
        -24    2    3    3    0    0 -0.81721560217E+01 -0.12502998500E+02 -0.43983468345E+03  0.44725180474E+03  0.79727780419E+02 0.  0.
          6    2    1    2  501    0 -0.20372786148E+02  0.38640051184E+02  0.26085917697E+02  0.17971047723E+03  0.17235798952E+03 0.  0.
         24    2    5    5    0    0  0.80715498262E+00  0.83873007144E+02 -0.15588603881E+02  0.11449187589E+03  0.76354778816E+02 0.  0.
          5    1    5    5  501    0 -0.21179941130E+02 -0.45232955960E+02  0.41674521578E+02  0.65218601334E+02  0.47000000000E+01 0. -1.
        -13    1    6    6    0    0 -0.29201931285E+02  0.63564294199E+02 -0.29177441955E+02  0.75792449537E+02  0.00000000000E+00 0.  1.
         14    1    6    6    0    0  0.30009086268E+02  0.20308712946E+02  0.13588838074E+02  0.38699426357E+02  0.00000000000E+00 0. -1.
         -5    1    3    3    0  503  0.28544942169E+02 -0.26137052684E+02 -0.19738966641E+02  0.43699840395E+02  0.47000000000E+01 0.  1.
         11    1    4    4    0    0  0.35056627453E+02 -0.27042789285E+01 -0.15126674914E+03  0.15529941934E+03  0.00000000000E+00 0. -1.
        -12    1    4    4    0    0 -0.43228783475E+02 -0.97987195719E+01 -0.28856793431E+03  0.29195238540E+03  0.00000000000E+00 0.  1.
</event>
<event>
12    1  0.1594973E-001  0.2188077E+03  0.7818608E-02  0.1134789E+00
         21   -1    0    0  501  502  0.00000000000E+00  0.00000000000E+00  0.76061155920E+02  0.76061155920E+02  0.00000000000E+00 0. -1.
         21   -1    0    0  502  503 -0.00000000000E+00 -0.00000000000E+00 -0.65020550467E+03  0.65020550467E+03  0.00000000000E+00 0.  1.
         -6    2    1    2    0  503  0.97832396985E+02 -0.92201983934E+02 -0.35223955246E+03  0.41462816495E+03  0.17254399182E+03 0.  0.
        -24    2    3    3    0    0  0.12007292084E+03 -0.73712761267E+02 -0.16909331006E+03  0.22915275320E+03  0.63775852032E+02 0.  0.
          6    2    1    2  501    0 -0.97832396985E+02  0.92201983934E+02 -0.22190479629E+03  0.31163849564E+03  0.17263959455E+03 0.  0.
         24    2    5    5    0    0 -0.81168415514E+02  0.41537764266E+02 -0.22772495567E+03  0.25778205973E+03  0.79241638967E+02 0.  0.
          5    1    5    5  501    0 -0.16663981470E+02  0.50664219667E+02  0.58201593861E+01  0.53856435903E+02  0.47000000000E+01 0. -1.
        -13    1    6    6    0    0 -0.34283697724E+01 -0.11305726601E+02 -0.91580824450E+02  0.92339702080E+02  0.00000000000E+00 0.  1.
         14    1    6    6    0    0 -0.77740045742E+02  0.52843490868E+02 -0.13614413122E+03  0.16544235765E+03  0.00000000000E+00 0. -1.
         -5    1    3    3    0  503 -0.22240523856E+02 -0.18489222666E+02 -0.18314624241E+03  0.18547541175E+03  0.47000000000E+01 0.  1.
         13    1    4    4    0    0  0.29689371190E+00 -0.20458583394E+02 -0.41277421169E+02  0.46070242877E+02  0.00000000000E+00 0. -1.
        -14    1    4    4    0    0  0.11977602713E+03 -0.53254177873E+02 -0.12781588889E+03  0.18308251033E+03  0.00000000000E+00 0.  1.
</event>
<event>
12    1  0.1594973E-001  0.1812985E+03  0.7818608E-02  0.1167519E+00
         21   -1    0    0  501  502  0.00000000000E+00  0.00000000000E+00  0.71677098620E+02  0.71677098620E+02  0.00000000000E+00 0.  1.
         21   -1    0    0  502  503 -0.00000000000E+00 -0.00000000000E+00 -0.46614453146E+03  0.46614453146E+03  0.00000000000E+00 0.  1.
         -6    2    1    2    0  503 -0.16573318205E+02 -0.86901476721E+01 -0.24736944034E+03  0.30435434378E+03  0.17632280913E+03 0.  0.
        -24    2    3    3    0    0  0.50870095242E+02  0.30137765516E+02 -0.15189059070E+03  0.18108828361E+03  0.78906041709E+02 0.  0.
          6    2    1    2  501    0  0.16573318205E+02  0.86901476721E+01 -0.14709799250E+03  0.23346728630E+03  0.18033014399E+03 0.  0.
         24    2    5    5    0    0  0.25610729860E+02 -0.58893894579E+02 -0.47752743904E+02  0.11288185603E+03  0.79608972904E+02 0.  0.
          5    1    5    5  501    0 -0.90374116553E+01  0.67584042252E+02 -0.99345248594E+02  0.12058543028E+03  0.47000000000E+01 0. -1.
        -11    1    6    6    0    0  0.52674214270E+02 -0.38530668611E+02 -0.17744915233E+02  0.67631851145E+02  0.00000000000E+00 0.  1.
         12    1    6    6    0    0 -0.27063484410E+02 -0.20363225968E+02 -0.30007828671E+02  0.45250004881E+02  0.00000000000E+00 0. -1.
         -5    1    3    3    0  503 -0.67443413447E+02 -0.38827913188E+02 -0.95478849644E+02  0.12326606017E+03  0.47000000000E+01 0.  1.
         11    1    4    4    0    0  0.68290101044E+02  0.91648212244E+01 -0.89096763534E+02  0.11263110192E+03  0.00000000000E+00 0. -1.
        -12    1    4    4    0    0 -0.17420005802E+02  0.20972944291E+02 -0.62793827162E+02  0.68457181684E+02  0.00000000000E+00 0.  1.
</event>
<event>
12    1  0.1594973E-001  0.1817600E+03  0.7818608E-02  0.1166549E+00
         21   -1    0    0  501  502  0.00000000000E+00  0.00000000000E+00  0.70500330947E+03  0.70500330947E+03  0.00000000000E+00 0.  1.
         21   -1    0    0  502  503 -0.00000000000E+00 -0.00000000000E+00 -0.40151864388E+03  0.40151864388E+03  0.00000000000E+00 0.  1.
         -6    2    1    2    0  503  0.30488819690E+02 -0.41097450504E+02 -0.36866464309E+03  0.41023077777E+03  0.17250247361E+03 0.  0.
        -24    2    3    3    0    0  0.29399531877E+02  0.37637771721E+02 -0.25754683456E+03  0.27396016781E+03  0.80267472990E+02 0.  0.
          6    2    1    2  501    0 -0.30488819690E+02  0.41097450504E+02  0.67214930867E+03  0.69629117558E+03  0.17440796849E+03 0.  0.
         24    2    5    5    0    0 -0.17228720686E+02  0.24396305773E+02  0.14002795983E+03  0.16372195158E+03  0.79404277852E+02 0.  0.
          5    1    5    5  501    0 -0.13260099004E+02  0.16701144731E+02  0.53212134884E+03  0.53256922400E+03  0.47000000000E+01 0. -1.
        -13    1    6    6    0    0 -0.29280704071E+02 -0.11662724502E+02  0.11236973303E+03  0.11670619382E+03  0.00000000000E+00 0.  1.
         14    1    6    6    0    0  0.12051983385E+02  0.36059030275E+02  0.27658226801E+02  0.47015757759E+02  0.00000000000E+00 0. -1.
         -5    1    3    3    0  503  0.10892878138E+01 -0.78735222225E+02 -0.11111780853E+03  0.13627060996E+03  0.47000000000E+01 0.  1.
         13    1    4    4    0    0  0.45738240197E+02  0.49606427960E+02 -0.14935992846E+03  0.16389378433E+03  0.00000000000E+00 0. -1.
        -14    1    4    4    0    0 -0.16338708321E+02 -0.11968656239E+02 -0.10818690610E+03  0.11006638348E+03  0.00000000000E+00 0.  1.
</event>
<event>
12    1  0.1594973E-001  0.1819614E+03  0.7818608E-02  0.1165947E+00
         21   -1    0    0  501  502  0.00000000000E+00  0.00000000000E+00  0.37181845217E+03  0.37181845217E+03  0.00000000000E+00 0.  1.
         21   -1    0    0  502  503 -0.00000000000E+00 -0.00000000000E+00 -0.89804966028E+02  0.89804966028E+02  0.00000000000E+00 0.  1.
         -6    2    1    2    0  503 -0.39459811865E+01  0.58821681169E+02  0.11907078754E+03  0.21745756702E+03  0.17214639138E+03 0.  0.
        -24    2    3    3    0    0 -0.56213127106E+02  0.72924254687E+02  0.56203820540E+02  0.13436073999E+03  0.80100414642E+02 0.  0.
          6    2    1    2  501    0  0.39459811865E+01 -0.58821681169E+02  0.16294269860E+03  0.24416585119E+03  0.17202057701E+03 0.  0.
         24    2    5    5    0    0  0.61390406659E+02 -0.71344534536E+02  0.10275360498E+03  0.15989544792E+03  0.78418277799E+02 0.  0.
          5    1    5    5  501    0 -0.57444425473E+02  0.12522853367E+02  0.60189093624E+02  0.84270403260E+02  0.47000000000E+01 0. -1.
        -11    1    6    6    0    0  0.55856981099E+02 -0.88289594245E+02  0.90940900267E+02  0.13851101808E+03  0.00000000000E+00 0.  1.
         12    1    6    6    0    0  0.55334255604E+01  0.16945059709E+02  0.11812704713E+02  0.21384429841E+02  0.00000000000E+00 0. -1.
         -5    1    3    3    0  503  0.52267145919E+02 -0.14102573518E+02  0.62866967003E+02  0.83096827030E+02  0.47000000000E+01 0.  1.
         11    1    4    4    0    0 -0.48153806567E+02 -0.34113203959E+00  0.18676118519E+02  0.51649809882E+02  0.00000000000E+00 0. -1.
        -12    1    4    4    0    0 -0.80593205389E+01  0.73265386726E+02  0.37527702021E+02  0.82710930104E+02  0.00000000000E+00 0.  1.
</event>
<event>
12    1  0.1594973E-001  0.2427618E+03  0.7818608E-02  0.1118172E+00
         21   -1    0    0  503  502  0.00000000000E+00  0.00000000000E+00  0.25859936288E+03  0.25859936288E+03  0.00000000000E+00 0.  1.
         21   -1    0    0  501  503 -0.00000000000E+00 -0.00000000000E+00 -0.24106042568E+03  0.24106042568E+03  0.00000000000E+00 0.  1.
          6    2    1    2  501    0  0.13895851634E+03 -0.96637724830E+02 -0.52136475883E+02  0.24829717856E+03  0.17402573843E+03 0.  0.
         24    2    3    3    0    0  0.98081608166E+02 -0.13050364463E+03 -0.71793519457E+02  0.19149654909E+03  0.69752532258E+02 0.  0.
         -6    2    1    2    0  502 -0.13895851634E+03  0.96637724830E+02  0.69675413077E+02  0.25136261001E+03  0.17227936440E+03 0.  0.
        -24    2    5    5    0    0 -0.11091678187E+03 -0.35817436085E+01  0.22212201549E+02  0.13688498261E+03  0.76998410232E+02 0.  0.
          5    1    3    3  501    0  0.40876908177E+02  0.33865919796E+02  0.19657043574E+02  0.56800629467E+02  0.47000000000E+01 0. -1.
        -13    1    4    4    0    0  0.37616588372E+02 -0.80127245725E+02 -0.56599815635E+01  0.88698470221E+02  0.00000000000E+00 0.  1.
         14    1    4    4    0    0  0.60465019794E+02 -0.50376398901E+02 -0.66133537894E+02  0.10279807887E+03  0.00000000000E+00 0. -1.
         -5    1    5    5    0  502 -0.28041734475E+02  0.10021946844E+03  0.47463211528E+02  0.11447762740E+03  0.47000000000E+01 0.  1.
         11    1    6    6    0    0 -0.59532240309E+02 -0.13007878584E+02  0.48982920823E+02  0.78183240365E+02  0.00000000000E+00 0. -1.
        -12    1    6    6    0    0 -0.51384541558E+02  0.94261349750E+01 -0.26770719274E+02  0.58701742241E+02  0.00000000000E+00 0.  1.
</event>
<event>
12    1  0.1594973E-001  0.1800064E+03  0.7818608E-02  0.1167844E+00
         21   -1    0    0  501  502  0.00000000000E+00  0.00000000000E+00  0.97256457211E+02  0.97256457211E+02  0.00000000000E+00 0. -1.
         21   -1    0    0  502  503 -0.00000000000E+00 -0.00000000000E+00 -0.21790189107E+04  0.21790189107E+04  0.00000000000E+00 0. -1.
         -6    2    1    2    0  503  0.12042413105E+02 -0.50393168323E+02 -0.20885904045E+04  0.20963330307E+04  0.17238853361E+03 0.  0.
        -24    2    3    3    0    0  0.51381385213E+02 -0.51924723015E+02 -0.84351680072E+03  0.85062830271E+03  0.81924920960E+02 0.  0.
          6    2    1    2  501    0 -0.12042413105E+02  0.50393168323E+02  0.68279510673E+01  0.17994233720E+03  0.17218633126E+03 0.  0.
         24    2    5    5    0    0  0.16874295899E+02  0.12101420734E+02 -0.56528220624E+02  0.10032746117E+03  0.80243214622E+02 0.  0.
          5    1    5    5  501    0 -0.28916709004E+02  0.38291747590E+02  0.63356171691E+02  0.79614876025E+02  0.47000000000E+01 0. -1.
        -13    1    6    6    0    0  0.32871701738E+02 -0.25365180961E+02 -0.34687213027E+02  0.54103086122E+02  0.00000000000E+00 0.  1.
         14    1    6    6    0    0 -0.15997405839E+02  0.37466601694E+02 -0.21841007597E+02  0.46224375052E+02  0.00000000000E+00 0. -1.
         -5    1    3    3    0  503 -0.39338972107E+02  0.15315546917E+01 -0.12450736038E+04  0.12457047280E+04  0.47000000000E+01 0.  1.
         11    1    4    4    0    0  0.12001831690E+02 -0.13743959212E+02 -0.62721628614E+03  0.62748164115E+03  0.00000000000E+00 0. -1.
        -12    1    4    4    0    0  0.39379553522E+02 -0.38180763803E+02 -0.21630051457E+03  0.22314666156E+03  0.00000000000E+00 0.  1.
</event>
<event>
12    1  0.1594973E-001  0.2901503E+03  0.7818608E-02  0.1090347E+00
         21   -1    0    0  503  502  0.00000000000E+00  0.00000000000E+00  0.61142201245E+03  0.61142201245E+03  0.00000000000E+00 0.  1.
         21   -1    0    0  501  503 -0.00000000000E+00 -0.00000000000E+00 -0.20049587249E+03  0.20049587249E+03  0.00000000000E+00 0. -1.
          6    2    1    2  501    0  0.21353042861E+03 -0.94846984581E+02 -0.22388692746E+02  0.29043066866E+03  0.17104831280E+03 0.  0.
         24    2    3    3    0    0  0.13090594698E+03 -0.11270120775E+03  0.26816027994E+02  0.19250838932E+03  0.80637779101E+02 0.  0.
         -6    2    1    2    0  502 -0.21353042861E+03  0.94846984581E+02  0.43331483271E+03  0.52148721628E+03  0.17203481646E+03 0.  0.
        -24    2    5    5    0    0 -0.17130773437E+03  0.66635186067E+02  0.20097275310E+03  0.28361415467E+03  0.79122394823E+02 0.  0.
          5    1    3    3  501    0  0.82624481624E+02  0.17854223165E+02 -0.49204720740E+02  0.97922279342E+02  0.47000000000E+01 0. -1.
        -13    1    4    4    0    0  0.50736836202E+01 -0.40933906493E+02 -0.11205435220E+02  0.42742119095E+02  0.00000000000E+00 0.  1.
         14    1    4    4    0    0  0.12583226336E+03 -0.71767301253E+02  0.38021463214E+02  0.14976627023E+03  0.00000000000E+00 0. -1.
         -5    1    5    5    0  502 -0.42222694237E+02  0.28211798515E+02  0.23234207961E+03  0.23787306161E+03  0.47000000000E+01 0.  1.
         11    1    6    6    0    0  0.77198231767E+01  0.55652362574E+01  0.34408716267E+01  0.10119640410E+02  0.00000000000E+00 0. -1.
        -12    1    6    6    0    0 -0.17902755755E+03  0.61069949809E+02  0.19753188147E+03  0.27349451426E+03  0.00000000000E+00 0.  1.
</event>
<event>
12    1  0.1594973E-001  0.2472548E+03  0.7818608E-02  0.1115942E+00
         21   -1    0    0  503  502  0.00000000000E+00  0.00000000000E+00  0.19425988365E+03  0.19425988365E+03  0.00000000000E+00 0.  1.
         21   -1    0    0  501  503 -0.00000000000E+00 -0.00000000000E+00 -0.32726054116E+03  0.32726054116E+03  0.00000000000E+00 0.  1.
          6    2    1    2  501    0  0.59070184587E+01  0.17362699489E+03 -0.13084374151E+03  0.27974101083E+03  0.17593669948E+03 0.  0.
         24    2    3    3    0    0 -0.65041289198E+02  0.87629215269E+02 -0.62802249813E+02  0.14904665344E+03  0.79759222989E+02 0.  0.
         -6    2    1    2    0  502 -0.59070184587E+01 -0.17362699489E+03 -0.21569159892E+01  0.24177941398E+03  0.16814103163E+03 0.  0.
        -24    2    5    5    0    0  0.10831835672E+02 -0.57004965611E+02  0.51808048944E+02  0.11210599963E+03  0.80726615491E+02 0.  0.
          5    1    3    3  501    0  0.70948307657E+02  0.85997779618E+02 -0.68041491701E+02  0.13069435738E+03  0.47000000000E+01 0. -1.
        -13    1    4    4    0    0 -0.49817399417E+02  0.81766320815E+02 -0.80417233718E+02  0.12503773824E+03  0.00000000000E+00 0.  1.
         14    1    4    4    0    0 -0.15223889782E+02  0.58628944540E+01  0.17614983905E+02  0.24008915207E+02  0.00000000000E+00 0. -1.
         -5    1    5    5    0  502 -0.16738854131E+02 -0.11662202928E+03 -0.53964964933E+02  0.12967341435E+03  0.47000000000E+01 0.  1.
         13    1    6    6    0    0 -0.23812259398E+02  0.77606723743E+01  0.20062779029E+02  0.32089980300E+02  0.00000000000E+00 0. -1.
        -14    1    6    6    0    0  0.34644095070E+02 -0.64765637985E+02  0.31745269915E+02  0.80016019326E+02  0.00000000000E+00 0.  1.
</event>
<event>
12    1  0.1594973E-001  0.3033793E+03  0.7818608E-02  0.1083606E+00
         21   -1    0    0  501  502  0.00000000000E+00  0.00000000000E+00  0.79305841763E+03  0.79305841763E+03  0.00000000000E+00 0.  1.
         21   -1    0    0  502  503 -0.00000000000E+00 -0.00000000000E+00 -0.12073098496E+03  0.12073098496E+03  0.00000000000E+00 0. -1.
         -6    2    1    2    0  503  0.50526860605E+02  0.24497105291E+03  0.24516967112E+03  0.39006050171E+03  0.17168356633E+03 0.  0.
        -24    2    3    3    0    0  0.85969465260E+02  0.15955626974E+03  0.11155141684E+03  0.22749423434E+03  0.80380071464E+02 0.  0.
          6    2    1    2  501    0 -0.50526860605E+02 -0.24497105291E+03  0.42715776155E+03  0.52372890088E+03  0.17106848908E+03 0.  0.
         24    2    5    5    0    0  0.48697200150E+01 -0.70759662531E+02  0.23610167002E+03  0.25926168213E+03  0.80261928834E+02 0.  0.
          5    1    5    5  501    0 -0.55396580620E+02 -0.17421139038E+03  0.19105609153E+03  0.26446721875E+03  0.47000000000E+01 0. -1.
        -13    1    6    6    0    0 -0.61312634623E+01 -0.70405056285E+02  0.98551576718E+02  0.12127191602E+03  0.00000000000E+00 0.  1.
         14    1    6    6    0    0  0.11000983477E+02 -0.35460624602E+00  0.13755009330E+03  0.13798976611E+03  0.00000000000E+00 0. -1.
         -5    1    3    3    0  503 -0.35442604654E+02  0.85414783171E+02  0.13361825428E+03  0.16256626737E+03  0.47000000000E+01 0.  1.
         13    1    4    4    0    0  0.24898733552E+02  0.11075371364E+03  0.36805232762E+02  0.11933548163E+03  0.00000000000E+00 0. -1.
        -14    1    4    4    0    0  0.61070731707E+02  0.48802556101E+02  0.74746184081E+02  0.10815875271E+03  0.00000000000E+00 0.  1.
</event>
<event>
12    1  0.1594973E-001  0.1890113E+03  0.7818608E-02  0.1159818E+00
         21   -1    0    0  501  502  0.00000000000E+00  0.00000000000E+00  0.12921145390E+04  0.12921145390E+04  0.00000000000E+00 0.  1.
         21   -1    0    0  502  503 -0.00000000000E+00 -0.00000000000E+00 -0.55671692231E+02  0.55671692231E+02  0.00000000000E+00 0.  1.
         -6    2    1    2    0  503 -0.18888182616E+02 -0.73022281950E+02  0.13923460939E+03  0.23475849380E+03  0.17330971368E+03 0.  0.
        -24    2    3    3    0    0 -0.31553112934E+02 -0.80186737346E+02  0.25714571049E+02  0.12021322333E+03  0.79777616646E+02 0.  0.
          6    2    1    2  501    0  0.18888182616E+02  0.73022281950E+02  0.10972082374E+04  0.11130277374E+04  0.17110175633E+03 0.  0.
         24    2    5    5    0    0  0.10228629495E+02  0.34009050589E+02  0.10372471806E+04  0.10408166690E+04  0.78462630042E+02 0.  0.
          5    1    5    5  501    0  0.86595531212E+01  0.39013231361E+02  0.59961056771E+02  0.72211068477E+02  0.47000000000E+01 0. -1.
        -11    1    6    6    0    0 -0.25579985863E+02  0.58357235420E+01  0.70167945876E+03  0.70216981863E+03  0.00000000000E+00 0.  1.
         12    1    6    6    0    0  0.35808615357E+02  0.28173327047E+02  0.33556772185E+03  0.33864685033E+03  0.00000000000E+00 0. -1.
         -5    1    3    3    0  503  0.12664930319E+02  0.71644553965E+01  0.11352003834E+03  0.11454527047E+03  0.47000000000E+01 0.  1.
         11    1    4    4    0    0  0.20065739872E+02  0.21045104536E+00  0.12802476040E+02  0.23802974584E+02  0.00000000000E+00 0. -1.
        -12    1    4    4    0    0 -0.51618852807E+02 -0.80397188392E+02  0.12912095008E+02  0.96410248749E+02  0.00000000000E+00 0.  1.
</event>
<event>
12    1  0.1594973E-001  0.1782236E+03  0.7818608E-02  0.1170916E+00
         21   -1    0    0  503  502  0.00000000000E+00  0.00000000000E+00  0.59548841627E+02  0.59548841627E+02  0.00000000000E+00 0.  1.
         21   -1    0    0  501  503 -0.00000000000E+00 -0.00000000000E+00 -0.59686198497E+03  0.59686198497E+03  0.00000000000E+00 0.  1.
          6    2    1    2  501    0 -0.18309661717E+02  0.10145030024E+02 -0.15224493562E+03  0.23439746155E+03  0.17699006812E+03 0.  0.
         24    2    3    3    0    0  0.54824024707E+02  0.29460405928E+02 -0.77783363427E+02  0.12815135306E+03  0.80615931811E+02 0.  0.
         -6    2    1    2    0  502  0.18309661717E+02 -0.10145030024E+02 -0.38506820772E+03  0.42201336504E+03  0.17140475587E+03 0.  0.
        -24    2    5    5    0    0  0.26280689081E+02 -0.15110364573E+02 -0.80964412104E+02  0.11772830078E+03  0.79910694166E+02 0.  0.
          5    1    3    3  501    0 -0.73133686424E+02 -0.19315375903E+02 -0.74461572194E+02  0.10624610849E+03  0.47000000000E+01 0. -1.
        -13    1    4    4    0    0  0.78888662578E+01 -0.27358517496E+01  0.16229656607E+02  0.18251598539E+02  0.00000000000E+00 0.  1.
         14    1    4    4    0    0  0.46935158450E+02  0.32196257677E+02 -0.94013020034E+02  0.10989975452E+03  0.00000000000E+00 0. -1.
         -5    1    5    5    0  502 -0.79710273638E+01  0.49653345489E+01 -0.30410379561E+03  0.30428506426E+03  0.47000000000E+01 0.  1.
         13    1    6    6    0    0  0.51818166332E+02 -0.13582159471E+02 -0.73741663171E+02  0.91145105766E+02  0.00000000000E+00 0. -1.
        -14    1    6    6    0    0 -0.25537477252E+02 -0.15282051020E+01 -0.72227489336E+01  0.26583195018E+02  0.00000000000E+00 0.  1.
</event>
<event>
12    1  0.1594973E-001  0.2451389E+03  0.7818608E-02  0.1116741E+00
         21   -1    0    0  501  502  0.00000000000E+00  0.00000000000E+00  0.44614160657E+03  0.44614160657E+03  0.00000000000E+00 0. -1.
         21   -1    0    0  502  503 -0.00000000000E+00 -0.00000000000E+00 -0.14400492972E+03  0.14400492972E+03  0.00000000000E+00 0.  1.
         -6    2    1    2    0  503  0.15026780951E+03  0.86708428605E+02  0.71181372807E+02  0.25334777021E+03  0.17035122151E+03 0.  0.
        -24    2    3    3    0    0  0.17166638545E+03  0.91712050766E+02  0.86274097449E+02  0.22627720271E+03  0.76666188284E+02 0.  0.
          6    2    1    2  501    0 -0.15026780951E+03 -0.86708428605E+02  0.23095530404E+03  0.33679876608E+03  0.17318859721E+03 0.  0.
         24    2    5    5    0    0 -0.44786363292E+02  0.14991202176E+02  0.12499922117E+03  0.15591777787E+03  0.80342975327E+02 0.  0.
          5    1    5    5  501    0 -0.10548144622E+03 -0.10169963078E+03  0.10595608287E+03  0.18088098821E+03  0.47000000000E+01 0. -1.
        -13    1    6    6    0    0  0.10446883834E+02  0.33276616195E+02  0.50986290449E+02  0.61774366698E+02  0.00000000000E+00 0.  1.
         14    1    6    6    0    0 -0.55233247126E+02 -0.18285414019E+02  0.74012930718E+02  0.94143411173E+02  0.00000000000E+00 0. -1.
         -5    1    3    3    0  503 -0.21398575948E+02 -0.50036221609E+01 -0.15092724642E+02  0.27070567494E+02  0.47000000000E+01 0.  1.
         13    1    4    4    0    0  0.10384314018E+03  0.87611932107E+02  0.80879721550E+02  0.15811634251E+03  0.00000000000E+00 0. -1.
        -14    1    4    4    0    0  0.67823245274E+02  0.41001186591E+01  0.53943758992E+01  0.68160860204E+02  0.00000000000E+00 0.  1.
</event>
<event>
12    1  0.1594973E-001  0.1882203E+03  0.7818608E-02  0.1160216E+00
         21   -1    0    0  503  502  0.00000000000E+00  0.00000000000E+00  0.87736798656E+02  0.87736798656E+02  0.00000000000E+00 0.  1.
         21   -1    0    0  501  503 -0.00000000000E+00 -0.00000000000E+00 -0.44750045247E+03  0.44750045247E+03  0.00000000000E+00 0.  1.
          6    2    1    2  501    0  0.72191374644E+02 -0.25333710315E+02 -0.94730749630E+02  0.21016906950E+03  0.17130012083E+03 0.  0.
         24    2    3    3    0    0 -0.15543476383E+02 -0.33763694751E+02 -0.81673916610E+02  0.12094441141E+03  0.81088440953E+02 0.  0.
         -6    2    1    2    0  502 -0.72191374644E+02  0.25333710315E+02 -0.26503290418E+03  0.32506818162E+03  0.17196944773E+03 0.  0.
        -24    2    5    5    0    0 -0.31309265413E+02  0.74384087857E+02 -0.11637562099E+03  0.16320909402E+03  0.81121270849E+02 0.  0.
          5    1    3    3  501    0  0.87734851027E+02  0.84299844358E+01 -0.13056833020E+02  0.89224658088E+02  0.47000000000E+01 0. -1.
        -13    1    4    4    0    0  0.21145597645E+02 -0.43013356697E+02 -0.61791556633E+02  0.78201544903E+02  0.00000000000E+00 0.  1.
         14    1    4    4    0    0 -0.36689074029E+02  0.92496619460E+01 -0.19882359978E+02  0.42742866510E+02  0.00000000000E+00 0. -1.
         -5    1    5    5    0  502 -0.40882109231E+02 -0.49050377543E+02 -0.14865728320E+03  0.16185908760E+03  0.47000000000E+01 0.  1.
         11    1    6    6    0    0  0.20937454769E+02  0.50627461588E+02 -0.40794593511E+02  0.68306044673E+02  0.00000000000E+00 0. -1.
        -12    1    6    6    0    0 -0.52246720183E+02  0.23756626270E+02 -0.75581027474E+02  0.94903049348E+02  0.00000000000E+00 0.  1.
</event>
<event>
12    1  0.1594973E-001  0.2004642E+03  0.7818608E-02  0.1149594E+00
         21   -1    0    0  501  502  0.00000000000E+00  0.00000000000E+00  0.17043030132E+04  0.17043030132E+04  0.00000000000E+00 0.  1.
         21   -1    0    0  502  503 -0.00000000000E+00 -0.00000000000E+00 -0.28230469480E+02  0.28230469480E+02  0.00000000000E+00 0.  1.
         -6    2    1    2    0  503  0.94892696167E+02  0.35599151537E+02  0.11968358505E+04  0.12135081193E+04  0.17295658185E+03 0.  0.
        -24    2    3    3    0    0  0.48301111471E+02 -0.29981933166E+02  0.93113427890E+03  0.93585533329E+03  0.74714428380E+02 0.  0.
          6    2    1    2  501    0 -0.94892696167E+02 -0.35599151537E+02  0.47923669321E+03  0.51902536336E+03  0.17160301955E+03 0.  0.
         24    2    5    5    0    0 -0.69534670024E+02  0.24801930539E+02  0.16375727008E+03  0.19678216851E+03  0.80352798631E+02 0.  0.
          5    1    5    5  501    0 -0.25358026142E+02 -0.60401082076E+02  0.31547942313E+03  0.32224319484E+03  0.47000000000E+01 0. -1.
        -11    1    6    6    0    0 -0.58050093952E+02 -0.18375890697E+02  0.11826298413E+03  0.13301736797E+03  0.00000000000E+00 0.  1.
         12    1    6    6    0    0 -0.11484576072E+02  0.43177821236E+02  0.45494285947E+02  0.63764800542E+02  0.00000000000E+00 0. -1.
         -5    1    3    3    0  503  0.46591584696E+02  0.65581084703E+02  0.26570157158E+03  0.27765278600E+03  0.47000000000E+01 0.  1.
         13    1    4    4    0    0 -0.16771865255E+02  0.55938187104E+01  0.11405013714E+03  0.11541239125E+03  0.00000000000E+00 0. -1.
        -14    1    4    4    0    0  0.65072976726E+02 -0.35575751876E+02  0.81708414177E+03  0.82044294204E+03  0.00000000000E+00 0.  1.
</event>
<event>
12    1  0.1594973E-001  0.2450608E+03  0.7818608E-02  0.1116632E+00
         21   -1    0    0  501  502  0.00000000000E+00  0.00000000000E+00  0.49334522063E+03  0.49334522063E+03  0.00000000000E+00 0.  1.
         21   -1    0    0  502  503 -0.00000000000E+00 -0.00000000000E+00 -0.14891534913E+03  0.14891534913E+03  0.00000000000E+00 0.  1.
         -6    2    1    2    0  503  0.13715116600E+03 -0.10396568579E+03  0.33448857010E+02  0.24632623188E+03  0.17302739760E+03 0.  0.
        -24    2    3    3    0    0  0.15366154359E+03 -0.46841567996E+02  0.46201765947E+02  0.18533046081E+03  0.80042326676E+02 0.  0.
          6    2    1    2  501    0 -0.13715116600E+03  0.10396568579E+03  0.31098101449E+03  0.39593433788E+03  0.17445773810E+03 0.  0.
         24    2    5    5    0    0 -0.15813078330E+02  0.34919144463E+02  0.19594509328E+03  0.21497658160E+03  0.79693481289E+02 0.  0.
          5    1    5    5  501    0 -0.12133808767E+03  0.69046541324E+02  0.11503592121E+03  0.18095775628E+03  0.47000000000E+01 0. -1.
        -11    1    6    6    0    0  0.24678518734E+02  0.39768641627E+02  0.11940293254E+03  0.12824833115E+03  0.00000000000E+00 0.  1.
         12    1    6    6    0    0 -0.40491597064E+02 -0.48494971638E+01  0.76542160745E+02  0.86728250455E+02  0.00000000000E+00 0. -1.
         -5    1    3    3    0  503 -0.16510377585E+02 -0.57124117790E+02 -0.12752908938E+02  0.60995771064E+02  0.47000000000E+01 0.  1.
         13    1    4    4    0    0  0.11568392060E+02  0.12244587481E+02  0.24772483407E+02  0.29957195323E+02  0.00000000000E+00 0. -1.
        -14    1    4    4    0    0  0.14209315153E+03 -0.59086155477E+02  0.21429282540E+02  0.15537326549E+03  0.00000000000E+00 0.  1.
</event>
<event>
12    1  0.1594973E-001  0.2105040E+03  0.7818608E-02  0.1143445E+00
         21   -1    0    0  501  502  0.00000000000E+00  0.00000000000E+00  0.22531313270E+03  0.22531313270E+03  0.00000000000E+00 0.  1.
         21   -1    0    0  502  503 -0.00000000000E+00 -0.00000000000E+00 -0.20775069411E+03  0.20775069411E+03  0.00000000000E+00 0.  1.
         -6    2    1    2    0  503 -0.89802034775E+02 -0.69697104857E+02  0.78060418667E+02  0.21403886783E+03  0.16369824710E+03 0.  0.
        -24    2    3    3    0    0  0.74915050530E+01 -0.16194754890E+02  0.60192880813E+02  0.10147833632E+03  0.79726263605E+02 0.  0.
          6    2    1    2  501    0  0.89802034775E+02  0.69697104857E+02 -0.60497980081E+02  0.21902495898E+03  0.17717176747E+03 0.  0.
         24    2    5    5    0    0  0.37721955200E+02 -0.24418585452E+02  0.41726044809E+01  0.93428492638E+02  0.81806230745E+02 0.  0.
          5    1    5    5  501    0  0.52080079575E+02  0.94115690309E+02 -0.64670584562E+02  0.12559646635E+03  0.47000000000E+01 0. -1.
        -13    1    6    6    0    0  0.21233612635E+02 -0.36656031177E+02 -0.31142769923E+02  0.52577590717E+02  0.00000000000E+00 0.  1.
         14    1    6    6    0    0  0.16488342565E+02  0.12237445724E+02  0.35315374404E+02  0.40850901920E+02  0.00000000000E+00 0. -1.
         -5    1    3    3    0  503 -0.97293539828E+02 -0.53502349967E+02  0.17867537854E+02  0.11256053151E+03  0.47000000000E+01 0.  1.
         13    1    4    4    0    0  0.11744766838E+02 -0.23796581459E+02 -0.11741396100E+02  0.29018566809E+02  0.00000000000E+00 0. -1.
        -14    1    4    4    0    0 -0.42532617854E+01  0.76018265698E+01  0.71934276913E+02  0.72459769514E+02  0.00000000000E+00 0.  1.
</event>
<event>
12    1  0.1594973E-001  0.1865140E+03  0.7818608E-02  0.1161745E+00
         21   -1    0    0  501  502  0.00000000000E+00  0.00000000000E+00  0.18206901655E+03  0.18206901655E+03  0.00000000000E+00 0. -1.
         21   -1    0    0  502  503 -0.00000000000E+00 -0.00000000000E+00 -0.22257463696E+03  0.22257463696E+03  0.00000000000E+00 0.  1.
         -6    2    1    2    0  503  0.21479938397E+02 -0.68553162486E+02 -0.96893493828E+02  0.20979224741E+03  0.17164939291E+03 0.  0.
        -24    2    3    3    0    0  0.28467877070E+02 -0.88171392443E+02 -0.12354337327E+02  0.12259898382E+03  0.79330112272E+02 0.  0.
          6    2    1    2  501    0 -0.21479938397E+02  0.68553162486E+02  0.56387873419E+02  0.19485140609E+03  0.17212366005E+03 0.  0.
         24    2    5    5    0    0 -0.78947721644E+02  0.33244137563E+02  0.21593196446E+02  0.11881172633E+03  0.79448377872E+02 0.  0.
          5    1    5    5  501    0  0.57467783247E+02  0.35309024923E+02  0.34794676974E+02  0.76039679760E+02  0.47000000000E+01 0. -1.
        -13    1    6    6    0    0 -0.50579940010E+02  0.26758479723E+02 -0.26138376974E+02  0.62909151316E+02  0.00000000000E+00 0.  1.
         14    1    6    6    0    0 -0.28367781634E+02  0.64856578403E+01  0.47731573419E+02  0.55902575017E+02  0.00000000000E+00 0. -1.
         -5    1    3    3    0  503 -0.69879386730E+01  0.19618229957E+02 -0.84539156502E+02  0.87193263590E+02  0.47000000000E+01 0.  1.
         11    1    4    4    0    0  0.54578040223E+02 -0.49759460563E+02  0.23118850028E+01  0.73892565271E+02  0.00000000000E+00 0. -1.
        -12    1    4    4    0    0 -0.26110163152E+02 -0.38411931880E+02 -0.14666222329E+02  0.48706418551E+02  0.00000000000E+00 0.  1.
</event>
<event>
12    1  0.1594973E-001  0.1837002E+03  0.7818608E-02  0.1164347E+00
         21   -1    0    0  503  502  0.00000000000E+00  0.00000000000E+00  0.39840309567E+02  0.39840309567E+02  0.00000000000E+00 0. -1.
         21   -1    0    0  501  503 -0.00000000000E+00 -0.00000000000E+00 -0.84766647012E+03  0.84766647012E+03  0.00000000000E+00 0.  1.
          6    2    1    2  501    0  0.55223848551E+02  0.37880392178E+02 -0.38117267342E+03  0.42298662432E+03  0.17070582835E+03 0.  0.
         24    2    3    3    0    0 -0.17641027850E+02  0.14068376215E+02 -0.91325733898E+02  0.12313726103E+03  0.79456090442E+02 0.  0.
         -6    2    1    2    0  502 -0.55223848551E+02 -0.37880392178E+02 -0.42665348713E+03  0.46452015537E+03  0.17105899304E+03 0.  0.
        -24    2    5    5    0    0 -0.46102107437E+02 -0.64953895300E+02 -0.15466128706E+03  0.19099131295E+03  0.78823569338E+02 0.  0.
          5    1    3    3  501    0  0.72864876401E+02  0.23812015962E+02 -0.28984693952E+03  0.29984936329E+03  0.47000000000E+01 0. -1.
        -11    1    4    4    0    0  0.13008657975E+02 -0.21586605851E+01 -0.87224168482E+02  0.88215307998E+02  0.00000000000E+00 0.  1.
         12    1    4    4    0    0 -0.30649685825E+02  0.16227036800E+02 -0.41015654156E+01  0.34921953029E+02  0.00000000000E+00 0. -1.
         -5    1    5    5    0  502 -0.91217411142E+01  0.27073503123E+02 -0.27199220007E+03  0.27352884241E+03  0.47000000000E+01 0.  1.
         11    1    6    6    0    0  0.31117751344E+01 -0.57949454345E+01  0.84088779621E+01  0.10675849646E+02  0.00000000000E+00 0. -1.
        -12    1    6    6    0    0 -0.49213882571E+02 -0.59158949866E+02 -0.16307016502E+03  0.18031546331E+03  0.00000000000E+00 0.  1.
</event>
<event>
12    1  0.1594973E-001  0.1788828E+03  0.7818608E-02  0.1169389E+00
         21   -1    0    0  501  502  0.00000000000E+00  0.00000000000E+00  0.17420927010E+03  0.17420927010E+03  0.00000000000E+00 0.  1.
         21   -1    0    0  502  503 -0.00000000000E+00 -0.00000000000E+00 -0.20009061444E+03  0.20009061444E+03  0.00000000000E+00 0.  1.
         -6    2    1    2    0  503  0.24653118953E+02  0.32594086703E+02 -0.69770236473E+02  0.19011166883E+03  0.17205932107E+03 0.  0.
        -24    2    3    3    0    0  0.32961584313E+02  0.68176538860E+02  0.65931168957E+00  0.11062863446E+03  0.80645852836E+02 0.  0.
          6    2    1    2  501    0 -0.24653118953E+02 -0.32594086703E+02  0.43888892125E+02  0.18418821571E+03  0.17415198303E+03 0.  0.
         24    2    5    5    0    0  0.54426165112E+02 -0.22313019159E+02  0.30000813410E+02  0.10310676131E+03  0.79188870107E+02 0.  0.
          5    1    5    5  501    0 -0.79079284065E+02 -0.10281067543E+02  0.13888078715E+02  0.81081454405E+02  0.47000000000E+01 0. -1.
        -13    1    6    6    0    0 -0.61543174249E+01 -0.60453160394E+00  0.37782665413E+02  0.38285387384E+02  0.00000000000E+00 0.  1.
         14    1    6    6    0    0  0.60580482537E+02 -0.21708487555E+02 -0.77818520038E+01  0.64821373921E+02  0.00000000000E+00 0. -1.
         -5    1    3    3    0  503 -0.83084653604E+01 -0.35582452157E+02 -0.70429548163E+02  0.79483034369E+02  0.47000000000E+01 0.  1.
         11    1    4    4    0    0 -0.26680419324E+02  0.28217733619E+02  0.55714639607E+00  0.38838069957E+02  0.00000000000E+00 0. -1.
        -12    1    4    4    0    0  0.59642003637E+02  0.39958805241E+02  0.10216529350E+00  0.71790564505E+02  0.00000000000E+00 0.  1.
</event>
<event>
12    1  0.1594973E-001  0.2416977E+03  0.7818608E-02  0.1118685E+00
         21   -1    0    0  501  502  0.00000000000E+00  0.00000000000E+00  0.52162695361E+03  0.52162695361E+03  0.00000000000E+00 0. -1.
         21   -1    0    0  502  503 -0.00000000000E+00 -0.00000000000E+00 -0.12995925007E+03  0.12995925007E+03  0.00000000000E+00 0.  1.
         -6    2    1    2    0  503  0.16040323182E+03  0.58200519920E+02  0.74484795010E+02  0.25280962432E+03  0.17102112199E+03 0.  0.
        -24    2    3    3    0    0  0.77985685722E+02  0.65544120131E+02 -0.15020278886E+02  0.13082672134E+03  0.80698348040E+02 0.  0.
          6    2    1    2  501    0 -0.16040323182E+03 -0.58200519920E+02  0.31718290853E+03  0.39877657936E+03  0.17117612417E+03 0.  0.
         24    2    5    5    0    0 -0.79335130596E+02 -0.41193292514E+02  0.79215469815E+02  0.14676095542E+03  0.85280344066E+02 0.  0.
          5    1    5    5  501    0 -0.81068101222E+02 -0.17007227406E+02  0.23796743871E+03  0.25201562393E+03  0.47000000000E+01 0. -1.
        -11    1    6    6    0    0  0.13915247695E+02 -0.17053981781E+02  0.33634918667E+02  0.40196768113E+02  0.00000000000E+00 0.  1.
         12    1    6    6    0    0 -0.93250378291E+02 -0.24139310733E+02  0.45580551148E+02  0.10656418731E+03  0.00000000000E+00 0. -1.
         -5    1    3    3    0  503  0.82417546096E+02 -0.73436002105E+01  0.89505073895E+02  0.12198290299E+03  0.47000000000E+01 0.  1.
         13    1    4    4    0    0 -0.53009727993E+01  0.36903744676E+02 -0.20566175037E+02  0.42578800352E+02  0.00000000000E+00 0. -1.
        -14    1    4    4    0    0  0.83286658521E+02  0.28640375455E+02  0.55458961517E+01  0.88247920983E+02  0.00000000000E+00 0.  1.
</event>
<event>
12    1  0.1594973E-001  0.1878745E+03  0.7818608E-02  0.1161035E+00
         21   -1    0    0  501  502  0.00000000000E+00  0.00000000000E+00  0.61133238177E+03  0.61133238177E+03  0.00000000000E+00 0.  1.
         21   -1    0    0  502  503 -0.00000000000E+00 -0.00000000000E+00 -0.57501446848E+02  0.57501446848E+02  0.00000000000E+00 0.  1.
         -6    2    1    2    0  503 -0.15990169426E+02  0.75300427820E+02  0.31360600946E+03  0.36557565668E+03  0.17137967103E+03 0.  0.
        -24    2    3    3    0    0  0.20577983509E+02  0.22756453039E+02  0.28006473115E+03  0.29315185918E+03  0.80996600811E+02 0.  0.
          6    2    1    2  501    0  0.15990169426E+02 -0.75300427820E+02  0.24022492547E+03  0.30325817194E+03  0.16832012382E+03 0.  0.
         24    2    5    5    0    0  0.52270784866E+02 -0.88128798048E+02  0.11897349919E+03  0.17595990599E+03  0.79424649892E+02 0.  0.
          5    1    5    5  501    0 -0.36280615441E+02  0.12828370228E+02  0.12125142628E+03  0.12729826595E+03  0.47000000000E+01 0. -1.
        -13    1    6    6    0    0  0.33795576683E+02 -0.96346442669E+02  0.72340106744E+02  0.12513140718E+03  0.00000000000E+00 0.  1.
         14    1    6    6    0    0  0.18475208184E+02  0.82176446208E+01  0.46633392447E+02  0.50828498814E+02  0.00000000000E+00 0. -1.
         -5    1    3    3    0  503 -0.36568152934E+02  0.52543974780E+02  0.33541278305E+02  0.72423797505E+02  0.47000000000E+01 0.  1.
         11    1    4    4    0    0  0.15750530067E+01 -0.13361016701E+02  0.39275476488E+01  0.14015105772E+02  0.00000000000E+00 0. -1.
        -12    1    4    4    0    0  0.19002930502E+02  0.36117469740E+02  0.27613718350E+03  0.27913675340E+03  0.00000000000E+00 0.  1.
</event>
<event>
12    1  0.1594973E-001  0.2141659E+03  0.7818608E-02  0.1139238E+00
         21   -1    0    0  501  502  0.00000000000E+00  0.00000000000E+00  0.17746860434E+04  0.17746860434E+04  0.00000000000E+00 0.  1.
         21   -1    0    0  502  503 -0.00000000000E+00 -0.00000000000E+00 -0.26209083651E+02  0.26209083651E+02  0.00000000000E+00 0.  1.
         -6    2    1    2    0  503  0.81496410866E+02 -0.94074171436E+02  0.69472506539E+03  0.72559977346E+03  0.16840576012E+03 0.  0.
        -24    2    3    3    0    0  0.85057054907E+01  0.11434265569E+02  0.28098177808E+03  0.29239627492E+03  0.79634995562E+02 0.  0.
          6    2    1    2  501    0 -0.81496410866E+02  0.94074171436E+02  0.10537518943E+04  0.10752953536E+04  0.17428547812E+03 0.  0.
         24    2    5    5    0    0 -0.34735892127E+02 -0.58897684739E+01  0.68079419561E+03  0.68632379879E+03  0.79488039529E+02 0.  0.
          5    1    5    5  501    0 -0.46760518739E+02  0.99963939910E+02  0.37295769874E+03  0.38897155480E+03  0.47000000000E+01 0. -1.
        -13    1    6    6    0    0 -0.37349848026E+02  0.30752572662E+02  0.31563588235E+03  0.31932231694E+03  0.00000000000E+00 0.  1.
         14    1    6    6    0    0  0.26139558984E+01 -0.36642341135E+02  0.36515831326E+03  0.36700148184E+03  0.00000000000E+00 0. -1.
         -5    1    3    3    0  503  0.72990705375E+02 -0.10550843701E+03  0.41374328731E+03  0.43320349854E+03  0.47000000000E+01 0.  1.
         11    1    4    4    0    0 -0.32777488791E+02 -0.78522102902E+01  0.14918334119E+03  0.15294342178E+03  0.00000000000E+00 0. -1.
        -12    1    4    4    0    0  0.41283194281E+02  0.19286475860E+02  0.13179843689E+03  0.13945285314E+03  0.00000000000E+00 0.  1.
</event>
<event>
12    1  0.1594973E-001  0.2058714E+03  0.7818608E-02  0.1145233E+00
         21   -1    0    0  501  502  0.00000000000E+00  0.00000000000E+00  0.19638285798E+03  0.19638285798E+03  0.00000000000E+00 0.  1.
         21   -1    0    0  502  503 -0.00000000000E+00 -0.00000000000E+00 -0.27331016274E+03  0.27331016274E+03  0.00000000000E+00 0.  1.
         -6    2    1    2    0  503 -0.11086239086E+03  0.15470371216E+02 -0.14799500170E+03  0.25354592584E+03  0.17278082616E+03 0.  0.
        -24    2    3    3    0    0 -0.74307716999E+02 -0.47014656397E+02 -0.14320435191E+03  0.18084335929E+03  0.66819304634E+02 0.  0.
          6    2    1    2  501    0  0.11086239086E+03 -0.15470371216E+02  0.71067696939E+02  0.21614709488E+03  0.17070192437E+03 0.  0.
         24    2    5    5    0    0  0.67338206611E+02  0.31830991070E+02  0.98002436525E+02  0.14629479581E+03  0.79057217601E+02 0.  0.
          5    1    5    5  501    0  0.43524184247E+02 -0.47301362287E+02 -0.26934739586E+02  0.69852299068E+02  0.47000000000E+01 0. -1.
        -13    1    6    6    0    0  0.49835780411E+02  0.11327568060E+02  0.10641806649E+03  0.11805390160E+03  0.00000000000E+00 0.  1.
         14    1    6    6    0    0  0.17502426201E+02  0.20503423010E+02 -0.84156299680E+01  0.28240894211E+02  0.00000000000E+00 0. -1.
         -5    1    3    3    0  503 -0.36554673860E+02  0.62485027614E+02 -0.47906497907E+01  0.72702566545E+02  0.47000000000E+01 0.  1.
         13    1    4    4    0    0 -0.35966375074E+02 -0.22302338340E+02 -0.15220941279E+02  0.44973897817E+02  0.00000000000E+00 0. -1.
        -14    1    4    4    0    0 -0.38341341924E+02 -0.24712318057E+02 -0.12798341063E+03  0.13586946147E+03  0.00000000000E+00 0.  1.
</event>
<event>
12    1  0.1594973E-001  0.1807846E+03  0.7818608E-02  0.1167057E+00
         21   -1    0    0  501  502  0.00000000000E+00  0.00000000000E+00  0.15883856872E+03  0.15883856872E+03  0.00000000000E+00 0.  1.
         21   -1    0    0  502  503 -0.00000000000E+00 -0.00000000000E+00 -0.46400161149E+03  0.46400161149E+03  0.00000000000E+00 0.  1.
         -6    2    1    2    0  503  0.54590686723E+02 -0.88760753399E+01 -0.38494054645E+03  0.42527906239E+03  0.17211661399E+03 0.  0.
        -24    2    3    3    0    0  0.38257645127E+02  0.18955827869E+02 -0.86333848478E+02  0.12489691718E+03  0.79515631840E+02 0.  0.
          6    2    1    2  501    0 -0.54590686723E+02  0.88760753399E+01  0.79777503683E+02  0.19756111783E+03  0.17206689802E+03 0.  0.
         24    2    5    5    0    0 -0.39178318092E+02 -0.52149211918E+01  0.11652976959E+03  0.15502976070E+03  0.94302192382E+02 0.  0.
          5    1    5    5  501    0 -0.15412368632E+02  0.14090996532E+02 -0.36752265911E+02  0.42531357134E+02  0.47000000000E+01 0. -1.
        -11    1    6    6    0    0 -0.47451320550E+02 -0.38219880193E+02  0.10024115984E+03  0.11730591285E+03  0.00000000000E+00 0.  1.
         12    1    6    6    0    0  0.82730024580E+01  0.33004959001E+02  0.16288609752E+02  0.37723847842E+02  0.00000000000E+00 0. -1.
         -5    1    3    3    0  503  0.16333041596E+02 -0.27831903209E+02 -0.29860669798E+03  0.30038214521E+03  0.47000000000E+01 0.  1.
         11    1    4    4    0    0  0.51669036196E+02  0.38689144200E+02 -0.73444795661E+02  0.97778715425E+02  0.00000000000E+00 0. -1.
        -12    1    4    4    0    0 -0.13411391069E+02 -0.19733316331E+02 -0.12889052816E+02  0.27118201754E+02  0.00000000000E+00 0.  1.
</event>
<event>
12    1  0.1594973E-001  0.2095263E+03  0.7818608E-02  0.1142727E+00
         21   -1    0    0  501  502  0.00000000000E+00  0.00000000000E+00  0.78248188694E+03  0.78248188694E+03  0.00000000000E+00 0.  1.
         21   -1    0    0  502  503 -0.00000000000E+00 -0.00000000000E+00 -0.55210244470E+02  0.55210244470E+02  0.00000000000E+00 0. -1.
         -6    2    1    2    0  503  0.99338539266E+02  0.56650692885E+02  0.34536956476E+03  0.40395718289E+03  0.17556714658E+03 0.  0.
        -24    2    3    3    0    0  0.13736815998E+03  0.34525776429E+02  0.24500574412E+03  0.29427240513E+03  0.80662216397E+02 0.  0.
          6    2    1    2  501    0 -0.99338539266E+02 -0.56650692885E+02  0.38190207771E+03  0.43373494852E+03  0.17087820873E+03 0.  0.
         24    2    5    5    0    0  0.23145803847E+01  0.34137782720E+01  0.84703969423E+02  0.11390702135E+03  0.76046274802E+02 0.  0.
          5    1    5    5  501    0 -0.10165311965E+03 -0.60064471157E+02  0.29719810829E+03  0.31982792718E+03  0.47000000000E+01 0. -1.
        -13    1    6    6    0    0 -0.32272602265E+02  0.11442815071E+02  0.64574384242E+02  0.73091107352E+02  0.00000000000E+00 0.  1.
         14    1    6    6    0    0  0.34587182650E+02 -0.80290367986E+01  0.20129585181E+02  0.40815913993E+02  0.00000000000E+00 0. -1.
         -5    1    3    3    0  503 -0.38029620712E+02  0.22124916456E+02  0.10036382064E+03  0.10968477776E+03  0.47000000000E+01 0.  1.
         11    1    4    4    0    0 -0.48868315766E+01 -0.10871121558E+02  0.87603830844E+01  0.14792116771E+02  0.00000000000E+00 0. -1.
        -12    1    4    4    0    0  0.14225499155E+03  0.45396897987E+02  0.23624536104E+03  0.27948028836E+03  0.00000000000E+00 0.  1.
</event>
<event>
12    1  0.1594973E-001  0.2447462E+03  0.7818608E-02  0.1116685E+00
         21   -1    0    0  503  502  0.00000000000E+00  0.00000000000E+00  0.51240221478E+02  0.51240221478E+02  0.00000000000E+00 0. -1.
         21   -1    0    0  501  503 -0.00000000000E+00 -0.00000000000E+00 -0.18120891266E+04  0.18120891266E+04  0.00000000000E+00 0.  1.
          6    2    1    2  501    0 -0.57437410635E+02 -0.16422145259E+03 -0.14355138618E+04  0.14562131806E+04  0.17201464557E+03 0.  0.
         24    2    3    3    0    0  0.10199359214E+02 -0.34457648313E+02 -0.33684040504E+03  0.34782749316E+03  0.78937634063E+02 0.  0.
         -6    2    1    2    0  502  0.57437410635E+02  0.16422145259E+03 -0.32533504325E+03  0.40711616741E+03  0.17214221379E+03 0.  0.
        -24    2    5    5    0    0  0.29186866631E+02  0.10953506518E+03 -0.93631251192E+02  0.16732994708E+03  0.79891778692E+02 0.  0.
          5    1    3    3  501    0 -0.67636769849E+02 -0.12976380428E+03 -0.10986734568E+04  0.11083856875E+04  0.47000000000E+01 0. -1.
        -11    1    4    4    0    0  0.68203730337E+00 -0.36795821452E+02 -0.33597987186E+03  0.33798945538E+03  0.00000000000E+00 0.  1.
         12    1    4    4    0    0  0.95173219105E+01  0.23381731384E+01 -0.86053318052E+00  0.98380377784E+01  0.00000000000E+00 0. -1.
         -5    1    5    5    0  502  0.28250544004E+02  0.54686387406E+02 -0.23170379206E+03  0.23978622033E+03  0.47000000000E+01 0.  1.
         11    1    6    6    0    0 -0.97990165875E+01  0.12795639977E+02  0.11063239832E+02  0.19548514114E+02  0.00000000000E+00 0. -1.
        -12    1    6    6    0    0  0.38985883219E+02  0.96739425207E+02 -0.10469449102E+03  0.14778143297E+03  0.00000000000E+00 0.  1.
</event>
<event>
12    1  0.1594973E-001  0.1979765E+03  0.7818608E-02  0.1151601E+00
         21   -1    0    0  501  502  0.00000000000E+00  0.00000000000E+00  0.52036868026E+02  0.52036868026E+02  0.00000000000E+00 0.  1.
         21   -1    0    0  502  503 -0.00000000000E+00 -0.00000000000E+00 -0.10226225294E+04  0.10226225294E+04  0.00000000000E+00 0. -1.
         -6    2    1    2    0  503  0.23291810789E+02  0.93780282180E+02 -0.20879746376E+03  0.28773440600E+03  0.17279310678E+03 0.  0.
        -24    2    3    3    0    0 -0.22148856457E+02  0.73051076334E+02 -0.53449153425E+02  0.12448691984E+03  0.82541805252E+02 0.  0.
          6    2    1    2  501    0 -0.23291810789E+02 -0.93780282180E+02 -0.76178819763E+03  0.78692499143E+03  0.17202451663E+03 0.  0.
         24    2    5    5    0    0 -0.53286346733E+02 -0.31850515339E+02 -0.23770869815E+03  0.25832648597E+03  0.79832688170E+02 0.  0.
          5    1    5    5  501    0  0.29994535944E+02 -0.61929766840E+02 -0.52407949947E+03  0.52859850546E+03  0.47000000000E+01 0. -1.
        -13    1    6    6    0    0 -0.16250433890E+02  0.19751883042E+02 -0.22925282434E+02  0.34347955689E+02  0.00000000000E+00 0.  1.
         14    1    6    6    0    0 -0.37035912843E+02 -0.51602398382E+02 -0.21478341572E+03  0.22397853028E+03  0.00000000000E+00 0. -1.
         -5    1    3    3    0  503  0.45440667246E+02  0.20729205846E+02 -0.15534831033E+03  0.16324748616E+03  0.47000000000E+01 0.  1.
         11    1    4    4    0    0 -0.11768795184E+02 -0.93378747180E+01 -0.36862494789E+02  0.39806330732E+02  0.00000000000E+00 0. -1.
        -12    1    4    4    0    0 -0.10380061273E+02  0.82388951052E+02 -0.16586658636E+02  0.84680589111E+02  0.00000000000E+00 0.  1.
</event>
<event>
12    1  0.1594973E-001  0.1842208E+03  0.7818608E-02  0.1164088E+00
         21   -1    0    0  501  502  0.00000000000E+00  0.00000000000E+00  0.10347603342E+03  0.10347603342E+03  0.00000000000E+00 0. -1.
         21   -1    0    0  502  503 -0.00000000000E+00 -0.00000000000E+00 -0.48301028111E+03  0.48301028111E+03  0.00000000000E+00 0. -1.
         -6    2    1    2    0  503  0.36516137649E+02  0.50115515960E+02 -0.35668947716E+03  0.40085441830E+03  0.17208105155E+03 0.  0.
        -24    2    3    3    0    0  0.63086673181E+02 -0.14503781369E+02 -0.27537789238E+03  0.29354500228E+03  0.78392580955E+02 0.  0.
          6    2    1    2  501    0 -0.36516137649E+02 -0.50115515960E+02 -0.22844770524E+02  0.18563189623E+03  0.17347139277E+03 0.  0.
         24    2    5    5    0    0 -0.67381576501E+02 -0.75086936436E+02  0.22273167883E+02  0.12534951471E+03  0.70979447411E+02 0.  0.
          5    1    5    5  501    0  0.30865438851E+02  0.24971420476E+02 -0.45117938407E+02  0.60282381524E+02  0.47000000000E+01 0. -1.
        -13    1    6    6    0    0 -0.19328197470E+02 -0.13399383294E+01 -0.19876328100E+02  0.27756856286E+02  0.00000000000E+00 0.  1.
         14    1    6    6    0    0 -0.48053379031E+02 -0.73746998106E+02  0.42149495984E+02  0.97592658421E+02  0.00000000000E+00 0. -1.
         -5    1    3    3    0  503 -0.26570535531E+02  0.64619297329E+02 -0.81311584787E+02  0.10730941602E+03  0.47000000000E+01 0.  1.
         11    1    4    4    0    0  0.10671040283E+01  0.26961690422E+02 -0.68182944781E+02  0.73327930697E+02  0.00000000000E+00 0. -1.
        -12    1    4    4    0    0  0.62019569152E+02 -0.41465471790E+02 -0.20719494760E+03  0.22021707159E+03  0.00000000000E+00 0.  1.
</event>
<event>
12    1  0.1594973E-001  0.2109348E+03  0.7818608E-02  0.1140853E+00
         21   -1    0    0  501  502  0.00000000000E+00  0.00000000000E+00  0.13158717609E+03  0.13158717609E+03  0.00000000000E+00 0. -1.
         21   -1    0    0  502  503 -0.00000000000E+00 -0.00000000000E+00 -0.35059676453E+03  0.35059676453E+03  0.00000000000E+00 0. -1.
         -6    2    1    2    0  503  0.11005484653E+03 -0.54564874344E+02 -0.63700645123E+02  0.22034347051E+03  0.17147617342E+03 0.  0.
        -24    2    3    3    0    0  0.98217774021E+02 -0.75812243905E+01  0.15067727997E+02  0.12774689253E+03  0.79925127639E+02 0.  0.
          6    2    1    2  501    0 -0.11005484653E+03  0.54564874344E+02 -0.15530894332E+03  0.26184047011E+03  0.17131891068E+03 0.  0.
         24    2    5    5    0    0 -0.44385664173E+01 -0.15309882672E+02 -0.39606174552E+02  0.90240642047E+02  0.79502396411E+02 0.  0.
          5    1    5    5  501    0 -0.10561628011E+03  0.69874757015E+02 -0.11570276876E+03  0.17159982806E+03  0.47000000000E+01 0. -1.
        -13    1    6    6    0    0  0.29925915969E+02  0.13039191863E+02 -0.33723491632E+01  0.32816972894E+02  0.00000000000E+00 0.  1.
         14    1    6    6    0    0 -0.34364482386E+02 -0.28349074535E+02 -0.36233825389E+02  0.57423669153E+02  0.00000000000E+00 0. -1.
         -5    1    3    3    0  503  0.11837072504E+02 -0.46983649953E+02 -0.78768373120E+02  0.92596577974E+02  0.47000000000E+01 0.  1.
         11    1    4    4    0    0  0.41756459376E+02 -0.15319628601E+02 -0.31209024025E+02  0.54335035665E+02  0.00000000000E+00 0. -1.
        -12    1    4    4    0    0  0.56461314646E+02  0.77384042107E+01  0.46276752023E+02  0.73411856869E+02  0.00000000000E+00 0.  1.
</event>
<event>
12    1  0.1594973E-001  0.2153269E+03  0.7818608E-02  0.1137688E+00
         21   -1    0    0  503  502  0.00000000000E+00  0.00000000000E+00  0.39884277110E+03  0.39884277110E+03  0.00000000000E+00 0. -1.
         21   -1    0    0  501  503 -0.00000000000E+00 -0.00000000000E+00 -0.11601099193E+03  0.11601099193E+03  0.00000000000E+00 0.  1.
          6    2    1    2  501    0 -0.88541355712E+02  0.92753137659E+02  0.15823368727E+03  0.26607603962E+03  0.17121869891E+03 0.  0.
         24    2    3    3    0    0 -0.12304827214E+03  0.88429400776E+02  0.10065992969E+03  0.19865015777E+03  0.79804934301E+02 0.  0.
         -6    2    1    2    0  502  0.88541355712E+02 -0.92753137659E+02  0.12459809190E+03  0.24877772341E+03  0.17298252785E+03 0.  0.
        -24    2    5    5    0    0  0.30895048177E+02  0.16500611492E+02  0.80692358040E+02  0.11759357063E+03  0.78039842549E+02 0.  0.
          5    1    3    3  501    0  0.34506916427E+02  0.43237368833E+01  0.57573757581E+02  0.67425881855E+02  0.47000000000E+01 0. -1.
        -13    1    4    4    0    0 -0.93168376699E+02  0.27093429631E+02  0.84194738632E+02  0.12846460353E+03  0.00000000000E+00 0.  1.
         14    1    4    4    0    0 -0.29879895440E+02  0.61335971145E+02  0.16465191056E+02  0.70185554242E+02  0.00000000000E+00 0. -1.
         -5    1    5    5    0  502  0.57646307535E+02 -0.10925374915E+03  0.43905733864E+02  0.13118415279E+03  0.47000000000E+01 0.  1.
         13    1    6    6    0    0  0.30236422519E+02 -0.13806819065E+02  0.80701619446E+02  0.87278983041E+02  0.00000000000E+00 0. -1.
        -14    1    6    6    0    0  0.65862565777E+00  0.30307430557E+02 -0.92614057317E-02  0.30314587585E+02  0.00000000000E+00 0.  1.
</event>
<event>
12    1  0.1594973E-001  0.1894095E+03  0.7818608E-02  0.1159079E+00
         21   -1    0    0  501  502  0.00000000000E+00  0.00000000000E+00  0.41413243006E+03  0.41413243006E+03  0.00000000000E+00 0.  1.
         21   -1    0    0  502  503 -0.00000000000E+00 -0.00000000000E+00 -0.12775189345E+03  0.12775189345E+03  0.00000000000E+00 0.  1.
         -6    2    1    2    0  503 -0.39695891135E+02 -0.68733935509E+02 -0.10940552816E+02  0.18935663596E+03  0.17156958420E+03 0.  0.
        -24    2    3    3    0    0 -0.16145710767E+02  0.29881258177E+02 -0.24152383962E+01  0.87502139708E+02  0.80605319369E+02 0.  0.
          6    2    1    2  501    0  0.39695891135E+02  0.68733935509E+02  0.29732108943E+03  0.35252768755E+03  0.17197622686E+03 0.  0.
         24    2    5    5    0    0  0.45180645648E+01  0.95857144930E+02  0.13412637917E+03  0.18333031337E+03  0.80069426563E+02 0.  0.
          5    1    5    5  501    0  0.35177826571E+02 -0.27123209421E+02  0.16319471026E+03  0.16919737417E+03  0.47000000000E+01 0. -1.
        -13    1    6    6    0    0 -0.57575281192E+01  0.48615039967E+02  0.12484585527E+03  0.13410092774E+03  0.00000000000E+00 0.  1.
         14    1    6    6    0    0  0.10275592684E+02  0.47242104963E+02  0.92805238997E+01  0.49229385637E+02  0.00000000000E+00 0. -1.
         -5    1    3    3    0  503 -0.23550180369E+02 -0.98615193685E+02 -0.85253144195E+01  0.10185449625E+03  0.47000000000E+01 0.  1.
         11    1    4    4    0    0 -0.12365585296E+02 -0.18017513303E+02  0.24174664720E+02  0.32587618809E+02  0.00000000000E+00 0. -1.
        -12    1    4    4    0    0 -0.37801254706E+01  0.47898771480E+02 -0.26589903116E+02  0.54914520899E+02  0.00000000000E+00 0.  1.
</event>
<event>
12    1  0.1594973E-001  0.2217983E+03  0.7818608E-02  0.1132636E+00
         21   -1    0    0  501  502  0.00000000000E+00  0.00000000000E+00  0.33349803095E+03  0.33349803095E+03  0.00000000000E+00 0.  1.
         21   -1    0    0  502  503 -0.00000000000E+00 -0.00000000000E+00 -0.38887044035E+03  0.38887044035E+03  0.00000000000E+00 0.  1.
         -6    2    1    2    0  503  0.61560239108E+02  0.12382684556E+03 -0.31243134931E+03  0.38315511229E+03  0.17341205646E+03 0.  0.
        -24    2    3    3    0    0  0.53224537584E+02  0.36624213752E+01 -0.98685760438E+02  0.13776106281E+03  0.79956027803E+02 0.  0.
          6    2    1    2  501    0 -0.61560239108E+02 -0.12382684556E+03  0.25705893991E+03  0.33921335901E+03  0.17281103443E+03 0.  0.
         24    2    5    5    0    0 -0.96889989976E+02 -0.42939404570E+02  0.15885914354E+03  0.20709122077E+03  0.80119183784E+02 0.  0.
          5    1    5    5  501    0  0.35329750868E+02 -0.80887440987E+02  0.98199796369E+02  0.13212213824E+03  0.47000000000E+01 0. -1.
        -11    1    6    6    0    0 -0.88201519616E+02 -0.60014853619E+02  0.15397062062E+03  0.18731855950E+03  0.00000000000E+00 0.  1.
         12    1    6    6    0    0 -0.86884703593E+01  0.17075449049E+02  0.48885229209E+01  0.19772661271E+02  0.00000000000E+00 0. -1.
         -5    1    3    3    0  503  0.83357015237E+01  0.12016442418E+03 -0.21374558887E+03  0.24539404948E+03  0.47000000000E+01 0.  1.
         13    1    4    4    0    0  0.59064115019E+02  0.17996715572E+02 -0.32473505923E+02  0.69763744461E+02  0.00000000000E+00 0. -1.
        -14    1    4    4    0    0 -0.58395774346E+01 -0.14334294197E+02 -0.66212254515E+02  0.67997318349E+02  0.00000000000E+00 0.  1.
</event>
<event>
12    1  0.1594973E-001  0.2020294E+03  0.7818608E-02  0.1148321E+00
         21   -1    0    0  503  502  0.00000000000E+00  0.00000000000E+00  0.70951185411E+03  0.70951185411E+03  0.00000000000E+00 0.  1.
         21   -1    0    0  501  503 -0.00000000000E+00 -0.00000000000E+00 -0.11317638530E+03  0.11317638530E+03  0.00000000000E+00 0. -1.
          6    2    1    2  501    0  0.10357805235E+03 -0.77817893150E+01  0.82232672003E+01  0.20084273001E+03  0.17170093448E+03 0.  0.
         24    2    3    3    0    0 -0.54639739287E+01  0.27925512620E+02 -0.57598294206E+00  0.85670286655E+02  0.80804560472E+02 0.  0.
         -6    2    1    2    0  502 -0.10357805235E+03  0.77817893150E+01  0.58811220160E+03  0.62184550940E+03  0.17328273633E+03 0.  0.
        -24    2    5    5    0    0  0.16507564214E+02  0.12088263336E+02  0.26811124528E+03  0.27999495277E+03  0.78069891387E+02 0.  0.
          5    1    3    3  501    0  0.10904202628E+03 -0.35707301935E+02  0.87992501423E+01  0.11517244336E+03  0.47000000000E+01 0. -1.
        -13    1    4    4    0    0  0.27403622501E+02  0.34500790124E+02  0.17712457818E+02  0.47486779289E+02  0.00000000000E+00 0.  1.
         14    1    4    4    0    0 -0.32867596430E+02 -0.65752775036E+01 -0.18288440760E+02  0.38183507366E+02  0.00000000000E+00 0. -1.
         -5    1    5    5    0  502 -0.12008561656E+03 -0.43064740210E+01  0.32000095632E+03  0.34185055663E+03  0.47000000000E+01 0.  1.
         13    1    6    6    0    0  0.15636514249E+02 -0.32305724660E+02  0.10592429482E+03  0.11183969178E+03  0.00000000000E+00 0. -1.
        -14    1    6    6    0    0  0.87104996402E+00  0.44393987996E+02  0.16218695046E+03  0.16815526099E+03  0.00000000000E+00 0.  1.
</event>
<event>
12    1  0.1594973E-001  0.2565618E+03  0.7818608E-02  0.1109227E+00
         21   -1    0    0  501  502  0.00000000000E+00  0.00000000000E+00  0.28917881516E+03  0.28917881516E+03  0.00000000000E+00 0.  1.
         21   -1    0    0  502  503 -0.00000000000E+00 -0.00000000000E+00 -0.66099442272E+03  0.66099442272E+03  0.00000000000E+00 0. -1.
         -6    2    1    2    0  503  0.91664221921E+02  0.16765792619E+03 -0.57059212317E+03  0.62561915492E+03  0.17120877950E+03 0.  0.
        -24    2    3    3    0    0  0.18418642736E+02  0.14636147185E+03 -0.47171014328E+03  0.50064639874E+03  0.79846292732E+02 0.  0.
          6    2    1    2  501    0 -0.91664221921E+02 -0.16765792619E+03  0.19877651561E+03  0.32455408296E+03  0.17120671660E+03 0.  0.
         24    2    5    5    0    0 -0.47211607191E+02 -0.56435679660E+02  0.19901808691E+02  0.10922950504E+03  0.78237337565E+02 0.  0.
          5    1    5    5  501    0 -0.44452614730E+02 -0.11122224653E+03  0.17887470692E+03  0.21532457792E+03  0.47000000000E+01 0. -1.
        -13    1    6    6    0    0 -0.42458630813E+02 -0.15544836652E+02  0.42684132982E+02  0.62179679040E+02  0.00000000000E+00 0.  1.
         14    1    6    6    0    0 -0.47529763779E+01 -0.40890843008E+02 -0.22782324290E+02  0.47049825997E+02  0.00000000000E+00 0. -1.
         -5    1    3    3    0  503  0.73245579185E+02  0.21296454342E+02 -0.98881979898E+02  0.12497275618E+03  0.47000000000E+01 0.  1.
         13    1    4    4    0    0  0.23610823750E+01  0.70170735088E+02 -0.34383528072E+03  0.35093048747E+03  0.00000000000E+00 0. -1.
        -14    1    4    4    0    0  0.16057560361E+02  0.76190736758E+02 -0.12787486256E+03  0.14971591127E+03  0.00000000000E+00 0.  1.
</event>
<event>
12    1  0.1594973E-001  0.1890309E+03  0.7818608E-02  0.1159473E+00
         21   -1    0    0  501  502  0.00000000000E+00  0.00000000000E+00  0.16483746967E+03  0.16483746967E+03  0.00000000000E+00 0. -1.
         21   -1    0    0  502  503 -0.00000000000E+00 -0.00000000000E+00 -0.21943925626E+03  0.21943925626E+03  0.00000000000E+00 0. -1.
         -6    2    1    2    0  503 -0.45554599490E+02  0.63394160487E+02 -0.36332643652E+01  0.18906580943E+03  0.17215875978E+03 0.  0.
        -24    2    3    3    0    0 -0.89916860072E+02  0.75348810670E+02  0.97853624065E+01  0.14097138804E+03  0.77554457852E+02 0.  0.
          6    2    1    2  501    0  0.45554599490E+02 -0.63394160487E+02 -0.50968522216E+02  0.19521091650E+03  0.17150938909E+03 0.  0.
         24    2    5    5    0    0  0.64665161428E+01 -0.62598730723E+02 -0.92651528915E+02  0.13786918636E+03  0.80393966299E+02 0.  0.
          5    1    5    5  501    0  0.39088083347E+02 -0.79542976425E+00  0.41683006699E+02  0.57341730142E+02  0.47000000000E+01 0. -1.
        -13    1    6    6    0    0  0.25679065511E+02  0.84535567936E+01 -0.35824757564E+02  0.44880845385E+02  0.00000000000E+00 0.  1.
         14    1    6    6    0    0 -0.19212549368E+02 -0.71052287516E+02 -0.56826771351E+02  0.92988340972E+02  0.00000000000E+00 0. -1.
         -5    1    3    3    0  503  0.44362260582E+02 -0.11954650183E+02 -0.13418626772E+02  0.48094421396E+02  0.47000000000E+01 0.  1.
         11    1    4    4    0    0 -0.22751684415E+02  0.32534254560E+02 -0.32031264527E+02  0.51010967160E+02  0.00000000000E+00 0. -1.
        -12    1    4    4    0    0 -0.67165175657E+02  0.42814556110E+02  0.41816626933E+02  0.89960420875E+02  0.00000000000E+00 0.  1.
</event>
<event>
12    1  0.1594973E-001  0.2124541E+03  0.7818608E-02  0.1139890E+00
         21   -1    0    0  501  502  0.00000000000E+00  0.00000000000E+00  0.14426776768E+03  0.14426776768E+03  0.00000000000E+00 0.  1.
         21   -1    0    0  502  503 -0.00000000000E+00 -0.00000000000E+00 -0.45463726591E+03  0.45463726591E+03  0.00000000000E+00 0. -1.
         -6    2    1    2    0  503  0.40496894750E+02 -0.11598295363E+03 -0.32319661447E+03  0.38606406481E+03  0.17174797383E+03 0.  0.
        -24    2    3    3    0    0  0.99576075459E+01 -0.66689715547E+01 -0.21810589087E+03  0.23131153679E+03  0.76100054480E+02 0.  0.
          6    2    1    2  501    0 -0.40496894750E+02  0.11598295363E+03  0.12827116238E+02  0.21284096878E+03  0.17333406781E+03 0.  0.
         24    2    5    5    0    0 -0.67506339217E+02  0.15702952259E+02 -0.50979754728E+01  0.10734695152E+03  0.81814974807E+02 0.  0.
          5    1    5    5  501    0  0.27009444468E+02  0.10028000137E+03  0.17925091711E+02  0.10549401726E+03  0.47000000000E+01 0. -1.
        -11    1    6    6    0    0 -0.65240372655E+02 -0.70828859423E+01 -0.31167429639E+02  0.72649034184E+02  0.00000000000E+00 0.  1.
         12    1    6    6    0    0 -0.22659665619E+01  0.22785838202E+02  0.26069454166E+02  0.34697917337E+02  0.00000000000E+00 0. -1.
         -5    1    3    3    0  503  0.30539287204E+02 -0.10931398208E+03 -0.10509072360E+03  0.15475252801E+03  0.47000000000E+01 0.  1.
         13    1    4    4    0    0  0.18289495928E+02 -0.36483375046E+01 -0.22115437895E+03  0.22193935062E+03  0.00000000000E+00 0. -1.
        -14    1    4    4    0    0 -0.83318883820E+01 -0.30206340501E+01  0.30484880756E+01  0.93721861708E+01  0.00000000000E+00 0.  1.
</event>
<event>
12    1  0.1594973E-001  0.2156399E+03  0.7818608E-02  0.1137233E+00
         21   -1    0    0  501  502  0.00000000000E+00  0.00000000000E+00  0.74793879191E+03  0.74793879191E+03  0.00000000000E+00 0. -1.
         21   -1    0    0  502  503 -0.00000000000E+00 -0.00000000000E+00 -0.65441221485E+02  0.65441221485E+02  0.00000000000E+00 0. -1.
         -6    2    1    2    0  503 -0.11649320827E+03  0.57734928687E+02  0.24894703575E+03  0.32916247010E+03  0.17166629123E+03 0.  0.
        -24    2    3    3    0    0 -0.24890967946E+02  0.93676331480E+02  0.13305561302E+03  0.17705833889E+03  0.65200029516E+02 0.  0.
          6    2    1    2  501    0  0.11649320827E+03 -0.57734928687E+02  0.43355053468E+03  0.48421754330E+03  0.17203654717E+03 0.  0.
         24    2    5    5    0    0  0.63702895540E+02  0.36100731559E+02  0.21366140257E+03  0.23933947432E+03  0.79188807915E+02 0.  0.
          5    1    5    5  501    0  0.52790312731E+02 -0.93835660246E+02  0.21988913210E+03  0.24487806898E+03  0.47000000000E+01 0. -1.
        -13    1    6    6    0    0  0.71798388993E+02  0.31375758427E+02  0.10889734434E+03  0.13415691739E+03  0.00000000000E+00 0.  1.
         14    1    6    6    0    0 -0.80954934539E+01  0.47249731316E+01  0.10476405823E+03  0.10518255693E+03  0.00000000000E+00 0. -1.
         -5    1    3    3    0  503 -0.91602240325E+02 -0.35941402793E+02  0.11589142273E+03  0.15210413121E+03  0.47000000000E+01 0.  1.
         13    1    4    4    0    0 -0.36255821962E+02  0.45679383405E+02  0.10553342252E+03  0.12057526265E+03  0.00000000000E+00 0. -1.
        -14    1    4    4    0    0  0.11364854016E+02  0.47996948075E+02  0.27522190498E+02  0.56483076237E+02  0.00000000000E+00 0.  1.
</event>
<event>
12    1  0.1594973E-001  0.1997840E+03  0.7818608E-02  0.1149935E+00
         21   -1    0    0  501  502  0.00000000000E+00  0.00000000000E+00  0.13101631455E+03  0.13101631455E+03  0.00000000000E+00 0. -1.
         21   -1    0    0  502  503 -0.00000000000E+00 -0.00000000000E+00 -0.35713045436E+03  0.35713045436E+03  0.00000000000E+00 0. -1.
         -6    2    1    2    0  503  0.84492252480E+02  0.54981828204E+02 -0.20672363379E+03  0.28748615421E+03  0.17248677031E+03 0.  0.
        -24    2    3    3    0    0  0.12036348186E+03  0.18024605444E+02 -0.13093384445E+03  0.19573233369E+03  0.79719637861E+02 0.  0.
          6    2    1    2  501    0 -0.84492252480E+02 -0.54981828204E+02 -0.19390506018E+02  0.20066061470E+03  0.17241446693E+03 0.  0.
         24    2    5    5    0    0 -0.14063460098E+02 -0.43850995777E+02 -0.67870867182E+02  0.11430932261E+03  0.79620825692E+02 0.  0.
          5    1    5    5  501    0 -0.70428792383E+02 -0.11130832426E+02  0.48480361164E+02  0.86351292090E+02  0.47000000000E+01 0. -1.
        -13    1    6    6    0    0  0.24820250146E+02 -0.27339824719E+02 -0.32005626228E+01  0.37064193422E+02  0.00000000000E+00 0.  1.
         14    1    6    6    0    0 -0.38883710244E+02 -0.16511171059E+02 -0.64670304559E+02  0.77245129192E+02  0.00000000000E+00 0. -1.
         -5    1    3    3    0  503 -0.35871229384E+02  0.36957222759E+02 -0.75789789345E+02  0.91753820523E+02  0.47000000000E+01 0.  1.
         13    1    4    4    0    0  0.82323381499E+02  0.49513928872E+02 -0.84252944772E+02  0.12777842931E+03  0.00000000000E+00 0. -1.
        -14    1    4    4    0    0  0.38040100365E+02 -0.31489323428E+02 -0.46680899676E+02  0.67953904378E+02  0.00000000000E+00 0.  1.
</event>
<event>
12    1  0.1594973E-001  0.1831349E+03  0.7818608E-02  0.1166441E+00
         21   -1    0    0  501  502  0.00000000000E+00  0.00000000000E+00  0.36236632075E+02  0.36236632075E+02  0.00000000000E+00 0.  1.
         21   -1    0    0  502  503 -0.00000000000E+00 -0.00000000000E+00 -0.10452340574E+04  0.10452340574E+04  0.00000000000E+00 0.  1.
         -6    2    1    2    0  503  0.22025694723E+01 -0.66778552855E+02 -0.28907398993E+03  0.33861932388E+03  0.16320247674E+03 0.  0.
        -24    2    3    3    0    0  0.24064435062E+02  0.12723852310E+02 -0.88973110575E+02  0.12214524803E+03  0.79134403128E+02 0.  0.
          6    2    1    2  501    0 -0.22025694723E+01  0.66778552855E+02 -0.71992343538E+03  0.74285136558E+03  0.17051150140E+03 0.  0.
         24    2    5    5    0    0  0.34427279070E+02  0.18188445444E+02 -0.61656688816E+03  0.62282049374E+03  0.78959374097E+02 0.  0.
          5    1    5    5  501    0 -0.36629848542E+02  0.48590107411E+02 -0.10335654722E+03  0.12003087185E+03  0.47000000000E+01 0. -1.
        -13    1    6    6    0    0  0.82634727711E+01  0.38378291207E+02 -0.14892938365E+03  0.15401668589E+03  0.00000000000E+00 0.  1.
         14    1    6    6    0    0  0.26163806299E+02 -0.20189845763E+02 -0.46763750451E+03  0.46880380785E+03  0.00000000000E+00 0. -1.
         -5    1    3    3    0  503 -0.21861865589E+02 -0.79502405165E+02 -0.20010087936E+03  0.21647407585E+03  0.47000000000E+01 0.  1.
         11    1    4    4    0    0  0.18837520504E+01  0.32811698210E+02 -0.53107700307E+01  0.33292046190E+02  0.00000000000E+00 0. -1.
        -12    1    4    4    0    0  0.22180683011E+02 -0.20087845900E+02 -0.83662340545E+02  0.88853201840E+02  0.00000000000E+00 0.  1.
</event>
<event>
12    1  0.1594973E-001  0.3351006E+03  0.7818608E-02  0.1069202E+00
         21   -1    0    0  503  502  0.00000000000E+00  0.00000000000E+00  0.73084801956E+03  0.73084801956E+03  0.00000000000E+00 0.  1.
         21   -1    0    0  501  503 -0.00000000000E+00 -0.00000000000E+00 -0.19042532189E+03  0.19042532189E+03  0.00000000000E+00 0. -1.
          6    2    1    2  501    0  0.20642470844E+03  0.19882897275E+03  0.65224848070E+02  0.34138930943E+03  0.17363254053E+03 0.  0.
         24    2    3    3    0    0  0.17677668764E+03  0.17535066478E+03  0.10599567170E+03  0.28558083210E+03  0.91233087814E+02 0.  0.
         -6    2    1    2    0  502 -0.20642470844E+03 -0.19882897275E+03  0.47519784960E+03  0.57988403201E+03  0.16825092470E+03 0.  0.
        -24    2    5    5    0    0 -0.81387750937E+02 -0.26756279131E+02  0.20218865534E+03  0.23376358653E+03  0.80157953845E+02 0.  0.
          5    1    3    3  501    0  0.29648020800E+02  0.23478307968E+02 -0.40770823633E+02  0.55808477332E+02  0.47000000000E+01 0. -1.
        -13    1    4    4    0    0  0.40009774852E+02 -0.31569521188E+01  0.12437869258E+02  0.42017246722E+02  0.00000000000E+00 0.  1.
         14    1    4    4    0    0  0.13676691279E+03  0.17850761690E+03  0.93557802444E+02  0.24356358538E+03  0.00000000000E+00 0. -1.
         -5    1    5    5    0  502 -0.12503695750E+03 -0.17207269362E+03  0.27300919426E+03  0.34612044548E+03  0.47000000000E+01 0.  1.
         13    1    6    6    0    0 -0.85851481373E+02 -0.14880950919E+02  0.20314348859E+03  0.22104116474E+03  0.00000000000E+00 0. -1.
        -14    1    6    6    0    0  0.44637304353E+01 -0.11875328211E+02 -0.95483325559E+00  0.12722421785E+02  0.00000000000E+00 0.  1.
</event>
<event>
12    1  0.1594973E-001  0.2098564E+03  0.7818608E-02  0.1141769E+00
         21   -1    0    0  503  502  0.00000000000E+00  0.00000000000E+00  0.14154749292E+04  0.14154749292E+04  0.00000000000E+00 0. -1.
         21   -1    0    0  501  503 -0.00000000000E+00 -0.00000000000E+00 -0.99965436503E+02  0.99965436503E+02  0.00000000000E+00 0.  1.
          6    2    1    2  501    0 -0.11566382179E+03 -0.24469765718E+02  0.28387748442E+02  0.21132299817E+03  0.17284286560E+03 0.  0.
         24    2    3    3    0    0 -0.56748642671E+01 -0.51913753672E+02  0.36707578310E+02  0.97559854666E+02  0.73778296486E+02 0.  0.
         -6    2    1    2    0  502  0.11566382179E+03  0.24469765718E+02  0.12871217442E+04  0.13041173675E+04  0.17338637394E+03 0.  0.
        -24    2    5    5    0    0 -0.12662168022E+01 -0.24312153602E+02  0.64124712566E+03  0.64591646924E+03  0.73603837837E+02 0.  0.
          5    1    3    3  501    0 -0.10998895752E+03  0.27443987954E+02 -0.83198298678E+01  0.11376314350E+03  0.47000000000E+01 0. -1.
        -11    1    4    4    0    0  0.14135959223E+02 -0.29719157309E+02  0.53934403217E+02  0.63182066322E+02  0.00000000000E+00 0.  1.
         12    1    4    4    0    0 -0.19810823491E+02 -0.22194596362E+02 -0.17226824907E+02  0.34377788344E+02  0.00000000000E+00 0. -1.
         -5    1    5    5    0  502  0.11693003859E+03  0.48781919319E+02  0.64587461858E+03  0.65820089829E+03  0.47000000000E+01 0.  1.
         11    1    6    6    0    0  0.30951869190E+02 -0.10938435305E+02  0.47042020254E+03  0.47156424221E+03  0.00000000000E+00 0. -1.
        -12    1    6    6    0    0 -0.32218085992E+02 -0.13373718297E+02  0.17082692312E+03  0.17435222703E+03  0.00000000000E+00 0.  1.
</event>
<event>
12    1  0.1594973E-001  0.1981193E+03  0.7818608E-02  0.1151543E+00
         21   -1    0    0  501  502  0.00000000000E+00  0.00000000000E+00  0.20427977568E+03  0.20427977568E+03  0.00000000000E+00 0.  1.
         21   -1    0    0  502  503 -0.00000000000E+00 -0.00000000000E+00 -0.21860427437E+03  0.21860427437E+03  0.00000000000E+00 0.  1.
         -6    2    1    2    0  503 -0.53745885208E+02 -0.80884964659E+02 -0.82002364456E+02  0.21352422889E+03  0.17157275676E+03 0.  0.
        -24    2    3    3    0    0 -0.88734998996E+02 -0.86979005164E+02 -0.95818808348E+02  0.17512683920E+03  0.77774792765E+02 0.  0.
          6    2    1    2  501    0  0.53745885208E+02  0.80884964659E+02  0.67677865770E+02  0.20935982116E+03  0.17268538883E+03 0.  0.
         24    2    5    5    0    0  0.40561865159E+02  0.91612728581E+02 -0.11779930151E+02  0.12796857694E+03  0.78733937953E+02 0.  0.
          5    1    5    5  501    0  0.13184020049E+02 -0.10727763923E+02  0.79457795921E+02  0.81391244222E+02  0.47000000000E+01 0. -1.
        -11    1    6    6    0    0  0.53365237934E+02  0.23857077440E+02 -0.44159927100E+01  0.58621751554E+02  0.00000000000E+00 0.  1.
         12    1    6    6    0    0 -0.12803372775E+02  0.67755651141E+02 -0.73639374407E+01  0.69346825382E+02  0.00000000000E+00 0. -1.
         -5    1    3    3    0  503  0.34989113787E+02  0.60940405049E+01  0.13816443891E+02  0.38397389691E+02  0.47000000000E+01 0.  1.
         13    1    4    4    0    0 -0.30400412291E+02  0.87935317522E+01 -0.36345178260E+02  0.48192149266E+02  0.00000000000E+00 0. -1.
        -14    1    4    4    0    0 -0.58334586705E+02 -0.95772536916E+02 -0.59473630087E+02  0.12693468994E+03  0.00000000000E+00 0.  1.
</event>
<event>
12    1  0.1594973E-001  0.1698791E+03  0.7818608E-02  0.1178136E+00
         21   -1    0    0  503  502  0.00000000000E+00  0.00000000000E+00  0.11524739819E+04  0.11524739819E+04  0.00000000000E+00 0. -1.
         21   -1    0    0  501  503 -0.00000000000E+00 -0.00000000000E+00 -0.29974769792E+02  0.29974769792E+02  0.00000000000E+00 0. -1.
          6    2    1    2  501    0 -0.27036966291E+01  0.94915406428E+01  0.32002804130E+03  0.36232150173E+03  0.16959222882E+03 0.  0.
         24    2    3    3    0    0 -0.65293740580E+02  0.11185602495E+02  0.25012644610E+03  0.26836030516E+03  0.71173197830E+02 0.  0.
         -6    2    1    2    0  502  0.27036966291E+01 -0.94915406428E+01  0.80247117077E+03  0.82012724993E+03  0.16897137876E+03 0.  0.
        -24    2    5    5    0    0  0.22426018833E+02 -0.52091809342E+02  0.30545733360E+03  0.32087921816E+03  0.80267098339E+02 0.  0.
          5    1    3    3  501    0  0.62590043951E+02 -0.16940618523E+01  0.69901595206E+02  0.93961196564E+02  0.47000000000E+01 0. -1.
        -13    1    4    4    0    0 -0.16062546059E+02  0.30878983687E+02  0.47355888827E+02  0.58771568177E+02  0.00000000000E+00 0.  1.
         14    1    4    4    0    0 -0.49231194521E+02 -0.19693381192E+02  0.20277055727E+03  0.20958873699E+03  0.00000000000E+00 0. -1.
         -5    1    5    5    0  502 -0.19722322204E+02  0.42600268699E+02  0.49701383717E+03  0.49924803177E+03  0.47000000000E+01 0.  1.
         13    1    6    6    0    0 -0.41583010217E+01  0.19443385192E+02  0.93795768772E+02  0.95880044507E+02  0.00000000000E+00 0. -1.
        -14    1    6    6    0    0  0.26584319854E+02 -0.71535194534E+02  0.21166156483E+03  0.22499917366E+03  0.00000000000E+00 0.  1.
</event>
<event>
12    1  0.1594973E-001  0.1968005E+03  0.7818608E-02  0.1152526E+00
         21   -1    0    0  503  502  0.00000000000E+00  0.00000000000E+00  0.41259964930E+03  0.41259964930E+03  0.00000000000E+00 0.  1.
         21   -1    0    0  501  503 -0.00000000000E+00 -0.00000000000E+00 -0.99730438134E+02  0.99730438134E+02  0.00000000000E+00 0.  1.
          6    2    1    2  501    0  0.88603299575E+02 -0.35582711118E+02  0.93544614766E+02  0.21765445913E+03  0.17177367261E+03 0.  0.
         24    2    3    3    0    0  0.11380762897E+02  0.31669064126E+02  0.94988085201E+01  0.85095381769E+02  0.77579283629E+02 0.  0.
         -6    2    1    2    0  502 -0.88603299575E+02  0.35582711118E+02  0.21932459640E+03  0.29467562830E+03  0.17208652853E+03 0.  0.
        -24    2    5    5    0    0 -0.59813885727E+02 -0.42520785086E+01  0.45765978346E+02  0.11423083144E+03  0.85780982619E+02 0.  0.
          5    1    3    3  501    0  0.77222536678E+02 -0.67251775244E+02  0.84045806245E+02  0.13255907737E+03  0.47000000000E+01 0. -1.
        -13    1    4    4    0    0  0.39073151499E+02  0.33915941308E+01 -0.10709536920E+02  0.40655974467E+02  0.00000000000E+00 0.  1.
         14    1    4    4    0    0 -0.27692388602E+02  0.28277469995E+02  0.20208345440E+02  0.44439407301E+02  0.00000000000E+00 0. -1.
         -5    1    5    5    0  502 -0.28789413849E+02  0.39834789627E+02  0.17355861805E+03  0.18044479686E+03  0.47000000000E+01 0.  1.
         11    1    6    6    0    0 -0.47280327469E+02  0.24735748245E+02 -0.58916019465E+01  0.53684239589E+02  0.00000000000E+00 0. -1.
        -12    1    6    6    0    0 -0.12533558258E+02 -0.28987826753E+02  0.51657580293E+02  0.60546591846E+02  0.00000000000E+00 0.  1.
</event>
<event>
12    1  0.1594973E-001  0.1796357E+03  0.7818608E-02  0.1168492E+00
         21   -1    0    0  503  502  0.00000000000E+00  0.00000000000E+00  0.53097795113E+03  0.53097795113E+03  0.00000000000E+00 0. -1.
         21   -1    0    0  501  503 -0.00000000000E+00 -0.00000000000E+00 -0.86526004109E+02  0.86526004109E+02  0.00000000000E+00 0. -1.
          6    2    1    2  501    0  0.41334109833E+02 -0.18829270919E+02  0.51668767069E+02  0.18559238995E+03  0.17237117984E+03 0.  0.
         24    2    3    3    0    0  0.24389311436E+02  0.29656721400E+02 -0.25185726497E+02  0.93035808203E+02  0.80913417628E+02 0.  0.
         -6    2    1    2    0  502 -0.41334109833E+02  0.18829270919E+02  0.39278317995E+03  0.43191156529E+03  0.17379851466E+03 0.  0.
        -24    2    5    5    0    0 -0.70311507106E+01  0.61028696420E+02  0.34554670553E+03  0.35972528520E+03  0.78903841745E+02 0.  0.
          5    1    3    3  501    0  0.16944798396E+02 -0.48485992319E+02  0.76854493565E+02  0.92556581748E+02  0.47000000000E+01 0. -1.
        -11    1    4    4    0    0 -0.30770084417E+01 -0.20380762441E+02  0.12992283942E+02  0.24364788131E+02  0.00000000000E+00 0.  1.
         12    1    4    4    0    0  0.27466319878E+02  0.50037483841E+02 -0.38178010438E+02  0.68671020072E+02  0.00000000000E+00 0. -1.
         -5    1    5    5    0  502 -0.34302959122E+02 -0.42199425501E+02  0.47236474425E+02  0.72186280090E+02  0.47000000000E+01 0.  1.
         13    1    6    6    0    0 -0.21541742601E+02  0.72616825812E+02  0.21689967078E+03  0.22974489602E+03  0.00000000000E+00 0. -1.
        -14    1    6    6    0    0  0.14510591890E+02 -0.11588129392E+02  0.12864703475E+03  0.12998038917E+03  0.00000000000E+00 0.  1.
</event>
<event>
12    1  0.1594973E-001  0.2027122E+03  0.7818608E-02  0.1147806E+00
         21   -1    0    0  501  502  0.00000000000E+00  0.00000000000E+00  0.89648522011E+02  0.89648522011E+02  0.00000000000E+00 0.  1.
         21   -1    0    0  502  503 -0.00000000000E+00 -0.00000000000E+00 -0.47273488699E+03  0.47273488699E+03  0.00000000000E+00 0. -1.
         -6    2    1    2    0  503  0.91174136721E+02 -0.52651278811E+02 -0.13741031931E+03  0.24489559134E+03  0.17322636761E+03 0.  0.
        -24    2    3    3    0    0  0.10189040116E+03 -0.59355035904E+02 -0.16303570652E+03  0.21593822350E+03  0.78383675807E+02 0.  0.
          6    2    1    2  501    0 -0.91174136721E+02  0.52651278811E+02 -0.24567604566E+03  0.31748781766E+03  0.17133859630E+03 0.  0.
         24    2    5    5    0    0 -0.37100122817E+02  0.72101957596E+02 -0.70548440698E+02  0.13311293893E+03  0.78529361545E+02 0.  0.
          5    1    5    5  501    0 -0.54074013904E+02 -0.19450678785E+02 -0.17512760496E+03  0.18437487873E+03  0.47000000000E+01 0. -1.
        -13    1    6    6    0    0  0.55837311310E+01 -0.70782576517E+01  0.92135551398E+01  0.12890670388E+02  0.00000000000E+00 0.  1.
         14    1    6    6    0    0 -0.42683853948E+02  0.79180215248E+02 -0.79761995837E+02  0.12022226855E+03  0.00000000000E+00 0. -1.
         -5    1    3    3    0  503 -0.10716264442E+02  0.67037570931E+01  0.25625387202E+02  0.28957367836E+02  0.47000000000E+01 0.  1.
         11    1    4    4    0    0  0.50485259983E+02  0.89394113019E+01 -0.35327438653E+02  0.62263171071E+02  0.00000000000E+00 0. -1.
        -12    1    4    4    0    0  0.51405141180E+02 -0.68294447206E+02 -0.12770826786E+03  0.15367505243E+03  0.00000000000E+00 0.  1.
</event>
<event>
12    1  0.1594973E-001  0.2030792E+03  0.7818608E-02  0.1147371E+00
         21   -1    0    0  501  502  0.00000000000E+00  0.00000000000E+00  0.40519271969E+02  0.40519271969E+02  0.00000000000E+00 0.  1.
         21   -1    0    0  502  503 -0.00000000000E+00 -0.00000000000E+00 -0.10801812521E+04  0.10801812521E+04  0.00000000000E+00 0.  1.
         -6    2    1    2    0  503  0.10636170710E+03  0.14924144667E+02 -0.65851006584E+03  0.68882330436E+03  0.17119139869E+03 0.  0.
        -24    2    3    3    0    0 -0.84969285204E+01  0.13609142777E+02 -0.18944459685E+03  0.20587533656E+03  0.78980962043E+02 0.  0.
          6    2    1    2  501    0 -0.10636170710E+03 -0.14924144667E+02 -0.38115191428E+03  0.43187721970E+03  0.17235314997E+03 0.  0.
         24    2    5    5    0    0 -0.88946123401E+02 -0.68303216295E+02 -0.20752081228E+03  0.24933276641E+03  0.80778701734E+02 0.  0.
          5    1    5    5  501    0 -0.17415583697E+02  0.53379071627E+02 -0.17363110201E+03  0.18254445329E+03  0.47000000000E+01 0. -1.
        -11    1    6    6    0    0 -0.94320060923E+01 -0.34060953492E+02 -0.15293644920E+02  0.38509828182E+02  0.00000000000E+00 0.  1.
         12    1    6    6    0    0 -0.79514117309E+02 -0.34242262803E+02 -0.19222716736E+03  0.21082293823E+03  0.00000000000E+00 0. -1.
         -5    1    3    3    0  503  0.11485863562E+03  0.13150018907E+01 -0.46906546899E+03  0.48294796780E+03  0.47000000000E+01 0.  1.
         11    1    4    4    0    0 -0.33664241934E+02  0.25118868730E+02 -0.16018931995E+03  0.16560451980E+03  0.00000000000E+00 0. -1.
        -12    1    4    4    0    0  0.25167313414E+02 -0.11509725954E+02 -0.29255276902E+02  0.40270816761E+02  0.00000000000E+00 0.  1.
</event>
<event>
12    1  0.1594973E-001  0.2071285E+03  0.7818608E-02  0.1144362E+00
         21   -1    0    0  503  502  0.00000000000E+00  0.00000000000E+00  0.19278113374E+03  0.19278113374E+03  0.00000000000E+00 0.  1.
         21   -1    0    0  501  503 -0.00000000000E+00 -0.00000000000E+00 -0.29283419230E+03  0.29283419230E+03  0.00000000000E+00 0. -1.
          6    2    1    2  501    0  0.11209989616E+03  0.26607005441E+02 -0.17143184323E+03  0.26887002578E+03  0.17212755280E+03 0.  0.
         24    2    3    3    0    0  0.10079354993E+03 -0.97204957913E+00 -0.19291878649E+03  0.23182658545E+03  0.79784854160E+02 0.  0.
         -6    2    1    2    0  502 -0.11209989616E+03 -0.26607005441E+02  0.71378784669E+02  0.21674530026E+03  0.16914276463E+03 0.  0.
        -24    2    5    5    0    0  0.10240508903E+02 -0.15566851635E+02  0.28316409108E+02  0.86493552115E+02  0.79574623092E+02 0.  0.
          5    1    3    3  501    0  0.11306346233E+02  0.27579055020E+02  0.21486943261E+02  0.37043440333E+02  0.47000000000E+01 0. -1.
        -11    1    4    4    0    0  0.95701762372E+02  0.22770374173E+02 -0.12114118078E+03  0.15605288508E+03  0.00000000000E+00 0.  1.
         12    1    4    4    0    0  0.50917875548E+01 -0.23742423752E+02 -0.71777605715E+02  0.75773700374E+02  0.00000000000E+00 0. -1.
         -5    1    5    5    0  502 -0.12234040506E+03 -0.11040153806E+02  0.43062375561E+02  0.13025174815E+03  0.47000000000E+01 0.  1.
         11    1    6    6    0    0 -0.66724571637E+00 -0.45244119311E+02  0.30863881579E+02  0.54772755411E+02  0.00000000000E+00 0. -1.
        -12    1    6    6    0    0  0.10907754619E+02  0.29677267676E+02 -0.25474724712E+01  0.31720796704E+02  0.00000000000E+00 0.  1.
</event>
<event>
12    1  0.1594973E-001  0.1995765E+03  0.7818608E-02  0.1150167E+00
         21   -1    0    0  503  502  0.00000000000E+00  0.00000000000E+00  0.15438503689E+03  0.15438503689E+03  0.00000000000E+00 0.  1.
         21   -1    0    0  501  503 -0.00000000000E+00 -0.00000000000E+00 -0.36735254122E+03  0.36735254122E+03  0.00000000000E+00 0.  1.
          6    2    1    2  501    0 -0.77274701011E+02  0.64928731025E+02  0.36064918260E+02  0.20280887068E+03  0.17217328529E+03 0.  0.
         24    2    3    3    0    0 -0.54572594739E+01 -0.18062514410E+02 -0.21675989166E+02  0.78706517284E+02  0.73272308882E+02 0.  0.
         -6    2    1    2    0  502  0.77274701011E+02 -0.64928731025E+02 -0.24903242260E+03  0.31892870743E+03  0.17178839713E+03 0.  0.
        -24    2    5    5    0    0  0.89426873196E+01  0.18100722049E+00 -0.19217403091E+03  0.20864040880E+03  0.80746254456E+02 0.  0.
          5    1    3    3  501    0 -0.71817441537E+02  0.82991245434E+02  0.57740907426E+02  0.12410235339E+03  0.47000000000E+01 0. -1.
        -11    1    4    4    0    0  0.17632164253E+02 -0.13994770048E+02  0.20503584838E+02  0.30449036047E+02  0.00000000000E+00 0.  1.
         12    1    4    4    0    0 -0.23089423727E+02 -0.40677443616E+01 -0.42179574004E+02  0.48257481237E+02  0.00000000000E+00 0. -1.
         -5    1    5    5    0  502  0.68332013691E+02 -0.65109738245E+02 -0.56858391690E+02  0.11028829863E+03  0.47000000000E+01 0.  1.
         13    1    6    6    0    0  0.26723859716E+02 -0.36729942876E+01 -0.15660034343E+02  0.31191220572E+02  0.00000000000E+00 0. -1.
        -14    1    6    6    0    0 -0.17781172396E+02  0.38540015081E+01 -0.17651399657E+03  0.17744918823E+03  0.00000000000E+00 0.  1.
</event>
<event>
12    1  0.1594973E-001  0.2557814E+03  0.7818608E-02  0.1109794E+00
         21   -1    0    0  501  502  0.00000000000E+00  0.00000000000E+00  0.29700446549E+03  0.29700446549E+03  0.00000000000E+00 0.  1.
         21   -1    0    0  502  503 -0.00000000000E+00 -0.00000000000E+00 -0.22086257078E+03  0.22086257078E+03  0.00000000000E+00 0.  1.
         -6    2    1    2    0  503  0.17286631135E+03 -0.77006765092E+02  0.56252611167E+02  0.26189401275E+03  0.17207938338E+03 0.  0.
        -24    2    3    3    0    0  0.27775181720E+02  0.31414142463E+01  0.46006815950E+02  0.95754815489E+02  0.79189824929E+02 0.  0.
          6    2    1    2  501    0 -0.17286631135E+03  0.77006765092E+02  0.19889283542E+02  0.25597302351E+03  0.17121273813E+03 0.  0.
         24    2    5    5    0    0 -0.12072519177E+03  0.11708988514E+03 -0.25187234262E+01  0.18633422944E+03  0.80184087974E+02 0.  0.
          5    1    5    5  501    0 -0.52141119574E+02 -0.40083120047E+02  0.22408006969E+02  0.69638794070E+02  0.47000000000E+01 0. -1.
        -13    1    6    6    0    0 -0.11831401267E+03  0.66922594389E+02  0.16157803230E+01  0.13593914072E+03  0.00000000000E+00 0.  1.
         14    1    6    6    0    0 -0.24111790999E+01  0.50167290751E+02 -0.41345037492E+01  0.50395088721E+02  0.00000000000E+00 0. -1.
         -5    1    3    3    0  503  0.14509112963E+03 -0.80148179339E+02  0.10245795217E+02  0.16613919726E+03  0.47000000000E+01 0.  1.
         13    1    4    4    0    0 -0.24743902894E+02  0.35505064071E+01 -0.13536885316E+01  0.25033962907E+02  0.00000000000E+00 0. -1.
        -14    1    4    4    0    0  0.52519084614E+02 -0.40909216076E+00  0.47360504482E+02  0.70720852582E+02  0.00000000000E+00 0.  1.
</event>
<event>
12    1  0.1594973E-001  0.1823851E+03  0.7818608E-02  0.1165703E+00
         21   -1    0    0  501  502  0.00000000000E+00  0.00000000000E+00  0.77006144403E+02  0.77006144403E+02  0.00000000000E+00 0.  1.
         21   -1    0    0  502  503 -0.00000000000E+00 -0.00000000000E+00 -0.99460895480E+03  0.99460895480E+03  0.00000000000E+00 0.  1.
         -6    2    1    2    0  503 -0.46591392223E+02  0.35409255748E+02 -0.86203255176E+03  0.88095205791E+03  0.17190647113E+03 0.  0.
        -24    2    3    3    0    0 -0.73330281367E+02  0.65305857507E+02 -0.45055101599E+03  0.46749357236E+03  0.76888471182E+02 0.  0.
          6    2    1    2  501    0  0.46591392223E+02 -0.35409255748E+02 -0.55570258636E+02  0.19066304130E+03  0.17274191283E+03 0.  0.
         24    2    5    5    0    0  0.83736314036E+02 -0.60718653000E+02 -0.16455900850E+02  0.13089403770E+03  0.78510682855E+02 0.  0.
          5    1    5    5  501    0 -0.37144921812E+02  0.25309397253E+02 -0.39114357786E+02  0.59769003595E+02  0.47000000000E+01 0. -1.
        -11    1    6    6    0    0  0.74426352381E+02 -0.79461746349E+02 -0.12409490690E+02  0.10957849479E+03  0.00000000000E+00 0.  1.
         12    1    6    6    0    0  0.93099616544E+01  0.18743093349E+02 -0.40464101608E+01  0.21315542909E+02  0.00000000000E+00 0. -1.
         -5    1    3    3    0  503  0.26738889144E+02 -0.29896601759E+02 -0.41148153577E+03  0.41345848555E+03  0.47000000000E+01 0.  1.
         13    1    4    4    0    0 -0.47480951018E+02  0.14193526843E+02 -0.92960323123E+02  0.10534476062E+03  0.00000000000E+00 0. -1.
        -14    1    4    4    0    0 -0.25849330349E+02  0.51112330664E+02 -0.35759069286E+03  0.36214881175E+03  0.00000000000E+00 0.  1.
</event>
<event>
12    1  0.1594973E-001  0.1895460E+03  0.7818608E-02  0.1159047E+00
         21   -1    0    0  503  502  0.00000000000E+00  0.00000000000E+00  0.47914935676E+02  0.47914935676E+02  0.00000000000E+00 0. -1.
         21   -1    0    0  501  503 -0.00000000000E+00 -0.00000000000E+00 -0.77135667743E+03  0.77135667743E+03  0.00000000000E+00 0.  1.
          6    2    1    2  501    0 -0.76990205522E+02  0.21080912926E+01 -0.43414505926E+03  0.47341001262E+03  0.17234608141E+03 0.  0.
         24    2    3    3    0    0 -0.17077521434E+02 -0.31591913653E+02 -0.36680597023E+03  0.37706758708E+03  0.79647063239E+02 0.  0.
         -6    2    1    2    0  502  0.76990205522E+02 -0.21080912926E+01 -0.28929668249E+03  0.34586160048E+03  0.17319278389E+03 0.  0.
        -24    2    5    5    0    0  0.25905787095E+02 -0.10030834262E+02 -0.44787255751E+02  0.95902929044E+02  0.80123317957E+02 0.  0.
          5    1    3    3  501    0 -0.59912684089E+02  0.33700004945E+02 -0.67339089027E+02  0.96342425540E+02  0.47000000000E+01 0. -1.
        -11    1    4    4    0    0  0.30933431617E+02 -0.21818466605E+02 -0.18051376528E+03  0.18444007735E+03  0.00000000000E+00 0.  1.
         12    1    4    4    0    0 -0.48010953051E+02 -0.97734470479E+01 -0.18629220496E+03  0.19262750974E+03  0.00000000000E+00 0. -1.
         -5    1    5    5    0  502  0.51084418427E+02  0.79227429689E+01 -0.24450942674E+03  0.24995867144E+03  0.47000000000E+01 0.  1.
         11    1    6    6    0    0  0.54305662501E+01  0.34933943887E+02 -0.17198188333E+02  0.39314744909E+02  0.00000000000E+00 0. -1.
        -12    1    6    6    0    0  0.20475220845E+02 -0.44964778149E+02 -0.27589067418E+02  0.56588184134E+02  0.00000000000E+00 0.  1.
</event>
<event>
12    1  0.1594973E-001  0.2175820E+03  0.7818608E-02  0.1135724E+00
         21   -1    0    0  503  502  0.00000000000E+00  0.00000000000E+00  0.16377478174E+04  0.16377478174E+04  0.00000000000E+00 0.  1.
         21   -1    0    0  501  503 -0.00000000000E+00 -0.00000000000E+00 -0.47870753537E+02  0.47870753537E+02  0.00000000000E+00 0. -1.
          6    2    1    2  501    0 -0.81811191393E+01  0.13325367816E+03  0.26408080224E+03  0.34208678058E+03  0.17164271579E+03 0.  0.
         24    2    3    3    0    0 -0.57237141849E+02  0.10254942447E+03  0.11141734179E+03  0.17875439948E+03  0.75807891522E+02 0.  0.
         -6    2    1    2    0  502  0.81811191393E+01 -0.13325367816E+03  0.13257962617E+04  0.13435317904E+04  0.17180940284E+03 0.  0.
        -24    2    5    5    0    0  0.32487137468E+02 -0.13491736336E+03  0.73208986290E+03  0.74930714574E+03  0.79041269398E+02 0.  0.
          5    1    3    3  501    0  0.49056022710E+02  0.30704253694E+02  0.15266346045E+03  0.16333238110E+03  0.47000000000E+01 0. -1.
        -11    1    4    4    0    0 -0.61013830382E+02  0.31899692975E+02  0.50382999108E+02  0.85315441210E+02  0.00000000000E+00 0.  1.
         12    1    4    4    0    0  0.37766885328E+01  0.70649731494E+02  0.61034342678E+02  0.93438958270E+02  0.00000000000E+00 0. -1.
         -5    1    5    5    0  502 -0.24306018329E+02  0.16636851965E+01  0.59370639876E+03  0.59422464464E+03  0.47000000000E+01 0.  1.
         13    1    6    6    0    0 -0.17573611899E+02 -0.33735677005E+01  0.11391070972E+03  0.11530768657E+03  0.00000000000E+00 0. -1.
        -14    1    6    6    0    0  0.50060749367E+02 -0.13154379566E+03  0.61817915318E+03  0.63399945917E+03  0.00000000000E+00 0.  1.
</event>
<event>
12    1  0.1594973E-001  0.1869839E+03  0.7818608E-02  0.1161374E+00
         21   -1    0    0  501  502  0.00000000000E+00  0.00000000000E+00  0.27994277628E+03  0.27994277628E+03  0.00000000000E+00 0.  1.
         21   -1    0    0  502  503 -0.00000000000E+00 -0.00000000000E+00 -0.28892746180E+03  0.28892746180E+03  0.00000000000E+00 0.  1.
         -6    2    1    2    0  503 -0.55234097045E+02  0.46370265453E+02 -0.21911375002E+03  0.28759244683E+03  0.17174857505E+03 0.  0.
        -24    2    3    3    0    0 -0.10221989692E+03  0.23936925313E+02 -0.17591564827E+03  0.21977588444E+03  0.79581658409E+02 0.  0.
          6    2    1    2  501    0  0.55234097045E+02 -0.46370265453E+02  0.21012906450E+03  0.28127779125E+03  0.17251656473E+03 0.  0.
         24    2    5    5    0    0  0.78286676791E+02  0.92845502246E+01  0.77540959676E+02  0.13557063466E+03  0.78433346974E+02 0.  0.
          5    1    5    5  501    0 -0.23052579746E+02 -0.55654815678E+02  0.13258810483E+03  0.14570715659E+03  0.47000000000E+01 0. -1.
        -13    1    6    6    0    0  0.22308763712E+02  0.19321582081E+02  0.72738332494E+02  0.78497576309E+02  0.00000000000E+00 0.  1.
         14    1    6    6    0    0  0.55977913079E+02 -0.10037031856E+02  0.48026271827E+01  0.57073058346E+02  0.00000000000E+00 0. -1.
         -5    1    3    3    0  503  0.46985799877E+02  0.22433340140E+02 -0.43198101749E+02  0.67816562392E+02  0.47000000000E+01 0.  1.
         13    1    4    4    0    0 -0.37454939387E+02 -0.29549474062E+02 -0.61296098112E+02  0.77674033921E+02  0.00000000000E+00 0. -1.
        -14    1    4    4    0    0 -0.64764957534E+02  0.53486399375E+02 -0.11461955016E+03  0.14210185052E+03  0.00000000000E+00 0.  1.
</event>
<event>
12    1  0.1594973E-001  0.2109649E+03  0.7818608E-02  0.1140843E+00
         21   -1    0    0  501  502  0.00000000000E+00  0.00000000000E+00  0.28818738165E+02  0.28818738165E+02  0.00000000000E+00 0. -1.
         21   -1    0    0  502  503 -0.00000000000E+00 -0.00000000000E+00 -0.15717706368E+04  0.15717706368E+04  0.00000000000E+00 0. -1.
         -6    2    1    2    0  503 -0.10572017552E+03 -0.61011250340E+02 -0.66266826822E+03  0.69537920720E+03  0.17182514345E+03 0.  0.
        -24    2    3    3    0    0 -0.67733322931E+02 -0.92512298213E+02 -0.31354759797E+03  0.34275667619E+03  0.77612592523E+02 0.  0.
          6    2    1    2  501    0  0.10572017552E+03  0.61011250340E+02 -0.88028363043E+03  0.90521016777E+03  0.17206699180E+03 0.  0.
         24    2    5    5    0    0  0.23782393308E+02 -0.13219236152E+02 -0.56639802638E+03  0.57238855233E+03  0.77984486389E+02 0.  0.
          5    1    5    5  501    0  0.81937782212E+02  0.74230486492E+02 -0.31388560405E+03  0.33282161544E+03  0.47000000000E+01 0. -1.
        -11    1    6    6    0    0  0.38952232282E+02 -0.35830947912E+02 -0.43433164444E+03  0.43754440985E+03  0.00000000000E+00 0.  1.
         12    1    6    6    0    0 -0.15169838974E+02  0.22611711760E+02 -0.13206638194E+03  0.13484414249E+03  0.00000000000E+00 0. -1.
         -5    1    3    3    0  503 -0.37986852589E+02  0.31501047874E+02 -0.34912067025E+03  0.35262253102E+03  0.47000000000E+01 0.  1.
         11    1    4    4    0    0 -0.73121874128E+02 -0.35728077761E+02 -0.18801106792E+03  0.20486938688E+03  0.00000000000E+00 0. -1.
        -12    1    4    4    0    0  0.53885511968E+01 -0.56784220452E+02 -0.12553653005E+03  0.13788728931E+03  0.00000000000E+00 0.  1.
</event>
<event>
12    1  0.1594973E-001  0.2990259E+03  0.7818608E-02  0.1085764E+00
         21   -1    0    0  501  502  0.00000000000E+00  0.00000000000E+00  0.98864790791E+03  0.98864790791E+03  0.00000000000E+00 0. -1.
         21   -1    0    0  502  503 -0.00000000000E+00 -0.00000000000E+00 -0.10208706322E+03  0.10208706322E+03  0.00000000000E+00 0. -1.
         -6    2    1    2    0  503 -0.15952981434E+03  0.18462504054E+03  0.62833295035E+03  0.69585831619E+03  0.17285928514E+03 0.  0.
        -24    2    3    3    0    0 -0.69807466581E+02  0.14789890119E+02  0.24391411302E+03  0.26609790562E+03  0.78880780942E+02 0.  0.
          6    2    1    2  501    0  0.15952981434E+03 -0.18462504054E+03  0.25822789433E+03  0.39487665494E+03  0.17236519355E+03 0.  0.
         24    2    5    5    0    0  0.12405140701E+03 -0.52704539608E+02  0.91607117162E+02  0.17936259661E+03  0.74917001220E+02 0.  0.
          5    1    5    5  501    0  0.35478407330E+02 -0.13192050093E+03  0.16662077717E+03  0.21551405833E+03  0.47000000000E+01 0. -1.
        -11    1    6    6    0    0  0.83109274091E+02 -0.53202416503E+02  0.96627817057E+02  0.13811076566E+03  0.00000000000E+00 0.  1.
         12    1    6    6    0    0  0.40942132921E+02  0.49787689483E+00 -0.50206998957E+01  0.41251830953E+02  0.00000000000E+00 0. -1.
         -5    1    3    3    0  503 -0.89722347762E+02  0.16983515042E+03  0.38441883733E+03  0.42976041057E+03  0.47000000000E+01 0.  1.
         11    1    4    4    0    0 -0.12704028231E+02  0.20407552268E+02  0.17399991422E+03  0.17565258516E+03  0.00000000000E+00 0. -1.
        -12    1    4    4    0    0 -0.57103438350E+02 -0.56176621482E+01  0.69914198803E+02  0.90445320463E+02  0.00000000000E+00 0.  1.
</event>
<event>
12    1  0.1594973E-001  0.4633549E+03  0.7818608E-02  0.1024373E+00
         21   -1    0    0  503  502  0.00000000000E+00  0.00000000000E+00  0.35020010918E+03  0.35020010918E+03  0.00000000000E+00 0. -1.
         21   -1    0    0  501  503 -0.00000000000E+00 -0.00000000000E+00 -0.20170266234E+04  0.20170266234E+04  0.00000000000E+00 0.  1.
          6    2    1    2  501    0 -0.39883240445E+03 -0.16184909621E+03 -0.18223680787E+04  0.18784620449E+04  0.14943835863E+03 0.  0.
         24    2    3    3    0    0 -0.17474504789E+03 -0.61572377471E+02 -0.10107944020E+04  0.10305561029E+04  0.77547203335E+02 0.  0.
         -6    2    1    2    0  502  0.39883240445E+03  0.16184909621E+03  0.15554156449E+03  0.48876468768E+03  0.17156726046E+03 0.  0.
        -24    2    5    5    0    0  0.18399821811E+03  0.14265089077E+03  0.63534787202E+02  0.25422335704E+03  0.79926373474E+02 0.  0.
          5    1    3    3  501    0 -0.22408735656E+03 -0.10027671873E+03 -0.81157367674E+03  0.84790594199E+03  0.47000000000E+01 0. -1.
        -11    1    4    4    0    0 -0.12120630524E+03 -0.29574683890E+02 -0.47378089134E+03  0.48993261103E+03  0.00000000000E+00 0.  1.
         12    1    4    4    0    0 -0.53538742651E+02 -0.31997693581E+02 -0.53701351063E+03  0.54062349187E+03  0.00000000000E+00 0. -1.
         -5    1    5    5    0  502  0.21483418634E+03  0.19198205433E+02  0.92006777288E+02  0.23454133064E+03  0.47000000000E+01 0.  1.
         11    1    6    6    0    0  0.77599840408E+02  0.80799453001E+02  0.68039100662E+02  0.13107099624E+03  0.00000000000E+00 0. -1.
        -12    1    6    6    0    0  0.10639837770E+03  0.61851437771E+02 -0.45043134595E+01  0.12315236080E+03  0.00000000000E+00 0.  1.
</event>
<event>
12    1  0.1594973E-001  0.2090676E+03  0.7818608E-02  0.1142337E+00
         21   -1    0    0  501  502  0.00000000000E+00  0.00000000000E+00  0.32532476932E+03  0.32532476932E+03  0.00000000000E+00 0.  1.
         21   -1    0    0  502  503 -0.00000000000E+00 -0.00000000000E+00 -0.14861075507E+03  0.14861075507E+03  0.00000000000E+00 0.  1.
         -6    2    1    2    0  503 -0.11183566530E+03 -0.38463116438E+02  0.16196990439E+03  0.26434871334E+03  0.17221894483E+03 0.  0.
        -24    2    3    3    0    0 -0.13759627394E+02  0.25786304581E+02  0.35346712591E+02  0.91714939083E+02  0.79422787096E+02 0.  0.
          6    2    1    2  501    0  0.11183566530E+03  0.38463116438E+02  0.14744109860E+02  0.20958681105E+03  0.17240248035E+03 0.  0.
         24    2    5    5    0    0  0.10231383960E+03  0.36055396655E+02 -0.50594593584E+02  0.14334710659E+03  0.78869935123E+02 0.  0.
          5    1    5    5  501    0  0.95218257006E+01  0.24077197824E+01  0.65338703445E+02  0.66239704461E+02  0.47000000000E+01 0. -1.
        -11    1    6    6    0    0  0.27744602026E+02 -0.15857755627E+01  0.19789811944E+02  0.34116187983E+02  0.00000000000E+00 0.  1.
         12    1    6    6    0    0  0.74569237574E+02  0.37641172218E+02 -0.70384405529E+02  0.10923091861E+03  0.00000000000E+00 0. -1.
         -5    1    3    3    0  503 -0.98076037907E+02 -0.64249421018E+02  0.12662319180E+03  0.17263377426E+03  0.47000000000E+01 0.  1.
         11    1    4    4    0    0  0.21335568933E+02  0.42604350087E+01  0.44504474597E+02  0.49537925545E+02  0.00000000000E+00 0. -1.
        -12    1    4    4    0    0 -0.35095196327E+02  0.21525869572E+02 -0.91577620059E+01  0.42177013539E+02  0.00000000000E+00 0.  1.
</event>
<event>
12    1  0.1594973E-001  0.2031463E+03  0.7818608E-02  0.1147482E+00
         21   -1    0    0  503  502  0.00000000000E+00  0.00000000000E+00  0.59403509619E+03  0.59403509619E+03  0.00000000000E+00 0. -1.
         21   -1    0    0  501  503 -0.00000000000E+00 -0.00000000000E+00 -0.68872693967E+02  0.68872693967E+02  0.00000000000E+00 0. -1.
          6    2    1    2  501    0  0.17021704628E+02 -0.10563209621E+03  0.26784911586E+03  0.33617190889E+03  0.17268620466E+03 0.  0.
         24    2    3    3    0    0 -0.24105480990E+02 -0.14980724142E+02  0.53743560933E+02  0.10001010989E+03  0.79423897089E+02 0.  0.
         -6    2    1    2    0  502 -0.17021704628E+02  0.10563209621E+03  0.25731328636E+03  0.32673588127E+03  0.17058232791E+03 0.  0.
        -24    2    5    5    0    0  0.22002378115E+01  0.10566032145E+03  0.92337524599E+02  0.16057759578E+03  0.78038460017E+02 0.  0.
          5    1    3    3  501    0  0.41127185618E+02 -0.90651372067E+02  0.21410555493E+03  0.23616179900E+03  0.47000000000E+01 0. -1.
        -13    1    4    4    0    0  0.28482264223E+02 -0.33027792066E+01  0.92076904833E+01  0.30115266723E+02  0.00000000000E+00 0.  1.
         14    1    4    4    0    0 -0.52587745213E+02 -0.11677944936E+02  0.44535870449E+02  0.69894843166E+02  0.00000000000E+00 0. -1.
         -5    1    5    5    0  502 -0.19221942440E+02 -0.28225243406E-01  0.16497576176E+03  0.16615828549E+03  0.47000000000E+01 0.  1.
         11    1    6    6    0    0  0.52181474736E+01  0.11756017649E+03  0.89838501064E+02  0.14804925003E+03  0.00000000000E+00 0. -1.
        -12    1    6    6    0    0 -0.30179096621E+01 -0.11899855040E+02  0.24990235350E+01  0.12528345754E+02  0.00000000000E+00 0.  1.
</event>
<event>
12    1  0.1594973E-001  0.2029615E+03  0.7818608E-02  0.1148657E+00
         21   -1    0    0  503  502  0.00000000000E+00  0.00000000000E+00  0.11448372310E+03  0.11448372310E+03  0.00000000000E+00 0. -1.
         21   -1    0    0  501  503 -0.00000000000E+00 -0.00000000000E+00 -0.43917773485E+03  0.43917773485E+03  0.00000000000E+00 0. -1.
          6    2    1    2  501    0 -0.47850866267E+02  0.82383190398E+02 -0.29047054271E+03  0.35435366816E+03  0.17921130124E+03 0.  0.
         24    2    3    3    0    0 -0.17516239418E+02 -0.26284657156E+02 -0.97973896904E+02  0.13118122513E+03  0.81313759646E+02 0.  0.
         -6    2    1    2    0  502  0.47850866267E+02 -0.82383190398E+02 -0.34223469038E+02  0.19930778980E+03  0.17168475116E+03 0.  0.
        -24    2    5    5    0    0 -0.54804328255E+01 -0.99270459554E+02 -0.53554117494E+02  0.13993463684E+03  0.82637762575E+02 0.  0.
          5    1    3    3  501    0 -0.30334626849E+02  0.10866784755E+03 -0.19249664581E+03  0.22317244302E+03  0.47000000000E+01 0. -1.
        -11    1    4    4    0    0 -0.37579553055E+02 -0.41135228688E+02 -0.41616284680E+02  0.69543116105E+02  0.00000000000E+00 0.  1.
         12    1    4    4    0    0  0.20063313637E+02  0.14850571532E+02 -0.56357612225E+02  0.61638109028E+02  0.00000000000E+00 0. -1.
         -5    1    5    5    0  502  0.53331299093E+02  0.16887269156E+02  0.19330648456E+02  0.59373152958E+02  0.47000000000E+01 0.  1.
         13    1    6    6    0    0 -0.32070817717E+02 -0.41874902746E+02 -0.55610027904E+02  0.76645417557E+02  0.00000000000E+00 0. -1.
        -14    1    6    6    0    0  0.26590384892E+02 -0.57395556808E+02  0.20559104100E+01  0.63289219284E+02  0.00000000000E+00 0.  1.
</event>
<event>
12    1  0.1594973E-001  0.1884732E+03  0.7818608E-02  0.1160537E+00
         21   -1    0    0  503  502  0.00000000000E+00  0.00000000000E+00  0.18288377020E+03  0.18288377020E+03  0.00000000000E+00 0.  1.
         21   -1    0    0  501  503 -0.00000000000E+00 -0.00000000000E+00 -0.56322558690E+03  0.56322558690E+03  0.00000000000E+00 0.  1.
          6    2    1    2  501    0 -0.31298863421E+02  0.62433949545E+02 -0.49286226131E+03  0.52660305650E+03  0.17181371768E+03 0.  0.
         24    2    3    3    0    0 -0.30783061627E+02  0.80446607911E+02 -0.49412725290E+03  0.50793725578E+03  0.80120285446E+02 0.  0.
         -6    2    1    2    0  502  0.31298863421E+02 -0.62433949545E+02  0.11252044461E+03  0.21950630060E+03  0.17505584435E+03 0.  0.
        -24    2    5    5    0    0  0.81632550082E+02 -0.55497000725E+02  0.10990156939E+03  0.16841276110E+03  0.80874673559E+02 0.  0.
          5    1    3    3  501    0 -0.51580179394E+00 -0.18012658366E+02  0.12649915883E+01  0.18665800723E+02  0.47000000000E+01 0. -1.
        -13    1    4    4    0    0 -0.18222034518E+02  0.37406060010E+02 -0.41426964239E+03  0.41635392693E+03  0.00000000000E+00 0.  1.
         14    1    4    4    0    0 -0.12561027109E+02  0.43040547901E+02 -0.79857610514E+02  0.91583328846E+02  0.00000000000E+00 0. -1.
         -5    1    5    5    0  502 -0.50333686661E+02 -0.69369488201E+01  0.26188752193E+01  0.51093539506E+02  0.47000000000E+01 0.  1.
         11    1    6    6    0    0  0.22369457466E+01  0.19316849460E+01 -0.11800965488E+02  0.12165447770E+02  0.00000000000E+00 0. -1.
        -12    1    6    6    0    0  0.79395604335E+02 -0.57428685671E+02  0.12170253488E+03  0.15624731333E+03  0.00000000000E+00 0.  1.
</event>
<event>
12    1  0.1594973E-001  0.4746663E+03  0.7818608E-02  0.1020627E+00
         21   -1    0    0  503  502  0.00000000000E+00  0.00000000000E+00  0.90723974860E+03  0.90723974860E+03  0.00000000000E+00 0.  1.
         21   -1    0    0  501  503 -0.00000000000E+00 -0.00000000000E+00 -0.42819462116E+03  0.42819462116E+03  0.00000000000E+00 0.  1.
          6    2    1    2  501    0 -0.40665234826E+03 -0.17348936270E+03 -0.19339383794E+03  0.51234126202E+03  0.17212699063E+03 0.  0.
         24    2    3    3    0    0 -0.19919312882E+03 -0.81351896716E+02 -0.17122704290E+03  0.28421389153E+03  0.71852642593E+02 0.  0.
         -6    2    1    2    0  502  0.40665234826E+03  0.17348936270E+03  0.67243896539E+03  0.82309310774E+03  0.17275245446E+03 0.  0.
        -24    2    5    5    0    0  0.13080698932E+03  0.36226178201E+02  0.30773551507E+03  0.34563887900E+03  0.79638451762E+02 0.  0.
          5    1    3    3  501    0 -0.20745921944E+03 -0.92137465981E+02 -0.22166795044E+02  0.22812737050E+03  0.47000000000E+01 0. -1.
        -11    1    4    4    0    0 -0.97849588842E+02 -0.69519278111E+02 -0.12119752933E+03  0.17057641449E+03  0.00000000000E+00 0.  1.
         12    1    4    4    0    0 -0.10134353998E+03 -0.11832618605E+02 -0.50029513571E+02  0.11363747704E+03  0.00000000000E+00 0. -1.
         -5    1    5    5    0  502  0.27584535894E+03  0.13726318450E+03  0.36470345032E+03  0.47745422874E+03  0.47000000000E+01 0.  1.
         13    1    6    6    0    0  0.35978043032E+02 -0.24994952895E+02  0.72140409055E+02  0.84400271736E+02  0.00000000000E+00 0. -1.
        -14    1    6    6    0    0  0.94828946291E+02  0.61221131096E+02  0.23559510602E+03  0.26123860726E+03  0.00000000000E+00 0.  1.
</event>
<event>
12    1  0.1594973E-001  0.1832424E+03  0.7818608E-02  0.1165206E+00
         21   -1    0    0  503  502  0.00000000000E+00  0.00000000000E+00  0.11028310199E+04  0.11028310199E+04  0.00000000000E+00 0.  1.
         21   -1    0    0  501  503 -0.00000000000E+00 -0.00000000000E+00 -0.33238640049E+02  0.33238640049E+02  0.00000000000E+00 0.  1.
          6    2    1    2  501    0  0.56945258936E+02 -0.46010178778E+01  0.35730507247E+03  0.40058955996E+03  0.17187538758E+03 0.  0.
         24    2    3    3    0    0  0.36136691938E+02  0.29879016031E+02  0.34733860516E+03  0.35883683945E+03  0.76949039035E+02 0.  0.
         -6    2    1    2    0  502 -0.56945258936E+02  0.46010178778E+01  0.71228730738E+03  0.73548009999E+03  0.17410869405E+03 0.  0.
        -24    2    5    5    0    0 -0.41591267684E+02 -0.63112713689E+02  0.50692025098E+03  0.51864234418E+03  0.79427275818E+02 0.  0.
          5    1    3    3  501    0  0.20808566998E+02 -0.34480033909E+02  0.99664673008E+01  0.41752720502E+02  0.47000000000E+01 0. -1.
        -11    1    4    4    0    0 -0.21416820697E+02 -0.39682573717E+01  0.11726603744E+03  0.11927175195E+03  0.00000000000E+00 0.  1.
         12    1    4    4    0    0  0.57553512634E+02  0.33847273403E+02  0.23007256772E+03  0.23956508750E+03  0.00000000000E+00 0. -1.
         -5    1    5    5    0  502 -0.15353991251E+02  0.67713731567E+02  0.20536705640E+03  0.21683775581E+03  0.47000000000E+01 0.  1.
         11    1    6    6    0    0 -0.88604029400E+01  0.18315714774E+02  0.13392795382E+03  0.13546464100E+03  0.00000000000E+00 0. -1.
        -12    1    6    6    0    0 -0.32730864744E+02 -0.81428428463E+02  0.37299229717E+03  0.38317770318E+03  0.00000000000E+00 0.  1.
</event>
<event>
12    1  0.1594973E-001  0.2217238E+03  0.7818608E-02  0.1132954E+00
         21   -1    0    0  503  502  0.00000000000E+00  0.00000000000E+00  0.36404123314E+03  0.36404123314E+03  0.00000000000E+00 0. -1.
         21   -1    0    0  501  503 -0.00000000000E+00 -0.00000000000E+00 -0.18783821983E+03  0.18783821983E+03  0.00000000000E+00 0. -1.
          6    2    1    2  501    0 -0.11220736109E+03  0.80224005217E+02 -0.60035450061E+02  0.22788859856E+03  0.17117994975E+03 0.  0.
         24    2    3    3    0    0 -0.12130975979E+03  0.90893379930E+02 -0.64762722441E+01  0.17232453871E+03  0.81707650826E+02 0.  0.
         -6    2    1    2    0  502  0.11220736109E+03 -0.80224005217E+02  0.23623846337E+03  0.32399085440E+03  0.17359458306E+03 0.  0.
        -24    2    5    5    0    0  0.11238084957E+03 -0.56994342685E+02  0.25361875775E+03  0.29460017642E+03  0.81172527438E+02 0.  0.
          5    1    3    3  501    0  0.91023987070E+01 -0.10669374713E+02 -0.53559177817E+02  0.55564059853E+02  0.47000000000E+01 0. -1.
        -13    1    4    4    0    0 -0.49248163011E+02  0.41607838648E+02  0.37485335909E+02  0.74577102418E+02  0.00000000000E+00 0.  1.
         14    1    4    4    0    0 -0.72061596783E+02  0.49285541282E+02 -0.43961608153E+02  0.97747436293E+02  0.00000000000E+00 0. -1.
         -5    1    5    5    0  502 -0.17348848235E+00 -0.23229662532E+02 -0.17380294387E+02  0.29390677988E+02  0.47000000000E+01 0.  1.
         11    1    6    6    0    0  0.68796668735E+02  0.92537189286E+01  0.13687087410E+03  0.15346742038E+03  0.00000000000E+00 0. -1.
        -12    1    6    6    0    0  0.43584180834E+02 -0.66248061614E+02  0.11674788366E+03  0.14113275603E+03  0.00000000000E+00 0.  1.
</event>
<event>
12    1  0.1594973E-001  0.2023205E+03  0.7818608E-02  0.1147803E+00
         21   -1    0    0  501  502  0.00000000000E+00  0.00000000000E+00  0.17790084379E+03  0.17790084379E+03  0.00000000000E+00 0. -1.
         21   -1    0    0  502  503 -0.00000000000E+00 -0.00000000000E+00 -0.23005496368E+03  0.23005496368E+03  0.00000000000E+00 0. -1.
         -6    2    1    2    0  503  0.10480358144E+03  0.19909651767E+02 -0.25725800888E+02  0.20391650302E+03  0.17187186639E+03 0.  0.
        -24    2    3    3    0    0  0.17947386595E+02  0.21900097173E+02 -0.20144949680E+01  0.11373736750E+03  0.11013812979E+03 0.  0.
          6    2    1    2  501    0 -0.10480358144E+03 -0.19909651767E+02 -0.26428319000E+02  0.20403930445E+03  0.17191101420E+03 0.  0.
         24    2    5    5    0    0 -0.12442911165E+03 -0.33131421103E+02 -0.59947119387E+02  0.16274067736E+03  0.79439134286E+02 0.  0.
          5    1    5    5  501    0  0.19625530210E+02  0.13221769336E+02  0.33518800386E+02  0.41298627093E+02  0.47000000000E+01 0. -1.
        -13    1    6    6    0    0  0.75475637047E+01 -0.11778301674E+02 -0.17639502996E+02  0.22513244416E+02  0.00000000000E+00 0.  1.
         14    1    6    6    0    0 -0.13197667535E+03 -0.21353119429E+02 -0.42307616391E+02  0.14022743295E+03  0.00000000000E+00 0. -1.
         -5    1    3    3    0  503  0.86856194841E+02 -0.19904454062E+01 -0.23711305920E+02  0.90179135523E+02  0.47000000000E+01 0.  1.
         13    1    4    4    0    0  0.48223581190E+02  0.15977326797E+02 -0.40102763078E+02  0.64722641795E+02  0.00000000000E+00 0. -1.
        -14    1    4    4    0    0 -0.30276194595E+02  0.59227703769E+01  0.38088268110E+02  0.49014725703E+02  0.00000000000E+00 0.  1.
</event>
<event>
12    1  0.1594973E-001  0.2037641E+03  0.7818608E-02  0.1146716E+00
         21   -1    0    0  503  502  0.00000000000E+00  0.00000000000E+00  0.71914823591E+02  0.71914823591E+02  0.00000000000E+00 0. -1.
         21   -1    0    0  501  503 -0.00000000000E+00 -0.00000000000E+00 -0.85989022997E+03  0.85989022997E+03  0.00000000000E+00 0.  1.
          6    2    1    2  501    0 -0.16441813090E+02 -0.10717678753E+03 -0.66214917146E+03  0.69279241350E+03  0.17251842205E+03 0.  0.
         24    2    3    3    0    0  0.53142190612E+02 -0.85115987664E+02 -0.47231012599E+03  0.48934815665E+03  0.79472885493E+02 0.  0.
         -6    2    1    2    0  502  0.16441813090E+02  0.10717678753E+03 -0.12582623493E+03  0.23901264006E+03  0.17186507414E+03 0.  0.
        -24    2    5    5    0    0  0.36998867205E+02 -0.55165490856E+01 -0.59532690485E+02  0.10657660030E+03  0.80094207077E+02 0.  0.
          5    1    3    3  501    0 -0.69584003702E+02 -0.22060799869E+02 -0.18983904547E+03  0.20344425685E+03  0.47000000000E+01 0. -1.
        -13    1    4    4    0    0  0.49530720291E+02 -0.29479767596E+02 -0.35274163036E+03  0.35741993053E+03  0.00000000000E+00 0.  1.
         14    1    4    4    0    0  0.36114703218E+01 -0.55636220067E+02 -0.11956849563E+03  0.13192822613E+03  0.00000000000E+00 0. -1.
         -5    1    5    5    0  502 -0.20557054115E+02  0.11269333662E+03 -0.66293544442E+02  0.13243603976E+03  0.47000000000E+01 0.  1.
         13    1    6    6    0    0  0.35554756487E+02 -0.83418261117E+01  0.92880005064E+01  0.37682804104E+02  0.00000000000E+00 0. -1.
        -14    1    6    6    0    0  0.14441107178E+01  0.28252770261E+01 -0.68820690991E+02  0.68893796198E+02  0.00000000000E+00 0.  1.
</event>
<event>
12    1  0.1594973E-001  0.1945439E+03  0.7818608E-02  0.1154488E+00
         21   -1    0    0  503  502  0.00000000000E+00  0.00000000000E+00  0.32284825045E+03  0.32284825045E+03  0.00000000000E+00 0.  1.
         21   -1    0    0  501  503 -0.00000000000E+00 -0.00000000000E+00 -0.13537791114E+03  0.13537791114E+03  0.00000000000E+00 0. -1.
          6    2    1    2  501    0 -0.19013612159E+01  0.89266154589E+02  0.93970031338E+01  0.19448873511E+03  0.17252681787E+03 0.  0.
         24    2    3    3    0    0 -0.55667113291E+02  0.50606368799E+02  0.45961631113E+02  0.11869693375E+03  0.79477408625E+02 0.  0.
         -6    2    1    2    0  502  0.19013612159E+01 -0.89266154589E+02  0.17807333618E+03  0.26373742648E+03  0.17284459939E+03 0.  0.
        -24    2    5    5    0    0 -0.57132714297E+02 -0.24291793486E+02  0.12921118327E+03  0.16315765883E+03  0.77914398420E+02 0.  0.
          5    1    3    3  501    0  0.53765752075E+02  0.38659785790E+02 -0.36564627979E+02  0.75791801356E+02  0.47000000000E+01 0. -1.
        -11    1    4    4    0    0 -0.10193426038E+01  0.53177148055E+02  0.32592708981E+02  0.62378945273E+02  0.00000000000E+00 0.  1.
         12    1    4    4    0    0 -0.54647770687E+02 -0.25707792559E+01  0.13368922132E+02  0.56317988477E+02  0.00000000000E+00 0. -1.
         -5    1    5    5    0  502  0.59034075512E+02 -0.64974361103E+02  0.48862152915E+02  0.10057976765E+03  0.47000000000E+01 0.  1.
         11    1    6    6    0    0 -0.32395769058E+02 -0.26365862144E+02  0.12159748536E+02  0.43502919717E+02  0.00000000000E+00 0. -1.
        -12    1    6    6    0    0 -0.24736945239E+02  0.20740686577E+01  0.11705143473E+03  0.11965473912E+03  0.00000000000E+00 0.  1.
</event>
<event>
12    1  0.1594973E-001  0.2332496E+03  0.7818608E-02  0.1124479E+00
         21   -1    0    0  501  502  0.00000000000E+00  0.00000000000E+00  0.30442689954E+03  0.30442689954E+03  0.00000000000E+00 0.  1.
         21   -1    0    0  502  503 -0.00000000000E+00 -0.00000000000E+00 -0.34098072648E+03  0.34098072648E+03  0.00000000000E+00 0. -1.
         -6    2    1    2    0  503 -0.87305791789E+02 -0.13110202545E+03 -0.24120089505E+03  0.33510808438E+03  0.17120021638E+03 0.  0.
        -24    2    3    3    0    0 -0.67426233265E+02 -0.47831224260E+02 -0.20382491102E+03  0.24157585806E+03  0.99900840339E+02 0.  0.
          6    2    1    2  501    0  0.87305791789E+02  0.13110202545E+03  0.20464706812E+03  0.31029954163E+03  0.17203296396E+03 0.  0.
         24    2    5    5    0    0  0.45834004711E+02  0.13986249298E+03  0.93546282011E+02  0.19129479556E+03  0.78616276935E+02 0.  0.
          5    1    5    5  501    0  0.41471787078E+02 -0.87604675266E+01  0.11110078611E+03  0.11900474608E+03  0.47000000000E+01 0. -1.
        -13    1    6    6    0    0  0.39604529855E+02  0.10088229058E+03  0.10426634376E+03  0.15039024496E+03  0.00000000000E+00 0.  1.
         14    1    6    6    0    0  0.62294748555E+01  0.38980202397E+02 -0.10720061746E+02  0.40904550599E+02  0.00000000000E+00 0. -1.
         -5    1    3    3    0  503 -0.19879558524E+02 -0.83270801193E+02 -0.37375984037E+02  0.93532226324E+02  0.47000000000E+01 0.  1.
         11    1    4    4    0    0 -0.81975863731E+02 -0.48491740037E+02 -0.20590219948E+03  0.22686385088E+03  0.00000000000E+00 0. -1.
        -12    1    4    4    0    0  0.14549630466E+02  0.66051577635E+00  0.20772884665E+01  0.14712007177E+02  0.00000000000E+00 0.  1.
</event>
<event>
12    1  0.1594973E-001  0.2473690E+03  0.7818608E-02  0.1116389E+00
         21   -1    0    0  503  502  0.00000000000E+00  0.00000000000E+00  0.33483422767E+03  0.33483422767E+03  0.00000000000E+00 0.  1.
         21   -1    0    0  501  503 -0.00000000000E+00 -0.00000000000E+00 -0.26262882359E+03  0.26262882359E+03  0.00000000000E+00 0.  1.
          6    2    1    2  501    0  0.16038481687E+03 -0.41924530729E+02 -0.13545955915E+03  0.27448289755E+03  0.17178653358E+03 0.  0.
         24    2    3    3    0    0  0.16036419670E+03 -0.13987837257E+02 -0.15573636710E+03  0.23964472583E+03  0.85225837673E+02 0.  0.
         -6    2    1    2    0  502 -0.16038481687E+03  0.41924530729E+02  0.20766496323E+03  0.32298015372E+03  0.18360415841E+03 0.  0.
        -24    2    5    5    0    0 -0.38672962137E+02 -0.42800874570E+02  0.79225026253E+02  0.12673775948E+03  0.80363810447E+02 0.  0.
          5    1    3    3  501    0  0.20620175185E-01 -0.27936693472E+02  0.20276807957E+02  0.34838171713E+02  0.47000000000E+01 0. -1.
        -11    1    4    4    0    0  0.16204084818E+03 -0.79071945528E+01 -0.11606838725E+03  0.19947839663E+03  0.00000000000E+00 0.  1.
         12    1    4    4    0    0 -0.16766514792E+01 -0.60806427043E+01 -0.39667979853E+02  0.40166329201E+02  0.00000000000E+00 0. -1.
         -5    1    5    5    0  502 -0.12171185474E+03  0.84725405299E+02  0.12843993697E+03  0.19624239424E+03  0.47000000000E+01 0.  1.
         13    1    6    6    0    0 -0.60256744622E+02 -0.15821334660E+02  0.38102759169E+02  0.73027461678E+02  0.00000000000E+00 0. -1.
        -14    1    6    6    0    0  0.21583782485E+02 -0.26979539911E+02  0.41122267085E+02  0.53710297805E+02  0.00000000000E+00 0.  1.
</event>
<event>
12    1  0.1594973E-001  0.2177036E+03  0.7818608E-02  0.1137028E+00
         21   -1    0    0  503  502  0.00000000000E+00  0.00000000000E+00  0.22934266839E+02  0.22934266839E+02  0.00000000000E+00 0.  1.
         21   -1    0    0  501  503 -0.00000000000E+00 -0.00000000000E+00 -0.26134349107E+04  0.26134349107E+04  0.00000000000E+00 0. -1.
          6    2    1    2  501    0  0.11534637153E+03 -0.39086856546E+02 -0.19524291431E+04  0.19645290564E+04  0.18045023445E+03 0.  0.
         24    2    3    3    0    0  0.12738766661E+03 -0.69574401721E+02 -0.12027407469E+04  0.12141096640E+04  0.80054712471E+02 0.  0.
         -6    2    1    2    0  502 -0.11534637153E+03  0.39086856546E+02 -0.63807150075E+03  0.67184012106E+03  0.17146819067E+03 0.  0.
        -24    2    5    5    0    0 -0.29129340615E+02  0.75316632041E+02 -0.29196761618E+03  0.31329310606E+03  0.79914753691E+02 0.  0.
          5    1    3    3  501    0 -0.12041295084E+02  0.30487545175E+02 -0.74968839613E+03  0.75041939240E+03  0.47000000000E+01 0. -1.
        -11    1    4    4    0    0  0.57032237087E+02 -0.75514872287E+02 -0.64052658117E+03  0.64747932259E+03  0.00000000000E+00 0.  1.
         12    1    4    4    0    0  0.70355429526E+02  0.59404705659E+01 -0.56221416577E+03  0.56663034144E+03  0.00000000000E+00 0. -1.
         -5    1    5    5    0  502 -0.86217030914E+02 -0.36229775495E+02 -0.34610388457E+03  0.35854701500E+03  0.47000000000E+01 0.  1.
         11    1    6    6    0    0 -0.28472837191E+02  0.25697264021E+02 -0.23339536158E+03  0.23652578430E+03  0.00000000000E+00 0. -1.
        -12    1    6    6    0    0 -0.65650342377E+00  0.49619368020E+02 -0.58572254607E+02  0.76767321754E+02  0.00000000000E+00 0.  1.
</event>
<event>
12    1  0.1594973E-001  0.1873247E+03  0.7818608E-02  0.1161099E+00
         21   -1    0    0  501  502  0.00000000000E+00  0.00000000000E+00  0.31991140929E+03  0.31991140929E+03  0.00000000000E+00 0.  1.
         21   -1    0    0  502  503 -0.00000000000E+00 -0.00000000000E+00 -0.14149015255E+03  0.14149015255E+03  0.00000000000E+00 0.  1.
         -6    2    1    2    0  503 -0.23943633774E+02 -0.68397477205E+02 -0.21202544938E+02  0.18764946578E+03  0.17178842105E+03 0.  0.
        -24    2    3    3    0    0 -0.55891942125E+01  0.15116154199E+02  0.31698217402E+02  0.86991665592E+02  0.79391660056E+02 0.  0.
          6    2    1    2  501    0  0.23943633774E+02  0.68397477205E+02  0.19962380167E+03  0.27375209606E+03  0.17273979106E+03 0.  0.
         24    2    5    5    0    0 -0.56533710448E+00  0.46493008358E+01  0.18835587645E+03  0.20437215816E+03  0.79171378874E+02 0.  0.
          5    1    5    5  501    0  0.24508970879E+02  0.63748176370E+02  0.11267925224E+02  0.69379937899E+02  0.47000000000E+01 0. -1.
        -11    1    6    6    0    0 -0.16255940191E+02  0.38539623515E+02  0.93524053546E+02  0.10245148493E+03  0.00000000000E+00 0.  1.
         12    1    6    6    0    0  0.15690603087E+02 -0.33890322680E+02  0.94831822904E+02  0.10192067323E+03  0.00000000000E+00 0. -1.
         -5    1    3    3    0  503 -0.18354439562E+02 -0.83513631404E+02 -0.52900762340E+02  0.10065780018E+03  0.47000000000E+01 0.  1.
         11    1    4    4    0    0 -0.23979862213E+02  0.23885505845E+02 -0.14254079066E+02  0.36725058900E+02  0.00000000000E+00 0. -1.
        -12    1    4    4    0    0  0.18390668000E+02 -0.87693516456E+01  0.45952296467E+02  0.50266606693E+02  0.00000000000E+00 0.  1.
</event>
<event>
12    1  0.1594973E-001  0.1865210E+03  0.7818608E-02  0.1162707E+00
         21   -1    0    0  503  502  0.00000000000E+00  0.00000000000E+00  0.17378710013E+04  0.17378710013E+04  0.00000000000E+00 0. -1.
         21   -1    0    0  501  503 -0.00000000000E+00 -0.00000000000E+00 -0.24181791845E+03  0.24181791845E+03  0.00000000000E+00 0. -1.
          6    2    1    2  501    0 -0.12789435237E+02 -0.69849220872E+02 -0.20174588849E+03  0.27167503788E+03  0.16752145944E+03 0.  0.
         24    2    3    3    0    0 -0.65697733062E+02 -0.72446976503E+02 -0.11873098572E+03  0.17308700415E+03  0.79355576361E+02 0.  0.
         -6    2    1    2    0  502  0.12789435237E+02  0.69849220872E+02  0.16977989714E+04  0.17080138819E+04  0.17247489753E+03 0.  0.
        -24    2    5    5    0    0  0.60602557359E+02  0.88239078287E+02  0.10997019394E+04  0.11077086002E+04  0.78836430039E+02 0.  0.
          5    1    3    3  501    0  0.52908297825E+02  0.25977556315E+01 -0.83014902771E+02  0.98588033732E+02  0.47000000000E+01 0. -1.
        -13    1    4    4    0    0 -0.48879738553E+02 -0.19524005686E+02 -0.13872632726E+02  0.54432210848E+02  0.00000000000E+00 0.  1.
         14    1    4    4    0    0 -0.16817994509E+02 -0.52922970817E+02 -0.10485835300E+03  0.11865479330E+03  0.00000000000E+00 0. -1.
         -5    1    5    5    0  502 -0.47813122122E+02 -0.18389857416E+02  0.59809703201E+03  0.60030528168E+03  0.47000000000E+01 0.  1.
         11    1    6    6    0    0  0.18404483299E+02  0.97270257174E+01  0.49076414257E+02  0.53308859218E+02  0.00000000000E+00 0. -1.
        -12    1    6    6    0    0  0.42198074060E+02  0.78512052570E+02  0.10506255251E+04  0.10543997410E+04  0.00000000000E+00 0.  1.
</event>
<event>
12    1  0.1594973E-001  0.1874143E+03  0.7818608E-02  0.1161841E+00
         21   -1    0    0  503  502  0.00000000000E+00  0.00000000000E+00  0.78516420493E+02  0.78516420493E+02  0.00000000000E+00 0.  1.
         21   -1    0    0  501  503 -0.00000000000E+00 -0.00000000000E+00 -0.73814453611E+03  0.73814453611E+03  0.00000000000E+00 0.  1.
          6    2    1    2  501    0  0.61339775287E+02 -0.13594968403E+02 -0.58834522366E+03  0.61614820162E+03  0.17187528317E+03 0.  0.
         24    2    3    3    0    0  0.99006622732E+02  0.22366638348E+02 -0.44988605236E+03  0.46814461832E+03  0.80370054692E+02 0.  0.
         -6    2    1    2    0  502 -0.61339775287E+02  0.13594968403E+02 -0.71282891957E+02  0.20051275498E+03  0.17656931507E+03 0.  0.
        -24    2    5    5    0    0 -0.94681026851E+01  0.23804085670E+01  0.29498046422E+02  0.86515718563E+02  0.80743566321E+02 0.  0.
          5    1    3    3  501    0 -0.37666847445E+02 -0.35961606751E+02 -0.13845917129E+03  0.14800358331E+03  0.47000000000E+01 0. -1.
        -13    1    4    4    0    0  0.57533438947E+02 -0.12665344745E+02 -0.11844141022E+03  0.13228331418E+03  0.00000000000E+00 0.  1.
         14    1    4    4    0    0  0.41473183785E+02  0.35031983093E+02 -0.33144464214E+03  0.33586130414E+03  0.00000000000E+00 0. -1.
         -5    1    5    5    0  502 -0.51871672602E+02  0.11214559836E+02 -0.10078093838E+03  0.11399703641E+03  0.47000000000E+01 0.  1.
         13    1    6    6    0    0  0.88102950298E+01 -0.16931277898E+02 -0.21654203974E+02  0.28865100372E+02  0.00000000000E+00 0. -1.
        -14    1    6    6    0    0 -0.18278397715E+02  0.19311686465E+02  0.51152250396E+02  0.57650618190E+02  0.00000000000E+00 0.  1.
</event>
<event>
12    1  0.1594973E-001  0.2018262E+03  0.7818608E-02  0.1149322E+00
         21   -1    0    0  501  502  0.00000000000E+00  0.00000000000E+00  0.93303912011E+02  0.93303912011E+02  0.00000000000E+00 0.  1.
         21   -1    0    0  502  503 -0.00000000000E+00 -0.00000000000E+00 -0.47883314071E+03  0.47883314071E+03  0.00000000000E+00 0.  1.
         -6    2    1    2    0  503  0.93241771133E+02  0.18551123591E+02 -0.28619611318E+03  0.34719066303E+03  0.17203188433E+03 0.  0.
        -24    2    3    3    0    0  0.11581195739E+03  0.74258115621E+01 -0.14058852757E+03  0.19935005676E+03  0.80670681756E+02 0.  0.
          6    2    1    2  501    0 -0.93241771133E+02 -0.18551123591E+02 -0.99333115523E+02  0.22494638969E+03  0.17803268893E+03 0.  0.
         24    2    5    5    0    0 -0.69870991134E+02  0.52315014750E+02 -0.26321464362E+02  0.12044282934E+03  0.78707302603E+02 0.  0.
          5    1    5    5  501    0 -0.23370779999E+02 -0.70866138341E+02 -0.73011651162E+02  0.10450356035E+03  0.47000000000E+01 0. -1.
        -13    1    6    6    0    0 -0.40115721226E+01 -0.18588777426E+02  0.31650109488E+01  0.19278294826E+02  0.00000000000E+00 0.  1.
         14    1    6    6    0    0 -0.65859419011E+02  0.70903792176E+02 -0.29486475310E+02  0.10116453451E+03  0.00000000000E+00 0. -1.
         -5    1    3    3    0  503 -0.22570186254E+02  0.11125312029E+02 -0.14560758561E+03  0.14784060627E+03  0.47000000000E+01 0.  1.
         13    1    4    4    0    0  0.85992915719E+02  0.11475569120E+02 -0.14496392749E+03  0.16894084916E+03  0.00000000000E+00 0. -1.
        -14    1    4    4    0    0  0.29819041668E+02 -0.40497575576E+01  0.43753999263E+01  0.30409207599E+02  0.00000000000E+00 0.  1.
</event>
<event>
12    1  0.1594973E-001  0.1798144E+03  0.7818608E-02  0.1169316E+00
         21   -1    0    0  501  502  0.00000000000E+00  0.00000000000E+00  0.98336881873E+03  0.98336881873E+03  0.00000000000E+00 0. -1.
         21   -1    0    0  502  503 -0.00000000000E+00 -0.00000000000E+00 -0.32052953553E+02  0.32052953553E+02  0.00000000000E+00 0. -1.
         -6    2    1    2    0  503  0.36087181363E+01  0.26007807483E+02  0.51823749294E+03  0.54854655474E+03  0.17788702801E+03 0.  0.
        -24    2    3    3    0    0  0.48717001383E+02  0.61479238090E+02  0.37120639607E+03  0.39064401184E+03  0.93035007211E+02 0.  0.
          6    2    1    2  501    0 -0.36087181363E+01 -0.26007807483E+02  0.43307837224E+03  0.46687521755E+03  0.17241277029E+03 0.  0.
         24    2    5    5    0    0  0.47822214574E+02  0.27704428235E+02  0.28091232660E+03  0.29744458114E+03  0.80666251093E+02 0.  0.
          5    1    5    5  501    0 -0.51430932710E+02 -0.53712235719E+02  0.15216604564E+03  0.16943063640E+03  0.47000000000E+01 0. -1.
        -11    1    6    6    0    0  0.55177774185E+02 -0.11304113732E+02  0.19161693346E+03  0.19972335602E+03  0.00000000000E+00 0.  1.
         12    1    6    6    0    0 -0.73555596118E+01  0.39008541968E+02  0.89295393139E+02  0.97721225123E+02  0.00000000000E+00 0. -1.
         -5    1    3    3    0  503 -0.45108283246E+02 -0.35471430606E+02  0.14703109687E+03  0.15790254290E+03  0.47000000000E+01 0.  1.
         13    1    4    4    0    0 -0.51080957638E+01  0.33253777021E+02  0.27360959673E+03  0.27567030625E+03  0.00000000000E+00 0. -1.
        -14    1    4    4    0    0  0.53825097146E+02  0.28225461069E+02  0.97596799341E+02  0.11497370559E+03  0.00000000000E+00 0.  1.
</event>
<event>
12    1  0.1594973E-001  0.2092603E+03  0.7818608E-02  0.1142437E+00
         21   -1    0    0  501  502  0.00000000000E+00  0.00000000000E+00  0.90027444818E+02  0.90027444818E+02  0.00000000000E+00 0.  1.
         21   -1    0    0  502  503 -0.00000000000E+00 -0.00000000000E+00 -0.71677314798E+03  0.71677314798E+03  0.00000000000E+00 0.  1.
         -6    2    1    2    0  503  0.11501011007E+03 -0.11220242330E+02 -0.54441799084E+03  0.58325021115E+03  0.17446100082E+03 0.  0.
        -24    2    3    3    0    0 -0.11849002319E+02  0.19576578382E+01 -0.17999654916E+03  0.19712591950E+03  0.79470995650E+02 0.  0.
          6    2    1    2  501    0 -0.11501011007E+03  0.11220242330E+02 -0.82327712323E+02  0.22355038164E+03  0.17275329711E+03 0.  0.
         24    2    5    5    0    0 -0.12792992953E+03 -0.35494526497E+02 -0.52301321216E+02  0.16634141797E+03  0.85487489437E+02 0.  0.
          5    1    5    5  501    0  0.12919819466E+02  0.46714768827E+02 -0.30026391106E+02  0.57208963672E+02  0.47000000000E+01 0. -1.
        -11    1    6    6    0    0 -0.97839464584E+02 -0.28778647910E+02 -0.76220701500E+02  0.12731993851E+03  0.00000000000E+00 0.  1.
         12    1    6    6    0    0 -0.30090464949E+02 -0.67158785872E+01  0.23919380284E+02  0.39021479460E+02  0.00000000000E+00 0. -1.
         -5    1    3    3    0  503  0.12685911239E+03 -0.13177900168E+02 -0.36442144167E+03  0.38612429165E+03  0.47000000000E+01 0.  1.
         11    1    4    4    0    0 -0.32311332827E+02 -0.22969740755E+02 -0.53526685095E+02  0.66608837527E+02  0.00000000000E+00 0. -1.
        -12    1    4    4    0    0  0.20462330509E+02  0.24927398593E+02 -0.12646986407E+03  0.13051708198E+03  0.00000000000E+00 0.  1.
</event>
<event>
12    1  0.1594973E-001  0.2256684E+03  0.7818608E-02  0.1129823E+00
         21   -1    0    0  501  502  0.00000000000E+00  0.00000000000E+00  0.96593530686E+02  0.96593530686E+02  0.00000000000E+00 0.  1.
         21   -1    0    0  502  503 -0.00000000000E+00 -0.00000000000E+00 -0.52954239728E+03  0.52954239728E+03  0.00000000000E+00 0.  1.
         -6    2    1    2    0  503  0.11682960782E+03  0.85428737034E+02 -0.19102605224E+03  0.29566394868E+03  0.17314442393E+03 0.  0.
        -24    2    3    3    0    0  0.51232048555E+02 -0.10877199098E+01 -0.15419486401E+03  0.18091743008E+03  0.79555983342E+02 0.  0.
          6    2    1    2  501    0 -0.11682960782E+03 -0.85428737034E+02 -0.24192281435E+03  0.33047197929E+03  0.17244667181E+03 0.  0.
         24    2    5    5    0    0 -0.10297547479E+03 -0.40771310606E+02 -0.24793771993E+03  0.28309591121E+03  0.80024582491E+02 0.  0.
          5    1    5    5  501    0 -0.13854133025E+02 -0.44657426428E+02  0.60149055832E+01  0.47376068074E+02  0.47000000000E+01 0. -1.
        -13    1    6    6    0    0 -0.34495529269E+02 -0.49971547094E+02 -0.72666322028E+02  0.94696839523E+02  0.00000000000E+00 0.  1.
         14    1    6    6    0    0 -0.68479945526E+02  0.92002364881E+01 -0.17527139790E+03  0.18839907169E+03  0.00000000000E+00 0. -1.
         -5    1    3    3    0  503  0.65597559266E+02  0.86516456944E+02 -0.36831188235E+02  0.11474651860E+03  0.47000000000E+01 0.  1.
         11    1    4    4    0    0  0.67496360767E+02 -0.99183348749E+01 -0.83424591406E+02  0.10776731664E+03  0.00000000000E+00 0. -1.
        -12    1    4    4    0    0 -0.16264312212E+02  0.88306149651E+01 -0.70770272603E+02  0.73150113443E+02  0.00000000000E+00 0.  1.
</event>
<event>
12    1  0.1594973E-001  0.1858487E+03  0.7818608E-02  0.1162289E+00
         21   -1    0    0  501  502  0.00000000000E+00  0.00000000000E+00  0.16011330792E+03  0.16011330792E+03  0.00000000000E+00 0.  1.
         21   -1    0    0  502  503 -0.00000000000E+00 -0.00000000000E+00 -0.25020908856E+03  0.25020908856E+03  0.00000000000E+00 0.  1.
         -6    2    1    2    0  503 -0.67908757049E+02  0.15248629687E+02 -0.12136532484E+03  0.22186150648E+03  0.17218846068E+03 0.  0.
        -24    2    3    3    0    0  0.40618432782E+01 -0.17496537688E+02 -0.50373378559E+02  0.11549440755E+03  0.10236627133E+03 0.  0.
          6    2    1    2  501    0  0.67908757049E+02 -0.15248629687E+02  0.31269544203E+02  0.18846089000E+03  0.17232412099E+03 0.  0.
         24    2    5    5    0    0  0.84641797382E+02 -0.39459175755E+02 -0.24330571034E+02  0.12537675575E+03  0.80038077071E+02 0.  0.
          5    1    5    5  501    0 -0.16733040332E+02  0.24210546068E+02  0.55600115238E+02  0.63084134250E+02  0.47000000000E+01 0. -1.
        -13    1    6    6    0    0  0.33688016896E+01 -0.38551227188E+02 -0.21003569043E+02  0.44030624059E+02  0.00000000000E+00 0.  1.
         14    1    6    6    0    0  0.81272995692E+02 -0.90794856746E+00 -0.33270019911E+01  0.81346131694E+02  0.00000000000E+00 0. -1.
         -5    1    3    3    0  503 -0.71970600328E+02  0.32745167376E+02 -0.70991946286E+02  0.10636709893E+03  0.47000000000E+01 0.  1.
         11    1    4    4    0    0  0.31921682822E+02 -0.48740733070E+02 -0.44304980584E+02  0.73195520347E+02  0.00000000000E+00 0. -1.
        -12    1    4    4    0    0 -0.27859839544E+02  0.31244195382E+02 -0.60683979750E+01  0.42298887201E+02  0.00000000000E+00 0.  1.
</event>
<event>
12    1  0.1594973E-001  0.2732739E+03  0.7818608E-02  0.1100154E+00
         21   -1    0    0  503  502  0.00000000000E+00  0.00000000000E+00  0.10137393215E+03  0.10137393215E+03  0.00000000000E+00 0. -1.
         21   -1    0    0  501  503 -0.00000000000E+00 -0.00000000000E+00 -0.90644572106E+03  0.90644572106E+03  0.00000000000E+00 0.  1.
          6    2    1    2  501    0 -0.47910850626E+02 -0.19993525806E+03 -0.63237159019E+03  0.68889217279E+03  0.18002511111E+03 0.  0.
         24    2    3    3    0    0 -0.61971939214E+02 -0.20814534095E+03 -0.63082595299E+03  0.67187457403E+03  0.79429566591E+02 0.  0.
         -6    2    1    2    0  502  0.47910850626E+02  0.19993525806E+03 -0.17270019872E+03  0.31892748042E+03  0.17210410253E+03 0.  0.
        -24    2    5    5    0    0 -0.66577780205E+01  0.22745738660E+02 -0.57510366913E+02  0.10060513074E+03  0.79071204583E+02 0.  0.
          5    1    3    3  501    0  0.14061088588E+02  0.82100828899E+01 -0.15456372014E+01  0.17017598764E+02  0.47000000000E+01 0. -1.
        -13    1    4    4    0    0 -0.36702357583E+02 -0.18395788833E+03 -0.44723809425E+03  0.48498400043E+03  0.00000000000E+00 0.  1.
         14    1    4    4    0    0 -0.25269581631E+02 -0.24187452619E+02 -0.18358785874E+03  0.18689057359E+03  0.00000000000E+00 0. -1.
         -5    1    5    5    0  502  0.54568628646E+02  0.17718951940E+03 -0.11518983180E+03  0.21832234968E+03  0.47000000000E+01 0.  1.
         11    1    6    6    0    0 -0.25913786978E+02  0.45272460821E+02 -0.30036279630E+02  0.60193838209E+02  0.00000000000E+00 0. -1.
        -12    1    6    6    0    0  0.19256008957E+02 -0.22526722161E+02 -0.27474087283E+02  0.40411292535E+02  0.00000000000E+00 0.  1.
</event>
<event>
12    1  0.1594973E-001  0.2204223E+03  0.7818608E-02  0.1133921E+00
         21   -1    0    0  501  502  0.00000000000E+00  0.00000000000E+00  0.15438971462E+03  0.15438971462E+03  0.00000000000E+00 0.  1.
         21   -1    0    0  502  503 -0.00000000000E+00 -0.00000000000E+00 -0.31418410978E+03  0.31418410978E+03  0.00000000000E+00 0. -1.
         -6    2    1    2    0  503  0.13664497723E+03 -0.15278460853E+02 -0.60075610320E+02  0.22664442229E+03  0.16986269170E+03 0.  0.
        -24    2    3    3    0    0  0.14050619787E+03  0.35636478969E+02 -0.45620100726E+02  0.17336880048E+03  0.83448170238E+02 0.  0.
          6    2    1    2  501    0 -0.13664497723E+03  0.15278460853E+02 -0.99718784834E+02  0.24192940211E+03  0.17228092868E+03 0.  0.
         24    2    5    5    0    0 -0.75706132446E+01  0.20906470422E+02 -0.75414570919E+02  0.11038225944E+03  0.77475744604E+02 0.  0.
          5    1    5    5  501    0 -0.12907436399E+03 -0.56280095683E+01 -0.24304213915E+02  0.13154714267E+03  0.47000000000E+01 0. -1.
        -11    1    6    6    0    0  0.69980369925E+01  0.33892482097E+02 -0.22732816726E+01  0.34681993513E+02  0.00000000000E+00 0.  1.
         12    1    6    6    0    0 -0.14568650237E+02 -0.12986011676E+02 -0.73141289246E+02  0.75700265928E+02  0.00000000000E+00 0. -1.
         -5    1    3    3    0  503 -0.38612206410E+01 -0.50914939823E+02 -0.14455509595E+02  0.53275621813E+02  0.47000000000E+01 0.  1.
         11    1    4    4    0    0  0.12734756503E+02 -0.23119078958E+02 -0.10579228321E+02  0.28435645006E+02  0.00000000000E+00 0. -1.
        -12    1    4    4    0    0  0.12777144137E+03  0.58755557927E+02 -0.35040872404E+02  0.14493315547E+03  0.00000000000E+00 0.  1.
</event>
<event>
12    1  0.1594973E-001  0.2067122E+03  0.7818608E-02  0.1144404E+00
         21   -1    0    0  503  502  0.00000000000E+00  0.00000000000E+00  0.16300932389E+02  0.16300932389E+02  0.00000000000E+00 0.  1.
         21   -1    0    0  501  503 -0.00000000000E+00 -0.00000000000E+00 -0.26171081145E+04  0.26171081145E+04  0.00000000000E+00 0.  1.
          6    2    1    2  501    0 -0.11052274302E+03  0.18033861560E+02 -0.13797591255E+04  0.13951577664E+04  0.17375111997E+03 0.  0.
         24    2    3    3    0    0 -0.38379746657E+02  0.26135727221E+01 -0.11590325052E+04  0.11623816332E+04  0.79340263884E+02 0.  0.
         -6    2    1    2    0  502  0.11052274302E+03 -0.18033861560E+02 -0.12210480566E+04  0.12382512805E+04  0.17253225884E+03 0.  0.
        -24    2    5    5    0    0  0.20780062820E+02  0.39387970491E+02 -0.72614591349E+03  0.73198925678E+03  0.80852712587E+02 0.  0.
          5    1    3    3  501    0 -0.72142996363E+02  0.15420288838E+02 -0.22072662035E+03  0.23277613314E+03  0.47000000000E+01 0. -1.
        -13    1    4    4    0    0 -0.57160659363E+02 -0.17924868158E+02 -0.84318795754E+03  0.84531329909E+03  0.00000000000E+00 0.  1.
         14    1    4    4    0    0  0.18780912706E+02  0.20538440880E+02 -0.31584454764E+03  0.31706833413E+03  0.00000000000E+00 0. -1.
         -5    1    5    5    0  502  0.89742680199E+02 -0.57421832051E+02 -0.49490214310E+03  0.50626202375E+03  0.47000000000E+01 0.  1.
         13    1    6    6    0    0 -0.22061394331E+02 -0.11300008283E+02 -0.15011376754E+03  0.15214643772E+03  0.00000000000E+00 0. -1.
        -14    1    6    6    0    0  0.42841457151E+02  0.50687978774E+02 -0.57603214596E+03  0.57984281906E+03  0.00000000000E+00 0.  1.
</event>
<event>
12    1  0.1594973E-001  0.4026207E+03  0.7818608E-02  0.1042878E+00
         21   -1    0    0  503  502  0.00000000000E+00  0.00000000000E+00  0.86425282052E+03  0.86425282052E+03  0.00000000000E+00 0. -1.
         21   -1    0    0  501  503 -0.00000000000E+00 -0.00000000000E+00 -0.29342764872E+03  0.29342764872E+03  0.00000000000E+00 0.  1.
          6    2    1    2  501    0  0.23119213888E+02 -0.36320285157E+03 -0.62278315966E+02  0.40740894750E+03  0.17219945536E+03 0.  0.
         24    2    3    3    0    0 -0.38840421623E+02 -0.12120493564E+03 -0.34633051280E+02  0.15603604044E+03  0.83358160359E+02 0.  0.
         -6    2    1    2    0  502 -0.23119213888E+02  0.36320285157E+03  0.63310348776E+03  0.75027152174E+03  0.17215260869E+03 0.  0.
        -24    2    5    5    0    0  0.35920443539E+02  0.30577997288E+03  0.47028724596E+03  0.56774950460E+03  0.79860729927E+02 0.  0.
          5    1    3    3  501    0  0.61959635511E+02 -0.24199791593E+03 -0.27645264686E+02  0.25137290706E+03  0.47000000000E+01 0. -1.
        -11    1    4    4    0    0 -0.27897288155E+02 -0.84859828206E+02  0.18020707386E+02  0.91127356070E+02  0.00000000000E+00 0.  1.
         12    1    4    4    0    0 -0.10943133468E+02 -0.36345107435E+02 -0.52653758666E+02  0.64908684367E+02  0.00000000000E+00 0. -1.
         -5    1    5    5    0  502 -0.59039657427E+02  0.57422878690E+02  0.16281624180E+03  0.18252201714E+03  0.47000000000E+01 0.  1.
         11    1    6    6    0    0  0.14570368895E+00  0.42646800624E+02  0.12552264458E+03  0.13256962373E+03  0.00000000000E+00 0. -1.
        -12    1    6    6    0    0  0.35774739851E+02  0.26313317225E+03  0.34476460138E+03  0.43517988088E+03  0.00000000000E+00 0.  1.
</event>
<event>
12    1  0.1594973E-001  0.1995900E+03  0.7818608E-02  0.1150660E+00
         21   -1    0    0  503  502  0.00000000000E+00  0.00000000000E+00  0.78334455699E+03  0.78334455699E+03  0.00000000000E+00 0.  1.
         21   -1    0    0  501  503 -0.00000000000E+00 -0.00000000000E+00 -0.76249610415E+02  0.76249610415E+02  0.00000000000E+00 0.  1.
          6    2    1    2  501    0  0.94716203103E+02 -0.16926756357E+02  0.10060209120E+03  0.22110394157E+03  0.17178037726E+03 0.  0.
         24    2    3    3    0    0  0.12520303286E+03 -0.40128841208E+02  0.98770092855E+02  0.18246161053E+03  0.79060639649E+02 0.  0.
         -6    2    1    2    0  502 -0.94716203103E+02  0.16926756357E+02  0.60649285537E+03  0.63849022584E+03  0.17486712287E+03 0.  0.
        -24    2    5    5    0    0 -0.86361405467E+02 -0.47485696289E+02  0.46772374935E+03  0.48520056054E+03  0.83312031176E+02 0.  0.
          5    1    3    3  501    0 -0.30486829757E+02  0.23202084851E+02  0.18319983493E+01  0.38642331038E+02  0.47000000000E+01 0. -1.
        -11    1    4    4    0    0  0.32061098142E+02 -0.30828791821E+02 -0.25112526560E+01  0.44549240276E+02  0.00000000000E+00 0.  1.
         12    1    4    4    0    0  0.93141934717E+02 -0.93000493876E+01  0.10128134551E+03  0.13791237026E+03  0.00000000000E+00 0. -1.
         -5    1    5    5    0  502 -0.83547976366E+01  0.64412452646E+02  0.13876910602E+03  0.15328966529E+03  0.47000000000E+01 0.  1.
         13    1    6    6    0    0 -0.36339933115E+02 -0.49608985126E+02  0.13029705191E+03  0.14407971364E+03  0.00000000000E+00 0. -1.
        -14    1    6    6    0    0 -0.50021472351E+02  0.21232888361E+01  0.33742669744E+03  0.34112084691E+03  0.00000000000E+00 0.  1.
</event>
<event>
12    1  0.1594973E-001  0.2082797E+03  0.7818608E-02  0.1143300E+00
         21   -1    0    0  501  502  0.00000000000E+00  0.00000000000E+00  0.88845758564E+02  0.88845758564E+02  0.00000000000E+00 0. -1.
         21   -1    0    0  502  503 -0.00000000000E+00 -0.00000000000E+00 -0.69639641317E+03  0.69639641317E+03  0.00000000000E+00 0. -1.
         -6    2    1    2    0  503  0.38916933849E+02 -0.10390584588E+03 -0.51966894328E+03  0.55918108176E+03  0.17411696943E+03 0.  0.
        -24    2    3    3    0    0  0.79595499005E+02 -0.28790651330E+02 -0.36373379232E+03  0.38131905822E+03  0.77055872047E+02 0.  0.
          6    2    1    2  501    0 -0.38916933849E+02  0.10390584588E+03 -0.87881711325E+02  0.22606108997E+03  0.17626533597E+03 0.  0.
         24    2    5    5    0    0  0.16573699955E+02  0.11459892167E+02  0.79410190237E+01  0.81736627561E+02  0.78814972202E+02 0.  0.
          5    1    5    5  501    0 -0.55490633804E+02  0.92445953713E+02 -0.95822730349E+02  0.14432446241E+03  0.47000000000E+01 0. -1.
        -11    1    6    6    0    0  0.24196228506E+02  0.24899763901E+02  0.35805673210E+02  0.49874862910E+02  0.00000000000E+00 0.  1.
         12    1    6    6    0    0 -0.76225285512E+01 -0.13439871734E+02 -0.27864654187E+02  0.31861764651E+02  0.00000000000E+00 0. -1.
         -5    1    3    3    0  503 -0.40678565156E+02 -0.75115194551E+02 -0.15593515095E+03  0.17786202354E+03  0.47000000000E+01 0.  1.
         13    1    4    4    0    0  0.66884324451E+02 -0.53657902022E+02 -0.29238063703E+03  0.30469512667E+03  0.00000000000E+00 0. -1.
        -14    1    4    4    0    0  0.12711174554E+02  0.24867250693E+02 -0.71353155293E+02  0.76623931548E+02  0.00000000000E+00 0.  1.
</event>
<event>
12    1  0.1594973E-001  0.1872627E+03  0.7818608E-02  0.1161208E+00
         21   -1    0    0  501  502  0.00000000000E+00  0.00000000000E+00  0.10358703955E+04  0.10358703955E+04  0.00000000000E+00 0. -1.
         21   -1    0    0  502  503 -0.00000000000E+00 -0.00000000000E+00 -0.10331383129E+03  0.10331383129E+03  0.00000000000E+00 0. -1.
         -6    2    1    2    0  503 -0.25547326346E+01 -0.70599204921E+02 -0.98180339440E+00  0.18726530567E+03  0.17342593916E+03 0.  0.
        -24    2    3    3    0    0  0.16277116217E+02 -0.42148321443E+02 -0.66814956259E+02  0.11296735605E+03  0.79094624593E+02 0.  0.
          6    2    1    2  501    0  0.25547326346E+01  0.70599204921E+02  0.93353836760E+03  0.95191892113E+03  0.17223522931E+03 0.  0.
         24    2    5    5    0    0 -0.64754971156E+02  0.25645731523E+02  0.50187857356E+03  0.51271090801E+03  0.78354723887E+02 0.  0.
          5    1    5    5  501    0  0.67309703791E+02  0.44953473398E+02  0.43165979404E+03  0.43920801312E+03  0.47000000000E+01 0. -1.
        -11    1    6    6    0    0 -0.16186843735E+02  0.29997643421E+02  0.67642492828E+02  0.75745490670E+02  0.00000000000E+00 0.  1.
         12    1    6    6    0    0 -0.48568127421E+02 -0.43519118971E+01  0.43423608073E+03  0.43696541734E+03  0.00000000000E+00 0. -1.
         -5    1    3    3    0  503 -0.18831848852E+02 -0.28450883479E+02  0.65833152865E+02  0.74297949622E+02  0.47000000000E+01 0.  1.
         11    1    4    4    0    0 -0.69070252396E+00  0.22816855898E+02 -0.25062100206E+02  0.33899776545E+02  0.00000000000E+00 0. -1.
        -12    1    4    4    0    0  0.16967818741E+02 -0.64965177341E+02 -0.41752856053E+02  0.79067579502E+02  0.00000000000E+00 0.  1.
</event>
<event>
12    1  0.1594973E-001  0.2415971E+03  0.7818608E-02  0.1118899E+00
         21   -1    0    0  503  502  0.00000000000E+00  0.00000000000E+00  0.10135780626E+03  0.10135780626E+03  0.00000000000E+00 0. -1.
         21   -1    0    0  501  503 -0.00000000000E+00 -0.00000000000E+00 -0.60336420972E+03  0.60336420972E+03  0.00000000000E+00 0. -1.
          6    2    1    2  501    0  0.14052904904E+03  0.93694322326E+02 -0.32892002631E+03  0.40752169690E+03  0.17134325220E+03 0.  0.
         24    2    3    3    0    0  0.33372203231E+02 -0.15045220365E+01 -0.17804211242E+03  0.19935915350E+03  0.83241280360E+02 0.  0.
         -6    2    1    2    0  502 -0.14052904904E+03 -0.93694322326E+02 -0.17308637715E+03  0.29720031908E+03  0.17274864991E+03 0.  0.
        -24    2    5    5    0    0 -0.11276819485E+03 -0.51124383744E+02 -0.37565453422E+02  0.15238707568E+03  0.80500243231E+02 0.  0.
          5    1    3    3  501    0  0.10715684581E+03  0.95198844362E+02 -0.15087791389E+03  0.20816254340E+03  0.47000000000E+01 0. -1.
        -13    1    4    4    0    0  0.27892601578E+01 -0.37736143886E+02 -0.49186907422E+02  0.62057621525E+02  0.00000000000E+00 0.  1.
         14    1    4    4    0    0  0.30582943073E+02  0.36231621849E+02 -0.12885520499E+03  0.13730153198E+03  0.00000000000E+00 0. -1.
         -5    1    5    5    0  502 -0.27760854194E+02 -0.42569938582E+02 -0.13552092373E+03  0.14481324340E+03  0.47000000000E+01 0.  1.
         11    1    6    6    0    0 -0.70079148118E+02 -0.36303723330E+02 -0.62591814475E+02  0.10073123928E+03  0.00000000000E+00 0. -1.
        -12    1    6    6    0    0 -0.42689046733E+02 -0.14820660414E+02  0.25026361053E+02  0.51655836395E+02  0.00000000000E+00 0.  1.
</event>
<event>
12    1  0.1594973E-001  0.2292232E+03  0.7818608E-02  0.1127308E+00
         21   -1    0    0  503  502  0.00000000000E+00  0.00000000000E+00  0.72411496374E+03  0.72411496374E+03  0.00000000000E+00 0.  1.
         21   -1    0    0  501  503 -0.00000000000E+00 -0.00000000000E+00 -0.15077208727E+03  0.15077208727E+03  0.00000000000E+00 0.  1.
          6    2    1    2  501    0  0.12252976133E+03 -0.86325923506E+02 -0.28615992414E+02  0.23100252213E+03  0.17342889819E+03 0.  0.
         24    2    3    3    0    0  0.36718063434E+02 -0.43090342089E+02  0.37020637672E+02  0.11454128306E+03  0.92434756165E+02 0.  0.
         -6    2    1    2    0  502 -0.12252976133E+03  0.86325923506E+02  0.60195886888E+03  0.64388452888E+03  0.17253144416E+03 0.  0.
        -24    2    5    5    0    0 -0.11484408129E+03  0.23513015927E+02  0.25315360773E+03  0.28935423224E+03  0.76792562645E+02 0.  0.
          5    1    3    3  501    0  0.85811697899E+02 -0.43235581418E+02 -0.65636630086E+02  0.11646123907E+03  0.47000000000E+01 0. -1.
        -11    1    4    4    0    0 -0.30168514683E+02 -0.19912694871E+02  0.38052247742E+01  0.36347412987E+02  0.00000000000E+00 0.  1.
         12    1    4    4    0    0  0.66886578117E+02 -0.23177647217E+02  0.33215412898E+02  0.78193870072E+02  0.00000000000E+00 0. -1.
         -5    1    5    5    0  502 -0.76856800421E+01  0.62812907579E+02  0.34880526115E+03  0.35453029665E+03  0.47000000000E+01 0.  1.
         11    1    6    6    0    0 -0.62123687716E+02  0.51104462198E+02  0.15296804229E+03  0.17283009169E+03  0.00000000000E+00 0. -1.
        -12    1    6    6    0    0 -0.52720393575E+02 -0.27591446270E+02  0.10018556545E+03  0.11652414055E+03  0.00000000000E+00 0.  1.
</event>
<event>
12    1  0.1594973E-001  0.1935385E+03  0.7818608E-02  0.1156390E+00
         21   -1    0    0  501  502  0.00000000000E+00  0.00000000000E+00  0.39058983319E+03  0.39058983319E+03  0.00000000000E+00 0.  1.
         21   -1    0    0  502  503 -0.00000000000E+00 -0.00000000000E+00 -0.10983588754E+03  0.10983588754E+03  0.00000000000E+00 0.  1.
         -6    2    1    2    0  503  0.78765579624E+02  0.36662783700E+02  0.23834886185E+03  0.30702982521E+03  0.17294206364E+03 0.  0.
        -24    2    3    3    0    0  0.52335418784E+02  0.40940869798E+02  0.45485997512E+02  0.11226065448E+03  0.78219739807E+02 0.  0.
          6    2    1    2  501    0 -0.78765579624E+02 -0.36662783700E+02  0.42405083795E+02  0.19339589553E+03  0.16749807471E+03 0.  0.
         24    2    5    5    0    0 -0.18509114044E+02 -0.79204742294E+02  0.11251973180E+02  0.11318825134E+03  0.77903753670E+02 0.  0.
          5    1    5    5  501    0 -0.60256465581E+02  0.42541958594E+02  0.31153110615E+02  0.80207644188E+02  0.47000000000E+01 0. -1.
        -13    1    6    6    0    0 -0.19448734574E+02 -0.74828426229E+02  0.37943869999E+02  0.86123654817E+02  0.00000000000E+00 0.  1.
         14    1    6    6    0    0  0.93962053028E+00 -0.43763160650E+01 -0.26691896819E+02  0.27064596521E+02  0.00000000000E+00 0. -1.
         -5    1    3    3    0  503  0.26430160840E+02 -0.42780860983E+01  0.19286286434E+03  0.19476917073E+03  0.47000000000E+01 0.  1.
         13    1    4    4    0    0  0.58131663207E+02  0.24658409565E+02 -0.48595655191E+00  0.63147158156E+02  0.00000000000E+00 0. -1.
        -14    1    4    4    0    0 -0.57962444227E+01  0.16282460233E+02  0.45971954064E+02  0.49113496324E+02  0.00000000000E+00 0.  1.
</event>
<event>
12    1  0.1594973E-001  0.1969624E+03  0.7818608E-02  0.1152815E+00
         21   -1    0    0  503  502  0.00000000000E+00  0.00000000000E+00  0.81294953635E+02  0.81294953635E+02  0.00000000000E+00 0. -1.
         21   -1    0    0  501  503 -0.00000000000E+00 -0.00000000000E+00 -0.51658538916E+03  0.51658538916E+03  0.00000000000E+00 0. -1.
          6    2    1    2  501    0 -0.33830491105E+02 -0.88872102914E+02 -0.30455770220E+03  0.36147979458E+03  0.16991025606E+03 0.  0.
         24    2    3    3    0    0  0.45278269231E+02 -0.59171067392E+02 -0.15964547081E+03  0.19366444284E+03  0.80423275174E+02 0.  0.
         -6    2    1    2    0  502  0.33830491105E+02  0.88872102914E+02 -0.13073273333E+03  0.23640054822E+03  0.17248599604E+03 0.  0.
        -24    2    5    5    0    0  0.47744373520E+02  0.11823501608E+03 -0.65951045530E+02  0.16377456205E+03  0.78825900166E+02 0.  0.
          5    1    3    3  501    0 -0.79108760335E+02 -0.29701035522E+02 -0.14491223139E+03  0.16781535174E+03  0.47000000000E+01 0. -1.
        -13    1    4    4    0    0 -0.96907486583E+00  0.17849039361E+02 -0.14736663915E+02  0.23166712662E+02  0.00000000000E+00 0.  1.
         14    1    4    4    0    0  0.46247344096E+02 -0.77020106753E+02 -0.14490880689E+03  0.17049773018E+03  0.00000000000E+00 0. -1.
         -5    1    5    5    0  502 -0.13913882415E+02 -0.29362913166E+02 -0.64781687796E+02  0.72625986170E+02  0.47000000000E+01 0.  1.
         13    1    6    6    0    0  0.56079477686E+02  0.61155954334E+02 -0.10284433719E+02  0.83610574361E+02  0.00000000000E+00 0. -1.
        -14    1    6    6    0    0 -0.83351041659E+01  0.57079061745E+02 -0.55666611811E+02  0.80163987686E+02  0.00000000000E+00 0.  1.
</event>
<event>
12    1  0.1594973E-001  0.3470806E+03  0.7818608E-02  0.1063882E+00
         21   -1    0    0  503  502  0.00000000000E+00  0.00000000000E+00  0.22743875451E+03  0.22743875451E+03  0.00000000000E+00 0. -1.
         21   -1    0    0  501  503 -0.00000000000E+00 -0.00000000000E+00 -0.91218798810E+03  0.91218798810E+03  0.00000000000E+00 0. -1.
          6    2    1    2  501    0 -0.27119580078E+03 -0.13210797732E+03  0.26891749035E+02  0.34812080426E+03  0.17165444404E+03 0.  0.
         24    2    3    3    0    0 -0.17157279564E+03 -0.10478152001E+02  0.10088418106E+01  0.18871386449E+03  0.77877397339E+02 0.  0.
         -6    2    1    2    0  502  0.27119580078E+03  0.13210797732E+03 -0.71164098263E+03  0.79150593834E+03  0.17043791317E+03 0.  0.
        -24    2    5    5    0    0  0.25528335819E+03  0.92481742621E+02 -0.48968642139E+03  0.56543214163E+03  0.78728964242E+02 0.  0.
          5    1    3    3  501    0 -0.99623005139E+02 -0.12162982532E+03  0.25882907225E+02  0.15940693977E+03  0.47000000000E+01 0. -1.
        -13    1    4    4    0    0 -0.61482823988E+02 -0.49083446273E+01  0.37996715230E+02  0.72442942105E+02  0.00000000000E+00 0.  1.
         14    1    4    4    0    0 -0.11008997165E+03 -0.55698073739E+01 -0.36987873419E+02  0.11627092239E+03  0.00000000000E+00 0. -1.
         -5    1    5    5    0  502  0.15912442593E+02  0.39626234698E+02 -0.22195456124E+03  0.22607379672E+03  0.47000000000E+01 0.  1.
         11    1    6    6    0    0  0.62692407376E+02  0.60769209225E+02 -0.14148705325E+03  0.16625829595E+03  0.00000000000E+00 0. -1.
        -12    1    6    6    0    0  0.19259095081E+03  0.31712533396E+02 -0.34819936813E+03  0.39917384568E+03  0.00000000000E+00 0.  1.
</event>
<event>
12    1  0.1594973E-001  0.1770217E+03  0.7818608E-02  0.1170851E+00
         21   -1    0    0  501  502  0.00000000000E+00  0.00000000000E+00  0.25426894741E+03  0.25426894741E+03  0.00000000000E+00 0.  1.
         21   -1    0    0  502  503 -0.00000000000E+00 -0.00000000000E+00 -0.12533303223E+03  0.12533303223E+03  0.00000000000E+00 0.  1.
         -6    2    1    2    0  503 -0.45991319555E+01  0.41382659028E+02  0.37936991201E+02  0.18104118220E+03  0.17205527562E+03 0.  0.
        -24    2    3    3    0    0  0.55912673539E+02  0.11970988139E+02  0.42857713669E+02  0.11341701124E+03  0.88074418521E+02 0.  0.
          6    2    1    2  501    0  0.45991319555E+01 -0.41382659028E+02  0.90998923981E+02  0.19856079745E+03  0.17149900768E+03 0.  0.
         24    2    5    5    0    0 -0.29512181276E+02  0.30623492345E+02  0.16827871455E+02  0.89602536820E+02  0.77049790525E+02 0.  0.
          5    1    5    5  501    0  0.34111313232E+02 -0.72006151373E+02  0.74171052526E+02  0.10895826063E+03  0.47000000000E+01 0. -1.
        -13    1    6    6    0    0  0.13138859347E+02  0.12655065647E+01  0.32849301350E+02  0.35402086534E+02  0.00000000000E+00 0.  1.
         14    1    6    6    0    0 -0.42651040623E+02  0.29357985780E+02 -0.16021429896E+02  0.54200450286E+02  0.00000000000E+00 0. -1.
         -5    1    3    3    0  503 -0.60511805494E+02  0.29411670889E+02 -0.49207224677E+01  0.67624170962E+02  0.47000000000E+01 0.  1.
         13    1    4    4    0    0  0.43128250309E+02 -0.31087215977E+02  0.43194324176E+02  0.68499712503E+02  0.00000000000E+00 0. -1.
        -14    1    4    4    0    0  0.12784423230E+02  0.43058204116E+02 -0.33661050757E+00  0.44917298735E+02  0.00000000000E+00 0.  1.
</event>
<event>
12    1  0.1594973E-001  0.1806293E+03  0.7818608E-02  0.1167198E+00
         21   -1    0    0  503  502  0.00000000000E+00  0.00000000000E+00  0.19235090094E+03  0.19235090094E+03  0.00000000000E+00 0.  1.
         21   -1    0    0  501  503 -0.00000000000E+00 -0.00000000000E+00 -0.40037595249E+03  0.40037595249E+03  0.00000000000E+00 0.  1.
          6    2    1    2  501    0  0.19404272884E+02 -0.59182377061E+02 -0.32900967325E+03  0.37533227234E+03  0.16955196846E+03 0.  0.
         24    2    3    3    0    0  0.52338254357E+02 -0.91574192038E+02 -0.21752093635E+03  0.25456097911E+03  0.79754678972E+02 0.  0.
         -6    2    1    2    0  502 -0.19404272884E+02  0.59182377061E+02  0.12098462170E+03  0.21739458109E+03  0.16954069022E+03 0.  0.
        -24    2    5    5    0    0 -0.46503737260E+02  0.18706094212E+02  0.13544406838E+03  0.16636639240E+03  0.82584292219E+02 0.  0.
          5    1    3    3  501    0 -0.32933981474E+02  0.32391814977E+02 -0.11148873690E+03  0.12077129323E+03  0.47000000000E+01 0. -1.
        -11    1    4    4    0    0  0.11489326723E+02 -0.70400487520E+02 -0.69646360132E+02  0.99693774887E+02  0.00000000000E+00 0.  1.
         12    1    4    4    0    0  0.40848927634E+02 -0.21173704517E+02 -0.14787457622E+03  0.15486720422E+03  0.00000000000E+00 0. -1.
         -5    1    5    5    0  502  0.27099464376E+02  0.40476282849E+02 -0.14459446680E+02  0.51028188691E+02  0.47000000000E+01 0.  1.
         11    1    6    6    0    0 -0.62259631929E+02 -0.32952423753E+01  0.61284666205E+02  0.87423856596E+02  0.00000000000E+00 0. -1.
        -12    1    6    6    0    0  0.15755894669E+02  0.22001336587E+02  0.74159402171E+02  0.78942535802E+02  0.00000000000E+00 0.  1.
</event>
<event>
12    1  0.1594973E-001  0.2601108E+03  0.7818608E-02  0.1107182E+00
         21   -1    0    0  501  502  0.00000000000E+00  0.00000000000E+00  0.45968939222E+02  0.45968939222E+02  0.00000000000E+00 0. -1.
         21   -1    0    0  502  503 -0.00000000000E+00 -0.00000000000E+00 -0.14723718705E+04  0.14723718705E+04  0.00000000000E+00 0.  1.
         -6    2    1    2    0  503 -0.15627066953E+03  0.11589273348E+03 -0.67216880304E+03  0.72074163702E+03  0.17264402604E+03 0.  0.
        -24    2    3    3    0    0 -0.18072601406E+03  0.78329019269E+02 -0.51007821884E+03  0.55250209355E+03  0.79255577894E+02 0.  0.
          6    2    1    2  501    0  0.15627066953E+03 -0.11589273348E+03 -0.75423412823E+03  0.79759917270E+03  0.17159158564E+03 0.  0.
         24    2    5    5    0    0  0.11199284500E+03 -0.18418168876E+02 -0.54882278945E+03  0.56591463590E+03  0.78557587982E+02 0.  0.
          5    1    5    5  501    0  0.44277824538E+02 -0.97474564602E+02 -0.20541133879E+03  0.23168453680E+03  0.47000000000E+01 0. -1.
        -13    1    6    6    0    0  0.82751737491E+02 -0.32498210310E+02 -0.49610288083E+03  0.50400600403E+03  0.00000000000E+00 0.  1.
         14    1    6    6    0    0  0.29241107504E+02  0.14080041434E+02 -0.52719908620E+02  0.61908631868E+02  0.00000000000E+00 0. -1.
         -5    1    3    3    0  503  0.24455344524E+02  0.37563714209E+02 -0.16209058420E+03  0.16823954347E+03  0.47000000000E+01 0.  1.
         11    1    4    4    0    0 -0.14044987595E+03  0.82353783828E+02 -0.46088027517E+03  0.48879335245E+03  0.00000000000E+00 0. -1.
        -12    1    4    4    0    0 -0.40276138109E+02 -0.40247645595E+01 -0.49197943677E+02  0.63708741102E+02  0.00000000000E+00 0.  1.
</event>
<event>
12    1  0.1594973E-001  0.1800396E+03  0.7818608E-02  0.1168436E+00
         21   -1    0    0  501  502  0.00000000000E+00  0.00000000000E+00  0.54312868273E+03  0.54312868273E+03  0.00000000000E+00 0.  1.
         21   -1    0    0  502  503 -0.00000000000E+00 -0.00000000000E+00 -0.60096165683E+02  0.60096165683E+02  0.00000000000E+00 0.  1.
         -6    2    1    2    0  503 -0.12537505847E+01  0.47282717355E+02  0.28447775508E+03  0.33519824357E+03  0.17085971470E+03 0.  0.
        -24    2    3    3    0    0 -0.57257118077E+01  0.96895321135E+02  0.18389195816E+03  0.22285501310E+03  0.80166187095E+02 0.  0.
          6    2    1    2  501    0  0.12537505847E+01 -0.47282717355E+02  0.19855476196E+03  0.26802660484E+03  0.17371539987E+03 0.  0.
         24    2    5    5    0    0 -0.70924270335E+01 -0.66657466261E+02  0.21632674851E+03  0.24004494867E+03  0.79566292677E+02 0.  0.
          5    1    5    5  501    0  0.83461776182E+01  0.19374748906E+02 -0.17771986550E+02  0.27981656168E+02  0.47000000000E+01 0. -1.
        -11    1    6    6    0    0  0.78465459343E+01 -0.53317238407E+02  0.53315455948E+02  0.75807875827E+02  0.00000000000E+00 0.  1.
         12    1    6    6    0    0 -0.14938972968E+02 -0.13340227854E+02  0.16301129256E+03  0.16423707284E+03  0.00000000000E+00 0. -1.
         -5    1    3    3    0  503  0.44719612230E+01 -0.49612603780E+02  0.10058579692E+03  0.11234323047E+03  0.47000000000E+01 0.  1.
         11    1    4    4    0    0 -0.34891457560E+02  0.13427541274E+02  0.50923262363E+02  0.63173501763E+02  0.00000000000E+00 0. -1.
        -12    1    4    4    0    0  0.29165745752E+02  0.83467779861E+02  0.13296869580E+03  0.15968151134E+03  0.00000000000E+00 0.  1.
</event>
<event>
12    1  0.1594973E-001  0.1909996E+03  0.7818608E-02  0.1157795E+00
         21   -1    0    0  503  502  0.00000000000E+00  0.00000000000E+00  0.20973336547E+03  0.20973336547E+03  0.00000000000E+00 0. -1.
         21   -1    0    0  501  503 -0.00000000000E+00 -0.00000000000E+00 -0.26563781742E+03  0.26563781742E+03  0.00000000000E+00 0. -1.
          6    2    1    2  501    0 -0.71290339508E+02  0.41994403545E+02 -0.16836601334E+03  0.25461333515E+03  0.17214817324E+03 0.  0.
         24    2    3    3    0    0 -0.95435896866E+02 -0.14669504425E+02 -0.13784302651E+03  0.18571087415E+03  0.78515119876E+02 0.  0.
         -6    2    1    2    0  502  0.71290339508E+02 -0.41994403545E+02  0.11246156139E+03  0.22075784775E+03  0.17099877811E+03 0.  0.
        -24    2    5    5    0    0  0.14894890864E+02 -0.56726853657E+02  0.12655224885E+03  0.16060696091E+03  0.79619912738E+02 0.  0.
          5    1    3    3  501    0  0.24145557358E+02  0.56663907971E+02 -0.30522986830E+02  0.68902460999E+02  0.47000000000E+01 0. -1.
        -11    1    4    4    0    0 -0.68126100987E+02  0.77768528083E+01 -0.35046587497E+02  0.77005898283E+02  0.00000000000E+00 0.  1.
         12    1    4    4    0    0 -0.27309795879E+02 -0.22446357234E+02 -0.10279643902E+03  0.10870497587E+03  0.00000000000E+00 0. -1.
         -5    1    5    5    0  502  0.56395448643E+02  0.14732450111E+02 -0.14090687458E+02  0.60150886835E+02  0.47000000000E+01 0.  1.
         11    1    6    6    0    0  0.41207789522E+02 -0.37439368255E+02  0.11160403777E+03  0.12472068577E+03  0.00000000000E+00 0. -1.
        -12    1    6    6    0    0 -0.26312898658E+02 -0.19287485401E+02  0.14948211079E+02  0.35886275139E+02  0.00000000000E+00 0.  1.
</event>
<event>
12    1  0.1594973E-001  0.2200887E+03  0.7818608E-02  0.1134018E+00
         21   -1    0    0  501  502  0.00000000000E+00  0.00000000000E+00  0.18457300683E+03  0.18457300683E+03  0.00000000000E+00 0.  1.
         21   -1    0    0  502  503 -0.00000000000E+00 -0.00000000000E+00 -0.31490091337E+03  0.31490091337E+03  0.00000000000E+00 0. -1.
         -6    2    1    2    0  503  0.11899278092E+03  0.66051243072E+02 -0.16820628818E+03  0.27614942806E+03  0.17158992573E+03 0.  0.
        -24    2    3    3    0    0  0.85331596776E+02  0.17678260787E+00 -0.31675585910E+02  0.12079421405E+03  0.79412761844E+02 0.  0.
          6    2    1    2  501    0 -0.11899278092E+03 -0.66051243072E+02  0.37878381629E+02  0.22332449214E+03  0.17296533865E+03 0.  0.
         24    2    5    5    0    0 -0.73545539430E+02 -0.10824907723E+03  0.47132307528E+02  0.16044497155E+03  0.79964525832E+02 0.  0.
          5    1    5    5  501    0 -0.45447241487E+02  0.42197834154E+02 -0.92539258981E+01  0.62879520597E+02  0.47000000000E+01 0. -1.
        -11    1    6    6    0    0 -0.45374520942E+02 -0.26865904215E+02 -0.14326588374E+02  0.54643161461E+02  0.00000000000E+00 0.  1.
         12    1    6    6    0    0 -0.28171018487E+02 -0.81383173010E+02  0.61458895901E+02  0.10580181008E+03  0.00000000000E+00 0. -1.
         -5    1    3    3    0  503  0.33661184141E+02  0.65874460464E+02 -0.13653070227E+03  0.15535521401E+03  0.47000000000E+01 0.  1.
         11    1    4    4    0    0  0.44882710530E+02  0.35175249466E+02 -0.35496390976E+02  0.67169558967E+02  0.00000000000E+00 0. -1.
        -12    1    4    4    0    0  0.40448886245E+02 -0.34998466858E+02  0.38208050662E+01  0.53624655078E+02  0.00000000000E+00 0.  1.
</event>
<event>
12    1  0.1594973E-001  0.2204681E+03  0.7818608E-02  0.1133630E+00
         21   -1    0    0  503  502  0.00000000000E+00  0.00000000000E+00  0.53398997652E+03  0.53398997652E+03  0.00000000000E+00 0. -1.
         21   -1    0    0  501  503 -0.00000000000E+00 -0.00000000000E+00 -0.13187995529E+03  0.13187995529E+03  0.00000000000E+00 0. -1.
          6    2    1    2  501    0  0.77154168867E+02 -0.11270762942E+03  0.38700155141E+03  0.44539464017E+03  0.17306186525E+03 0.  0.
         24    2    3    3    0    0 -0.12816769148E+02 -0.80679163321E+02  0.27618036396E+03  0.29902518327E+03  0.80418093900E+02 0.  0.
         -6    2    1    2    0  502 -0.77154168867E+02  0.11270762942E+03  0.15108469822E+02  0.22047529164E+03  0.17241030381E+03 0.  0.
        -24    2    5    5    0    0 -0.75278799074E+02  0.14744943792E+03  0.63423398640E+01  0.18428903314E+03  0.80709281532E+02 0.  0.
          5    1    3    3  501    0  0.89970938015E+02 -0.32028466096E+02  0.11082118745E+03  0.14636945691E+03  0.47000000000E+01 0. -1.
        -13    1    4    4    0    0 -0.37424852959E+02 -0.81673793520E+02  0.20996607743E+03  0.22837903109E+03  0.00000000000E+00 0.  1.
         14    1    4    4    0    0  0.24608083811E+02  0.99463019931E+00  0.66214286523E+02  0.70646152180E+02  0.00000000000E+00 0. -1.
         -5    1    5    5    0  502 -0.18753697925E+01 -0.34741808506E+02  0.87661299577E+01  0.36186258504E+02  0.47000000000E+01 0.  1.
         13    1    6    6    0    0 -0.92626546278E+02  0.11904448209E+03  0.33656581774E+01  0.15087277239E+03  0.00000000000E+00 0. -1.
        -14    1    6    6    0    0  0.17347747203E+02  0.28404955829E+02  0.29766816867E+01  0.33416260750E+02  0.00000000000E+00 0.  1.
</event>
<event>
12    1  0.1594973E-001  0.2421389E+03  0.7818608E-02  0.1119230E+00
         21   -1    0    0  501  502  0.00000000000E+00  0.00000000000E+00  0.86683680791E+02  0.86683680791E+02  0.00000000000E+00 0.  1.
         21   -1    0    0  502  503 -0.00000000000E+00 -0.00000000000E+00 -0.10479149521E+04  0.10479149521E+04  0.00000000000E+00 0. -1.
         -6    2    1    2    0  503  0.14632973030E+02  0.16233838777E+03 -0.82155824061E+03  0.85506369574E+03  0.17207005848E+03 0.  0.
        -24    2    3    3    0    0  0.21392326919E+02  0.29364660966E+02 -0.19054484008E+03  0.21013912455E+03  0.80815843870E+02 0.  0.
          6    2    1    2  501    0 -0.14632973030E+02 -0.16233838777E+03 -0.13967303070E+03  0.27953493715E+03  0.17906241799E+03 0.  0.
         24    2    5    5    0    0  0.33213236348E+02 -0.11501067278E+03 -0.15286606584E+03  0.21079398477E+03  0.82070067672E+02 0.  0.
          5    1    5    5  501    0 -0.47846209378E+02 -0.47327714990E+02  0.13193035136E+02  0.68740952380E+02  0.47000000000E+01 0. -1.
        -11    1    6    6    0    0 -0.22856461214E+02 -0.68723960821E+02 -0.75068199898E+02  0.10431028351E+03  0.00000000000E+00 0.  1.
         12    1    6    6    0    0  0.56069697563E+02 -0.46286711960E+02 -0.77797865942E+02  0.10648370126E+03  0.00000000000E+00 0. -1.
         -5    1    3    3    0  503 -0.67593538886E+01  0.13297372681E+03 -0.63101340053E+03  0.64492457120E+03  0.47000000000E+01 0.  1.
         13    1    4    4    0    0 -0.17331546951E+02 -0.13113441576E+02 -0.10399059298E+03  0.10623741477E+03  0.00000000000E+00 0. -1.
        -14    1    4    4    0    0  0.38723873870E+02  0.42478102542E+02 -0.86554247100E+02  0.10390170977E+03  0.00000000000E+00 0.  1.
</event>
<event>
12    1  0.1594973E-001  0.1768459E+03  0.7818608E-02  0.1171967E+00
         21   -1    0    0  501  502  0.00000000000E+00  0.00000000000E+00  0.30335680997E+02  0.30335680997E+02  0.00000000000E+00 0.  1.
         21   -1    0    0  502  503 -0.00000000000E+00 -0.00000000000E+00 -0.12451701937E+04  0.12451701937E+04  0.00000000000E+00 0. -1.
         -6    2    1    2    0  503  0.46708393405E+02 -0.21941442835E+02 -0.89287924149E+03  0.91022405427E+03  0.16914901168E+03 0.  0.
        -24    2    3    3    0    0  0.58662277882E+02  0.38786768291E+02 -0.68569416441E+03  0.69394054324E+03  0.80195474887E+02 0.  0.
          6    2    1    2  501    0 -0.46708393405E+02  0.21941442835E+02 -0.32195527126E+03  0.36528182047E+03  0.16465877065E+03 0.  0.
         24    2    5    5    0    0 -0.48848165324E+02  0.23777277227E+02 -0.33635394500E+03  0.34987530505E+03  0.79544016760E+02 0.  0.
          5    1    5    5  501    0  0.21397719198E+01 -0.18358343918E+01  0.14398673744E+02  0.15406515420E+02  0.47000000000E+01 0. -1.
        -13    1    6    6    0    0 -0.31858645576E+02 -0.13978247409E+02 -0.26582789458E+03  0.26809482322E+03  0.00000000000E+00 0.  1.
         14    1    6    6    0    0 -0.16989519748E+02  0.37755524636E+02 -0.70526050417E+02  0.81780481836E+02  0.00000000000E+00 0. -1.
         -5    1    3    3    0  503 -0.11953884478E+02 -0.60728211127E+02 -0.20718507708E+03  0.21628351103E+03  0.47000000000E+01 0.  1.
         13    1    4    4    0    0  0.53246560810E+02 -0.81174273873E+00 -0.54747842681E+03  0.55006225373E+03  0.00000000000E+00 0. -1.
        -14    1    4    4    0    0  0.54157170722E+01  0.39598511030E+02 -0.13821573761E+03  0.14387828950E+03  0.00000000000E+00 0.  1.
</event>
<event>
12    1  0.1594973E-001  0.2426121E+03  0.7818608E-02  0.1118087E+00
         21   -1    0    0  501  502  0.00000000000E+00  0.00000000000E+00  0.50153903535E+02  0.50153903535E+02  0.00000000000E+00 0. -1.
         21   -1    0    0  502  503 -0.00000000000E+00 -0.00000000000E+00 -0.11764264499E+04  0.11764264499E+04  0.00000000000E+00 0. -1.
         -6    2    1    2    0  503 -0.11409113521E+03  0.12712100405E+03 -0.59658283730E+03  0.64402772955E+03  0.17229073644E+03 0.  0.
        -24    2    3    3    0    0 -0.50217895345E+02  0.12045009385E+03 -0.26564181188E+03  0.30688036693E+03  0.81116738525E+02 0.  0.
          6    2    1    2  501    0  0.11409113521E+03 -0.12712100405E+03 -0.52968970909E+03  0.58255262391E+03  0.17210413971E+03 0.  0.
         24    2    5    5    0    0  0.72836577812E+00 -0.33927269393E+02 -0.28204816633E+03  0.29465574416E+03  0.78225630760E+02 0.  0.
          5    1    5    5  501    0  0.11336276943E+03 -0.93193734660E+02 -0.24764154276E+03  0.28789687976E+03  0.47000000000E+01 0. -1.
        -13    1    6    6    0    0 -0.12674118377E+02  0.12360583981E+02 -0.14734055438E+02  0.23032796240E+02  0.00000000000E+00 0.  1.
         14    1    6    6    0    0  0.13402484156E+02 -0.46287853374E+02 -0.26731411090E+03  0.27162294792E+03  0.00000000000E+00 0. -1.
         -5    1    3    3    0  503 -0.63873239864E+02  0.66709102054E+01 -0.33094102542E+03  0.33714736262E+03  0.47000000000E+01 0.  1.
         13    1    4    4    0    0 -0.56361435479E+02  0.48685031019E+02 -0.18109792266E+03  0.19581445618E+03  0.00000000000E+00 0. -1.
        -14    1    4    4    0    0  0.61435401334E+01  0.71765062830E+02 -0.84543889214E+02  0.11106591075E+03  0.00000000000E+00 0.  1.
</event>
<event>
12    1  0.1594973E-001  0.2006850E+03  0.7818608E-02  0.1149256E+00
         21   -1    0    0  503  502  0.00000000000E+00  0.00000000000E+00  0.22301760909E+03  0.22301760909E+03  0.00000000000E+00 0.  1.
         21   -1    0    0  501  503 -0.00000000000E+00 -0.00000000000E+00 -0.48685525197E+03  0.48685525197E+03  0.00000000000E+00 0. -1.
          6    2    1    2  501    0  0.85168307387E+02 -0.56329503561E+02 -0.41367033019E+03  0.45977997172E+03  0.17276523598E+03 0.  0.
         24    2    3    3    0    0  0.84673914297E+02 -0.99880410744E+02 -0.32570691615E+03  0.36151208200E+03  0.86372576613E+02 0.  0.
         -6    2    1    2    0  502 -0.85168307387E+02  0.56329503561E+02  0.14983268730E+03  0.25009288934E+03  0.17224971860E+03 0.  0.
        -24    2    5    5    0    0 -0.62817743777E+02 -0.23299758743E+02  0.32745269685E+02  0.10666374141E+03  0.76262398041E+02 0.  0.
          5    1    3    3  501    0  0.49439308952E+00  0.43550907183E+02 -0.87963414039E+02  0.98267889722E+02  0.47000000000E+01 0. -1.
        -13    1    4    4    0    0  0.64375033744E+01 -0.23071063046E+02 -0.77372803483E+01  0.25171033092E+02  0.00000000000E+00 0.  1.
         14    1    4    4    0    0  0.78236410923E+02 -0.76809347698E+02 -0.31796963580E+03  0.33634104891E+03  0.00000000000E+00 0. -1.
         -5    1    5    5    0  502 -0.22350563609E+02  0.79629262304E+02  0.11708741762E+03  0.14342914792E+03  0.47000000000E+01 0.  1.
         11    1    6    6    0    0  0.17555455023E+02 -0.42102573433E+01  0.11365268546E+02  0.21332829092E+02  0.00000000000E+00 0. -1.
        -12    1    6    6    0    0 -0.80373198800E+02 -0.19089501400E+02  0.21380001139E+02  0.85330912322E+02  0.00000000000E+00 0.  1.
</event>
<event>
12    1  0.1594973E-001  0.2349191E+03  0.7818608E-02  0.1124512E+00
         21   -1    0    0  501  502  0.00000000000E+00  0.00000000000E+00  0.16893920777E+03  0.16893920777E+03  0.00000000000E+00 0.  1.
         21   -1    0    0  502  503 -0.00000000000E+00 -0.00000000000E+00 -0.31874892026E+03  0.31874892026E+03  0.00000000000E+00 0. -1.
         -6    2    1    2    0  503  0.14893135484E+03 -0.19053960053E+02 -0.53095139331E+02  0.23363957056E+03  0.17095248833E+03 0.  0.
        -24    2    3    3    0    0  0.29172507812E+02  0.17961198790E+02  0.20917434415E+02  0.87995296739E+02  0.78307045096E+02 0.  0.
          6    2    1    2  501    0 -0.14893135484E+03  0.19053960053E+02 -0.96714573162E+02  0.25404855747E+03  0.18067473271E+03 0.  0.
         24    2    5    5    0    0 -0.57225284256E+01 -0.19760870269E+02  0.42941017309E+01  0.74492991082E+02  0.71466964993E+02 0.  0.
          5    1    5    5  501    0 -0.14320882641E+03  0.38814830322E+02 -0.10100867489E+03  0.17955556638E+03  0.47000000000E+01 0. -1.
        -13    1    6    6    0    0 -0.17974685321E+01  0.35777201175E+01  0.35278042842E+02  0.35504524798E+02  0.00000000000E+00 0.  1.
         14    1    6    6    0    0 -0.39250598935E+01 -0.23338590386E+02 -0.30983941111E+02  0.38988466284E+02  0.00000000000E+00 0. -1.
         -5    1    3    3    0  503  0.11975884703E+03 -0.37015158844E+02 -0.74012573746E+02  0.14564427383E+03  0.47000000000E+01 0.  1.
         13    1    4    4    0    0  0.28892291667E+02  0.47413817369E+02  0.18136586361E+02  0.58410361753E+02  0.00000000000E+00 0. -1.
        -14    1    4    4    0    0  0.28021614483E+00 -0.29452618579E+02  0.27808480538E+01  0.29584934986E+02  0.00000000000E+00 0.  1.
</event>
<event>
12    1  0.1594973E-001  0.1928090E+03  0.7818608E-02  0.1156406E+00
         21   -1    0    0  503  502  0.00000000000E+00  0.00000000000E+00  0.67231801984E+03  0.67231801984E+03  0.00000000000E+00 0.  1.
         21   -1    0    0  501  503 -0.00000000000E+00 -0.00000000000E+00 -0.10776392423E+03  0.10776392423E+03  0.00000000000E+00 0.  1.
          6    2    1    2  501    0 -0.21645103269E+02  0.80866467264E+02  0.78468415235E+01  0.19093147169E+03  0.17142157956E+03 0.  0.
         24    2    3    3    0    0  0.14220450276E+02  0.63356692151E+02 -0.53930624052E+02  0.11723292755E+03  0.81355733943E+02 0.  0.
         -6    2    1    2    0  502  0.21645103269E+02 -0.80866467264E+02  0.55670725409E+03  0.58915047238E+03  0.17368769765E+03 0.  0.
        -24    2    5    5    0    0 -0.22364227949E+02  0.60657169332E+01  0.16152474864E+03  0.18210584522E+03  0.80841467233E+02 0.  0.
          5    1    3    3  501    0 -0.35865553545E+02  0.17509775112E+02  0.61777465576E+02  0.73698544141E+02  0.47000000000E+01 0. -1.
        -11    1    4    4    0    0 -0.33311643295E+02  0.23465492944E+02 -0.30524508867E+02  0.50912086774E+02  0.00000000000E+00 0.  1.
         12    1    4    4    0    0  0.47532093571E+02  0.39891199207E+02 -0.23406115186E+02  0.66320840778E+02  0.00000000000E+00 0. -1.
         -5    1    5    5    0  502  0.44009331218E+02 -0.86932184197E+02  0.39518250545E+03  0.40704462716E+03  0.47000000000E+01 0.  1.
         11    1    6    6    0    0 -0.29057252953E+02  0.37698160654E+00  0.16843881431E+03  0.17092717815E+03  0.00000000000E+00 0. -1.
        -12    1    6    6    0    0  0.66930250041E+01  0.56887353267E+01 -0.69140656675E+01  0.11178667066E+02  0.00000000000E+00 0.  1.
</event>
<event>
12    1  0.1594973E-001  0.2696226E+03  0.7818608E-02  0.1101901E+00
         21   -1    0    0  503  502  0.00000000000E+00  0.00000000000E+00  0.34719985552E+03  0.34719985552E+03  0.00000000000E+00 0.  1.
         21   -1    0    0  501  503 -0.00000000000E+00 -0.00000000000E+00 -0.20738544630E+03  0.20738544630E+03  0.00000000000E+00 0.  1.
          6    2    1    2  501    0  0.16086938204E+03  0.12522654882E+03  0.61248159473E+02  0.27374900111E+03  0.17212359502E+03 0.  0.
         24    2    3    3    0    0  0.15592823036E+03  0.44630032287E+02  0.64504235115E+02  0.19279898267E+03  0.81885276859E+02 0.  0.
         -6    2    1    2    0  502 -0.16086938204E+03 -0.12522654882E+03  0.78566249745E+02  0.28083630070E+03  0.17645318242E+03 0.  0.
        -24    2    5    5    0    0 -0.59016356090E+02 -0.10792954643E+02  0.79341246791E+02  0.12756602638E+03  0.79866385216E+02 0.  0.
          5    1    3    3  501    0  0.49411516841E+01  0.80596516530E+02 -0.32560756414E+01  0.80950018439E+02  0.47000000000E+01 0. -1.
        -11    1    4    4    0    0  0.69275276456E+02  0.40326164352E+02 -0.68724371331E+01  0.80451810741E+02  0.00000000000E+00 0.  1.
         12    1    4    4    0    0  0.86652953903E+02  0.43038679350E+01  0.71376672248E+02  0.11234717193E+03  0.00000000000E+00 0. -1.
         -5    1    5    5    0  502 -0.10185302595E+03 -0.11443359417E+03 -0.77499704567E+00  0.15327027433E+03  0.47000000000E+01 0.  1.
         13    1    6    6    0    0  0.24003108807E+01 -0.26833620090E+02  0.51769018828E+02  0.58359540522E+02  0.00000000000E+00 0. -1.
        -14    1    6    6    0    0 -0.61416666970E+02  0.16040665447E+02  0.27572227962E+02  0.69206485856E+02  0.00000000000E+00 0.  1.
</event>
<event>
12    1  0.1594973E-001  0.1804393E+03  0.7818608E-02  0.1167411E+00
         21   -1    0    0  501  502  0.00000000000E+00  0.00000000000E+00  0.33503620592E+03  0.33503620592E+03  0.00000000000E+00 0. -1.
         21   -1    0    0  502  503 -0.00000000000E+00 -0.00000000000E+00 -0.10194838642E+03  0.10194838642E+03  0.00000000000E+00 0. -1.
         -6    2    1    2    0  503  0.52892826248E+02 -0.56603763531E+00  0.68965730247E+02  0.19316991832E+03  0.17251195300E+03 0.  0.
        -24    2    3    3    0    0  0.26720781565E+02  0.23340706432E+02  0.10861604787E+03  0.13977754038E+03  0.80507926284E+02 0.  0.
          6    2    1    2  501    0 -0.52892826248E+02  0.56603763531E+00  0.16412208925E+03  0.24381467402E+03  0.17237042559E+03 0.  0.
         24    2    5    5    0    0 -0.66913930379E+02  0.57500080647E+02  0.86406104729E+02  0.14634703393E+03  0.78534744234E+02 0.  0.
          5    1    5    5  501    0  0.14021104131E+02 -0.56934043011E+02  0.77715984520E+02  0.97467640089E+02  0.47000000000E+01 0. -1.
        -13    1    6    6    0    0 -0.49848501377E+02  0.63903815222E+02  0.96091191955E+02  0.12570635569E+03  0.00000000000E+00 0.  1.
         14    1    6    6    0    0 -0.17065429003E+02 -0.64037345749E+01 -0.96850872263E+01  0.20640678238E+02  0.00000000000E+00 0. -1.
         -5    1    3    3    0  503  0.26172044683E+02 -0.23906744068E+02 -0.39650317624E+02  0.53392377943E+02  0.47000000000E+01 0.  1.
         11    1    4    4    0    0  0.36935554263E+01  0.43696732953E+02  0.24522308174E+02  0.50243312198E+02  0.00000000000E+00 0. -1.
        -12    1    4    4    0    0  0.23027226139E+02 -0.20356026521E+02  0.84093739697E+02  0.89534228179E+02  0.00000000000E+00 0.  1.
</event>
<event>
12    1  0.1594973E-001  0.2502356E+03  0.7818608E-02  0.1113692E+00
         21   -1    0    0  501  502  0.00000000000E+00  0.00000000000E+00  0.96723027162E+03  0.96723027162E+03  0.00000000000E+00 0. -1.
         21   -1    0    0  502  503 -0.00000000000E+00 -0.00000000000E+00 -0.75103297366E+02  0.75103297366E+02  0.00000000000E+00 0.  1.
         -6    2    1    2    0  503  0.16396606259E+03  0.72181941229E+02  0.24194430423E+03  0.34565908449E+03  0.16984714899E+03 0.  0.
        -24    2    3    3    0    0  0.40938348776E+02  0.82560915777E+02  0.14162843812E+03  0.18650851279E+03  0.78959215069E+02 0.  0.
          6    2    1    2  501    0 -0.16396606259E+03 -0.72181941229E+02  0.65018267003E+03  0.69667448450E+03  0.17470755743E+03 0.  0.
         24    2    5    5    0    0 -0.11275432852E+03  0.22303424180E+02  0.30242615615E+03  0.33265963737E+03  0.77394270343E+02 0.  0.
          5    1    5    5  501    0 -0.51211734068E+02 -0.94485365409E+02  0.34775651388E+03  0.36401484713E+03  0.47000000000E+01 0. -1.
        -11    1    6    6    0    0 -0.64282083268E+02  0.22195485259E+02  0.79935494992E+02  0.10495003170E+03  0.00000000000E+00 0.  1.
         12    1    6    6    0    0 -0.48472245256E+02  0.10793892119E+00  0.22249066115E+03  0.22770960566E+03  0.00000000000E+00 0. -1.
         -5    1    3    3    0  503  0.12302771382E+03 -0.10378974549E+02  0.10031586611E+03  0.15915057170E+03  0.47000000000E+01 0.  1.
         11    1    4    4    0    0  0.54707639715E+02  0.76150590703E+02  0.14327671289E+03  0.17123099826E+03  0.00000000000E+00 0. -1.
        -12    1    4    4    0    0 -0.13769290939E+02  0.64103250739E+01 -0.16482747723E+01  0.15277514531E+02  0.00000000000E+00 0.  1.
</event>
<event>
12    1  0.1594973E-001  0.1948659E+03  0.7818608E-02  0.1154368E+00
         21   -1    0    0  503  502  0.00000000000E+00  0.00000000000E+00  0.77434036592E+02  0.77434036592E+02  0.00000000000E+00 0. -1.
         21   -1    0    0  501  503 -0.00000000000E+00 -0.00000000000E+00 -0.69024567821E+03  0.69024567821E+03  0.00000000000E+00 0. -1.
          6    2    1    2  501    0  0.46403980223E+02 -0.74582295594E+02 -0.51484059994E+03  0.55048483847E+03  0.17394500809E+03 0.  0.
         24    2    3    3    0    0 -0.38560448083E+02 -0.45477336400E+02 -0.32051051396E+03  0.33635327834E+03  0.82773437812E+02 0.  0.
         -6    2    1    2    0  502 -0.46403980223E+02  0.74582295594E+02 -0.97971041671E+02  0.21719487633E+03  0.17279884577E+03 0.  0.
        -24    2    5    5    0    0 -0.14238612940E+02  0.93184946302E+02 -0.12115669873E+03  0.17314565205E+03  0.80089318030E+02 0.  0.
          5    1    3    3  501    0  0.84964428307E+02 -0.29104959194E+02 -0.19433008598E+03  0.21413156013E+03  0.47000000000E+01 0. -1.
        -13    1    4    4    0    0 -0.26193907444E+02  0.20374019962E+02 -0.13796079028E+03  0.14189574035E+03  0.00000000000E+00 0.  1.
         14    1    4    4    0    0 -0.12366540640E+02 -0.65851356363E+02 -0.18254972368E+03  0.19445753798E+03  0.00000000000E+00 0. -1.
         -5    1    5    5    0  502 -0.32165367284E+02 -0.18602650708E+02  0.23185657058E+02  0.44049224273E+02  0.47000000000E+01 0.  1.
         13    1    6    6    0    0  0.12313431395E+02  0.96130143171E+02 -0.97244320380E+02  0.13729196213E+03  0.00000000000E+00 0. -1.
        -14    1    6    6    0    0 -0.26552044335E+02 -0.29451968693E+01 -0.23912378349E+02  0.35853689925E+02  0.00000000000E+00 0.  1.
</event>
<event>
12    1  0.1594973E-001  0.2426885E+03  0.7818608E-02  0.1118407E+00
         21   -1    0    0  503  502  0.00000000000E+00  0.00000000000E+00  0.10279373743E+03  0.10279373743E+03  0.00000000000E+00 0. -1.
         21   -1    0    0  501  503 -0.00000000000E+00 -0.00000000000E+00 -0.77604226065E+03  0.77604226065E+03  0.00000000000E+00 0. -1.
          6    2    1    2  501    0  0.13589188099E+03  0.10570854235E+03 -0.56569106434E+03  0.61555186727E+03  0.17104625627E+03 0.  0.
         24    2    3    3    0    0  0.42039272413E+02 -0.14097479087E+02 -0.21780000129E+03  0.23579921532E+03  0.78729854857E+02 0.  0.
         -6    2    1    2    0  502 -0.13589188099E+03 -0.10570854235E+03 -0.10755745888E+03  0.26328413081E+03  0.16765747024E+03 0.  0.
        -24    2    5    5    0    0 -0.12725624459E+03 -0.25040739632E+02 -0.99692488828E+02  0.18163967989E+03  0.78950557652E+02 0.  0.
          5    1    3    3  501    0  0.93852608577E+02  0.11980602144E+03 -0.34789106305E+03  0.37975265195E+03  0.47000000000E+01 0. -1.
        -13    1    4    4    0    0 -0.10966809474E+02  0.19659236427E+02 -0.97605477849E+02  0.10016778820E+03  0.00000000000E+00 0.  1.
         14    1    4    4    0    0  0.53006081887E+02 -0.33756715514E+02 -0.12019452344E+03  0.13563142712E+03  0.00000000000E+00 0. -1.
         -5    1    5    5    0  502 -0.86356364052E+01 -0.80667802721E+02 -0.78649700568E+01  0.81644450920E+02  0.47000000000E+01 0.  1.
         11    1    6    6    0    0 -0.97041411424E+02 -0.43676708492E+02 -0.43057198700E+02  0.11479813916E+03  0.00000000000E+00 0. -1.
        -12    1    6    6    0    0 -0.30214833162E+02  0.18635968860E+02 -0.56635290127E+02  0.66841540722E+02  0.00000000000E+00 0.  1.
</event>
<event>
12    1  0.1594973E-001  0.2146290E+03  0.7818608E-02  0.1138003E+00
         21   -1    0    0  501  502  0.00000000000E+00  0.00000000000E+00  0.35028739283E+03  0.35028739283E+03  0.00000000000E+00 0.  1.
         21   -1    0    0  502  503 -0.00000000000E+00 -0.00000000000E+00 -0.19566915793E+03  0.19566915793E+03  0.00000000000E+00 0.  1.
         -6    2    1    2    0  503  0.41975907445E+02  0.12119623146E+03  0.23379074582E+03  0.31719057090E+03  0.17175925626E+03 0.  0.
        -24    2    3    3    0    0  0.64069308566E+02  0.10154116084E+03  0.91348914525E+02  0.17163575141E+03  0.81845728862E+02 0.  0.
          6    2    1    2  501    0 -0.41975907445E+02 -0.12119623146E+03 -0.79172510920E+02  0.22876597986E+03  0.17209033596E+03 0.  0.
         24    2    5    5    0    0  0.43842714389E+02 -0.60276946038E+02 -0.47364781480E+02  0.11872136690E+03  0.79346371086E+02 0.  0.
          5    1    5    5  501    0 -0.85818621834E+02 -0.60919285421E+02 -0.31807729440E+02  0.11004461296E+03  0.47000000000E+01 0. -1.
        -13    1    6    6    0    0 -0.17880420650E+01 -0.40967151031E+02  0.10710194440E+02  0.42381751061E+02  0.00000000000E+00 0.  1.
         14    1    6    6    0    0  0.45630756454E+02 -0.19309795006E+02 -0.58074975920E+02  0.76339615835E+02  0.00000000000E+00 0. -1.
         -5    1    3    3    0  503 -0.22093401120E+02  0.19655070622E+02  0.14244183130E+03  0.14555481949E+03  0.47000000000E+01 0.  1.
         11    1    4    4    0    0  0.28243375510E+02 -0.37830048105E+01  0.13291602615E+01  0.28526585015E+02  0.00000000000E+00 0. -1.
        -12    1    4    4    0    0  0.35825933055E+02  0.10532416565E+03  0.90019754264E+02  0.14310916639E+03  0.00000000000E+00 0.  1.
</event>
<event>
12    1  0.1594973E-001  0.2157059E+03  0.7818608E-02  0.1137763E+00
         21   -1    0    0  503  502  0.00000000000E+00  0.00000000000E+00  0.20403399065E+03  0.20403399065E+03  0.00000000000E+00 0.  1.
         21   -1    0    0  501  503 -0.00000000000E+00 -0.00000000000E+00 -0.41671420508E+03  0.41671420508E+03  0.00000000000E+00 0.  1.
          6    2    1    2  501    0 -0.12782210391E+03  0.12130780172E+02 -0.31665398078E+03  0.38129134542E+03  0.16919722358E+03 0.  0.
         24    2    3    3    0    0 -0.13147458644E+03  0.11340096321E+01 -0.14982515423E+03  0.21399455238E+03  0.77841112218E+02 0.  0.
         -6    2    1    2    0  502  0.12782210391E+03 -0.12130780172E+02  0.10397376635E+03  0.23945685031E+03  0.17333030028E+03 0.  0.
        -24    2    5    5    0    0  0.27200078784E+02 -0.21065969481E+01 -0.13752508466E+02  0.84193068400E+02  0.78454185618E+02 0.  0.
          5    1    3    3  501    0  0.36524825264E+01  0.10996770540E+02 -0.16682882655E+03  0.16729679303E+03  0.47000000000E+01 0. -1.
        -11    1    4    4    0    0 -0.33663171175E+02  0.35462673884E+02 -0.53673848806E+02  0.72606421053E+02  0.00000000000E+00 0.  1.
         12    1    4    4    0    0 -0.97811415266E+02 -0.34328664252E+02 -0.96151305428E+02  0.14138813133E+03  0.00000000000E+00 0. -1.
         -5    1    5    5    0  502  0.10062202513E+03 -0.10024183224E+02  0.11772627481E+03  0.15526378191E+03  0.47000000000E+01 0.  1.
         13    1    6    6    0    0 -0.32396819001E+01  0.29200254020E+02  0.13906416011E+02  0.32504442464E+02  0.00000000000E+00 0. -1.
        -14    1    6    6    0    0  0.30439760684E+02 -0.31306850968E+02 -0.27658924477E+02  0.51688625937E+02  0.00000000000E+00 0.  1.
</event>
<event>
12    1  0.1594973E-001  0.1940168E+03  0.7818608E-02  0.1155197E+00
         21   -1    0    0  501  502  0.00000000000E+00  0.00000000000E+00  0.21950470609E+03  0.21950470609E+03  0.00000000000E+00 0. -1.
         21   -1    0    0  502  503 -0.00000000000E+00 -0.00000000000E+00 -0.43427498794E+03  0.43427498794E+03  0.00000000000E+00 0. -1.
         -6    2    1    2    0  503  0.85028067499E+02 -0.13565548633E+02  0.14765033015E+03  0.24269428008E+03  0.17229653861E+03 0.  0.
        -24    2    3    3    0    0 -0.22282703573E+02  0.63454017683E+01  0.65433919598E+02  0.10596946266E+03  0.80069633324E+02 0.  0.
          6    2    1    2  501    0 -0.85028067499E+02  0.13565548633E+02 -0.36242061200E+03  0.41108541395E+03  0.17386408825E+03 0.  0.
         24    2    5    5    0    0 -0.11568282709E+03  0.13031166891E+02 -0.19194674364E+03  0.23781271083E+03  0.78479330057E+02 0.  0.
          5    1    5    5  501    0  0.30654759591E+02  0.53438174145E+00 -0.17047386837E+03  0.17327270312E+03  0.47000000000E+01 0. -1.
        -11    1    6    6    0    0 -0.24940467260E+02  0.34002262722E+01  0.11930825722E+00  0.25171465597E+02  0.00000000000E+00 0.  1.
         12    1    6    6    0    0 -0.90742359830E+02  0.96309406190E+01 -0.19206605189E+03  0.21264124523E+03  0.00000000000E+00 0. -1.
         -5    1    3    3    0  503  0.10731077107E+03 -0.19910950401E+02  0.82216410554E+02  0.13672481742E+03  0.47000000000E+01 0.  1.
         11    1    4    4    0    0 -0.44601154706E+02  0.16531782798E+02  0.66089948865E+02  0.81427539472E+02  0.00000000000E+00 0. -1.
        -12    1    4    4    0    0  0.22318451133E+02 -0.10186381030E+02 -0.65602926625E+00  0.24541923190E+02  0.00000000000E+00 0.  1.
</event>
<event>
12    1  0.1594973E-001  0.1788675E+03  0.7818608E-02  0.1168958E+00
         21   -1    0    0  503  502  0.00000000000E+00  0.00000000000E+00  0.53213621898E+03  0.53213621898E+03  0.00000000000E+00 0.  1.
         21   -1    0    0  501  503 -0.00000000000E+00 -0.00000000000E+00 -0.73150425529E+02  0.73150425529E+02  0.00000000000E+00 0.  1.
          6    2    1    2  501    0  0.42006487761E+02 -0.21528165745E+02  0.10128899772E+03  0.20536091544E+03  0.17229520480E+03 0.  0.
         24    2    3    3    0    0 -0.18054536769E+02  0.29682147294E+02  0.10524034392E+02  0.84985704548E+02  0.76842816917E+02 0.  0.
         -6    2    1    2    0  502 -0.42006487761E+02  0.21528165745E+02  0.35769679573E+03  0.39992572907E+03  0.17252705342E+03 0.  0.
        -24    2    5    5    0    0 -0.84719046141E+02  0.49017399804E+02  0.23314081000E+03  0.26532890810E+03  0.80403792981E+02 0.  0.
          5    1    3    3  501    0  0.60061024529E+02 -0.51210313039E+02  0.90764963328E+02  0.12037521089E+03  0.47000000000E+01 0. -1.
        -13    1    4    4    0    0 -0.29012117348E+02 -0.66085148828E+00  0.34285868045E+02  0.44918375141E+02  0.00000000000E+00 0.  1.
         14    1    4    4    0    0  0.10957580579E+02  0.30342998782E+02 -0.23761833653E+02  0.40067329407E+02  0.00000000000E+00 0. -1.
         -5    1    5    5    0  502  0.42712558381E+02 -0.27489234060E+02  0.12455598573E+03  0.13459682096E+03  0.47000000000E+01 0.  1.
         11    1    6    6    0    0 -0.59156617975E+02  0.62085082088E+01  0.57433155915E+02  0.82683846202E+02  0.00000000000E+00 0. -1.
        -12    1    6    6    0    0 -0.25562428167E+02  0.42808891596E+02  0.17570765408E+03  0.18264506190E+03  0.00000000000E+00 0.  1.
</event>
<event>
12    1  0.1594973E-001  0.1921369E+03  0.7818608E-02  0.1156892E+00
         21   -1    0    0  501  502  0.00000000000E+00  0.00000000000E+00  0.76018913119E+03  0.76018913119E+03  0.00000000000E+00 0.  1.
         21   -1    0    0  502  503 -0.00000000000E+00 -0.00000000000E+00 -0.51868275487E+02  0.51868275487E+02  0.00000000000E+00 0.  1.
         -6    2    1    2    0  503 -0.61313099629E+02  0.58506775862E+02  0.24712184027E+03  0.31302680179E+03  0.17243617860E+03 0.  0.
        -24    2    3    3    0    0 -0.18315604872E+02  0.87279159562E+02  0.99229643578E+02  0.15627595981E+03  0.81378992211E+02 0.  0.
          6    2    1    2  501    0  0.61313099629E+02 -0.58506775862E+02  0.46119901543E+03  0.49903060489E+03  0.17071811202E+03 0.  0.
         24    2    5    5    0    0 -0.18742487008E+02 -0.12205326365E+01  0.14136333689E+03  0.16435529674E+03  0.81708628864E+02 0.  0.
          5    1    5    5  501    0  0.80055586637E+02 -0.57286243226E+02  0.31983567855E+03  0.33467530815E+03  0.47000000000E+01 0. -1.
        -11    1    6    6    0    0  0.11843264186E+02 -0.35670741716E+02  0.68983329485E+02  0.78558032486E+02  0.00000000000E+00 0.  1.
         12    1    6    6    0    0 -0.30585751194E+02  0.34450209079E+02  0.72380007402E+02  0.85797264253E+02  0.00000000000E+00 0. -1.
         -5    1    3    3    0  503 -0.42997494758E+02 -0.28772383700E+02  0.14789219669E+03  0.15675084198E+03  0.47000000000E+01 0.  1.
         11    1    4    4    0    0 -0.50511713063E+01 -0.97904524509E+01  0.40673052197E+02  0.42138633886E+02  0.00000000000E+00 0. -1.
        -12    1    4    4    0    0 -0.13264433565E+02  0.97069612013E+02  0.58556591380E+02  0.11413732592E+03  0.00000000000E+00 0.  1.
</event>
<event>
12    1  0.1594973E-001  0.2616673E+03  0.7818608E-02  0.1106980E+00
         21   -1    0    0  501  502  0.00000000000E+00  0.00000000000E+00  0.81385374309E+03  0.81385374309E+03  0.00000000000E+00 0.  1.
         21   -1    0    0  502  503 -0.00000000000E+00 -0.00000000000E+00 -0.14969264696E+03  0.14969264696E+03  0.00000000000E+00 0. -1.
         -6    2    1    2    0  503 -0.83797829302E+02  0.17881550151E+03  0.70248343312E+01  0.25622904223E+03  0.16311625918E+03 0.  0.
        -24    2    3    3    0    0  0.10124192480E+02  0.11728249319E+03 -0.98144832113E+01  0.14259229683E+03  0.79865866012E+02 0.  0.
          6    2    1    2  501    0  0.83797829302E+02 -0.17881550151E+03  0.65713626180E+03  0.70731734782E+03  0.17167616077E+03 0.  0.
         24    2    5    5    0    0 -0.22416467730E+01 -0.15004026185E+03  0.39050072912E+03  0.42563063682E+03  0.78444339553E+02 0.  0.
          5    1    5    5  501    0  0.86039476075E+02 -0.28775239662E+02  0.26663553269E+03  0.28168671100E+03  0.47000000000E+01 0. -1.
        -13    1    6    6    0    0 -0.35221333882E+02 -0.95670048932E+02  0.28207808700E+03  0.29993557273E+03  0.00000000000E+00 0.  1.
         14    1    6    6    0    0  0.32979687109E+02 -0.54370212918E+02  0.10842264211E+03  0.12569506409E+03  0.00000000000E+00 0. -1.
         -5    1    3    3    0  503 -0.93922021782E+02  0.61533008326E+02  0.16839317542E+02  0.11363674540E+03  0.47000000000E+01 0.  1.
         13    1    4    4    0    0  0.13701300590E+02  0.24959300585E+02 -0.36623078354E+02  0.46389030941E+02  0.00000000000E+00 0. -1.
        -14    1    4    4    0    0 -0.35771081101E+01  0.92323192601E+02  0.26808595143E+02  0.96203265890E+02  0.00000000000E+00 0.  1.
</event>
<event>
12    1  0.1594973E-001  0.1744584E+03  0.7818608E-02  0.1174067E+00
         21   -1    0    0  503  502  0.00000000000E+00  0.00000000000E+00  0.18347094508E+03  0.18347094508E+03  0.00000000000E+00 0.  1.
         21   -1    0    0  501  503 -0.00000000000E+00 -0.00000000000E+00 -0.25812836518E+04  0.25812836518E+04  0.00000000000E+00 0.  1.
          6    2    1    2  501    0  0.77230046876E+01  0.27336165563E+02 -0.25376156572E+04  0.25436055028E+04  0.17213024013E+03 0.  0.
         24    2    3    3    0    0  0.10766405779E+02  0.23283637733E+02 -0.25347326274E+04  0.25361163685E+04  0.79741450800E+02 0.  0.
         -6    2    1    2    0  502 -0.77230046876E+01 -0.27336165563E+02  0.13980295045E+03  0.22114909408E+03  0.16898267991E+03 0.  0.
        -24    2    5    5    0    0  0.47352550376E+02 -0.49901283358E+02  0.59257260103E+02  0.12088843609E+03  0.79813463767E+02 0.  0.
          5    1    3    3  501    0 -0.30434010911E+01  0.40525278298E+01 -0.28830298236E+01  0.74891343276E+01  0.47000000000E+01 0. -1.
        -13    1    4    4    0    0 -0.23083052409E+02  0.31754309840E+02 -0.19148970900E+04  0.19152994619E+04  0.00000000000E+00 0.  1.
         14    1    4    4    0    0  0.33849458188E+02 -0.84706721069E+01 -0.61983553735E+03  0.62081690656E+03  0.00000000000E+00 0. -1.
         -5    1    5    5    0  502 -0.55075555063E+02  0.22565117795E+02  0.80545690348E+02  0.10026065799E+03  0.47000000000E+01 0.  1.
         13    1    6    6    0    0  0.18285667273E+02  0.19084831999E+02  0.17477580088E+01  0.26488697554E+02  0.00000000000E+00 0. -1.
        -14    1    6    6    0    0  0.29066883102E+02 -0.68986115356E+02  0.57509502094E+02  0.94399738540E+02  0.00000000000E+00 0.  1.
</event>
<event>
12    1  0.1594973E-001  0.1793993E+03  0.7818608E-02  0.1168548E+00
         21   -1    0    0  503  502  0.00000000000E+00  0.00000000000E+00  0.21045165380E+03  0.21045165380E+03  0.00000000000E+00 0. -1.
         21   -1    0    0  501  503 -0.00000000000E+00 -0.00000000000E+00 -0.17438093879E+03  0.17438093879E+03  0.00000000000E+00 0. -1.
          6    2    1    2  501    0 -0.68523549791E+01  0.47195246388E+02 -0.50309964310E+02  0.18632018450E+03  0.17294442053E+03 0.  0.
         24    2    3    3    0    0  0.23074325580E+02  0.88388895092E+02 -0.59631456214E+02  0.13434419856E+03  0.78405560013E+02 0.  0.
         -6    2    1    2    0  502  0.68523549791E+01 -0.47195246388E+02  0.86380679314E+02  0.19851240809E+03  0.17225332611E+03 0.  0.
        -24    2    5    5    0    0  0.12573606976E+02 -0.90888328659E+02  0.26719694052E+02  0.12419322265E+03  0.79317278209E+02 0.  0.
          5    1    3    3  501    0 -0.29926680559E+02 -0.41193648703E+02  0.93214919036E+01  0.51975985936E+02  0.47000000000E+01 0. -1.
        -13    1    4    4    0    0 -0.23290386559E+02  0.12614326878E+02  0.14663903166E+01  0.26527601648E+02  0.00000000000E+00 0.  1.
         14    1    4    4    0    0  0.46364712139E+02  0.75774568214E+02 -0.61097846530E+02  0.10781659691E+03  0.00000000000E+00 0. -1.
         -5    1    5    5    0  502 -0.57212519968E+01  0.43693082270E+02  0.59660985261E+02  0.74319185444E+02  0.47000000000E+01 0.  1.
         11    1    6    6    0    0 -0.23027377039E+02 -0.11430149770E+01  0.13571008191E+02  0.26753295869E+02  0.00000000000E+00 0. -1.
        -12    1    6    6    0    0  0.35600984015E+02 -0.89745313682E+02  0.13148685862E+02  0.97439926778E+02  0.00000000000E+00 0.  1.
</event>
<event>
12    1  0.1594973E-001  0.2380983E+03  0.7818608E-02  0.1121114E+00
         21   -1    0    0  501  502  0.00000000000E+00  0.00000000000E+00  0.97422131827E+02  0.97422131827E+02  0.00000000000E+00 0.  1.
         21   -1    0    0  502  503 -0.00000000000E+00 -0.00000000000E+00 -0.10496561744E+04  0.10496561744E+04  0.00000000000E+00 0. -1.
         -6    2    1    2    0  503 -0.14984797578E+03  0.69030569726E+02 -0.85910709061E+03  0.89141559274E+03  0.17128085253E+03 0.  0.
        -24    2    3    3    0    0 -0.77606247620E+02  0.15383888278E+02 -0.26197675424E+03  0.28752523652E+03  0.88201747079E+02 0.  0.
          6    2    1    2  501    0  0.14984797578E+03 -0.69030569726E+02 -0.93126951983E+02  0.25566271351E+03  0.17167165896E+03 0.  0.
         24    2    5    5    0    0  0.88977338055E+02  0.21354051590E+02 -0.18341240066E+02  0.12341443558E+03  0.80757412139E+02 0.  0.
          5    1    5    5  501    0  0.60870637728E+02 -0.90384621316E+02 -0.74785711917E+02  0.13224827793E+03  0.47000000000E+01 0. -1.
        -13    1    6    6    0    0  0.25477376916E+02  0.14916482262E+02  0.30948986535E+02  0.42771929406E+02  0.00000000000E+00 0.  1.
         14    1    6    6    0    0  0.63499961139E+02  0.64375693276E+01 -0.49290226600E+02  0.80642506172E+02  0.00000000000E+00 0. -1.
         -5    1    3    3    0  503 -0.72241728163E+02  0.53646681448E+02 -0.59713033637E+03  0.60389035622E+03  0.47000000000E+01 0.  1.
         11    1    4    4    0    0  0.26649652301E+01 -0.13963569400E+02 -0.12680812818E+03  0.12760244779E+03  0.00000000000E+00 0. -1.
        -12    1    4    4    0    0 -0.80271212851E+02  0.29347457678E+02 -0.13516862606E+03  0.15992278873E+03  0.00000000000E+00 0.  1.
</event>
<event>
12    1  0.1594973E-001  0.2268538E+03  0.7818608E-02  0.1129307E+00
         21   -1    0    0  503  502  0.00000000000E+00  0.00000000000E+00  0.26283386531E+03  0.26283386531E+03  0.00000000000E+00 0.  1.
         21   -1    0    0  501  503 -0.00000000000E+00 -0.00000000000E+00 -0.26898096809E+03  0.26898096809E+03  0.00000000000E+00 0.  1.
          6    2    1    2  501    0 -0.13709584264E+03 -0.43984834172E+02 -0.14370415654E+03  0.26651387406E+03  0.17218834093E+03 0.  0.
         24    2    3    3    0    0 -0.11875072665E+03 -0.19775886588E+02 -0.17193205022E+03  0.22478234635E+03  0.80459011717E+02 0.  0.
         -6    2    1    2    0  502  0.13709584264E+03  0.43984834172E+02  0.13755705377E+03  0.26530095933E+03  0.17530750205E+03 0.  0.
        -24    2    5    5    0    0  0.11733033536E+02  0.13190928306E+02  0.70259158749E+01  0.81658462877E+02  0.79417103952E+02 0.  0.
          5    1    3    3  501    0 -0.18345115995E+02 -0.24208947584E+02  0.28227893678E+02  0.41731527716E+02  0.47000000000E+01 0. -1.
        -13    1    4    4    0    0 -0.75581858625E+02  0.26753817352E+02 -0.10984724530E+03  0.13599559330E+03  0.00000000000E+00 0.  1.
         14    1    4    4    0    0 -0.43168868022E+02 -0.46529703941E+02 -0.62084804919E+02  0.88786753049E+02  0.00000000000E+00 0. -1.
         -5    1    5    5    0  502  0.12536280911E+03  0.30793905866E+02  0.13053113789E+03  0.18364249646E+03  0.47000000000E+01 0.  1.
         13    1    6    6    0    0  0.22442236962E+02  0.43093391125E+02  0.10494153316E+02  0.49707359740E+02  0.00000000000E+00 0. -1.
        -14    1    6    6    0    0 -0.10709203427E+02 -0.29902462819E+02 -0.34682374412E+01  0.31951103137E+02  0.00000000000E+00 0.  1.
</event>
<event>
12    1  0.1594973E-001  0.2543024E+03  0.7818608E-02  0.1111131E+00
         21   -1    0    0  501  502  0.00000000000E+00  0.00000000000E+00  0.68963626149E+02  0.68963626149E+02  0.00000000000E+00 0.  1.
         21   -1    0    0  502  503 -0.00000000000E+00 -0.00000000000E+00 -0.16562296039E+04  0.16562296039E+04  0.00000000000E+00 0. -1.
         -6    2    1    2    0  503  0.18289658326E+03 -0.69491831659E+01 -0.13694626619E+04  0.13928738912E+04  0.17655096471E+03 0.  0.
        -24    2    3    3    0    0  0.12664920800E+03  0.61079863825E+02 -0.79524329673E+03  0.81189051124E+03  0.83567515181E+02 0.  0.
          6    2    1    2  501    0 -0.18289658326E+03  0.69491831659E+01 -0.21780331585E+03  0.33231933885E+03  0.17175100367E+03 0.  0.
         24    2    5    5    0    0 -0.51911570795E+02 -0.28902903868E+02 -0.28532858996E+02  0.99321824967E+02  0.74300146958E+02 0.  0.
          5    1    5    5  501    0 -0.13098501247E+03  0.35852087034E+02 -0.18927045686E+03  0.23299751388E+03  0.47000000000E+01 0. -1.
        -11    1    6    6    0    0  0.54494567795E+01 -0.31066044041E+02 -0.27601808858E+02  0.41912474560E+02  0.00000000000E+00 0.  1.
         12    1    6    6    0    0 -0.57361027574E+02  0.21631401728E+01 -0.93105013816E+00  0.57409350407E+02  0.00000000000E+00 0. -1.
         -5    1    3    3    0  503  0.56247375264E+02 -0.68029046991E+02 -0.57421936514E+03  0.58098337993E+03  0.47000000000E+01 0.  1.
         11    1    4    4    0    0  0.63029088086E+02 -0.93777138705E+01 -0.42098029686E+03  0.42577578349E+03  0.00000000000E+00 0. -1.
        -12    1    4    4    0    0  0.63620119913E+02  0.70457577696E+02 -0.37426299987E+03  0.38611472775E+03  0.00000000000E+00 0.  1.
</event>
<event>
12    1  0.1594973E-001  0.1854117E+03  0.7818608E-02  0.1163186E+00
         21   -1    0    0  503  502  0.00000000000E+00  0.00000000000E+00  0.13029136607E+03  0.13029136607E+03  0.00000000000E+00 0.  1.
         21   -1    0    0  501  503 -0.00000000000E+00 -0.00000000000E+00 -0.41008075027E+03  0.41008075027E+03  0.00000000000E+00 0. -1.
          6    2    1    2  501    0 -0.65799436355E+02  0.19378187730E+02 -0.30242743566E+03  0.35358351101E+03  0.16986425590E+03 0.  0.
         24    2    3    3    0    0 -0.64864784535E+02 -0.16498564321E+02 -0.87477060520E+02  0.13560697859E+03  0.79103562678E+02 0.  0.
         -6    2    1    2    0  502  0.65799436355E+02 -0.19378187730E+02  0.22638051461E+02  0.18678860533E+03  0.17225684811E+03 0.  0.
        -24    2    5    5    0    0  0.67549503442E+02  0.37880366221E+02 -0.22154770984E+02  0.11391822947E+03  0.80552290889E+02 0.  0.
          5    1    3    3  501    0 -0.93465182019E+00  0.35876752051E+02 -0.21495037514E+03  0.21797653242E+03  0.47000000000E+01 0. -1.
        -11    1    4    4    0    0 -0.25801719746E+02  0.18047786262E+02 -0.75924876773E+02  0.82195122993E+02  0.00000000000E+00 0.  1.
         12    1    4    4    0    0 -0.39063064788E+02 -0.34546350583E+02 -0.11552183748E+02  0.53411855600E+02  0.00000000000E+00 0. -1.
         -5    1    5    5    0  502 -0.17500670874E+01 -0.57258553951E+02  0.44792822445E+02  0.72870375860E+02  0.47000000000E+01 0.  1.
         11    1    6    6    0    0  0.74367490737E+02  0.25206931664E+01 -0.66354498632E+01  0.74705466784E+02  0.00000000000E+00 0. -1.
        -12    1    6    6    0    0 -0.68179872946E+01  0.35359673054E+02 -0.15519321121E+02  0.39212762684E+02  0.00000000000E+00 0.  1.
</event>
<event>
12    1  0.1594973E-001  0.1885341E+03  0.7818608E-02  0.1159907E+00
         21   -1    0    0  503  502  0.00000000000E+00  0.00000000000E+00  0.68745606378E+03  0.68745606378E+03  0.00000000000E+00 0. -1.
         21   -1    0    0  501  503 -0.00000000000E+00 -0.00000000000E+00 -0.13646519357E+03  0.13646519357E+03  0.00000000000E+00 0.  1.
          6    2    1    2  501    0  0.27399277977E+02 -0.72163631522E+02 -0.49584878493E+02  0.19444818247E+03  0.17144423392E+03 0.  0.
         24    2    3    3    0    0  0.50560256247E+02 -0.61815529095E+02 -0.91696490440E+02  0.14506203058E+03  0.79102763589E+02 0.  0.
         -6    2    1    2    0  502 -0.27399277977E+02  0.72163631522E+02  0.60057574871E+03  0.62947307487E+03  0.17200817396E+03 0.  0.
        -24    2    5    5    0    0  0.32619614145E+02  0.80759793653E+02  0.24794502063E+03  0.27163696462E+03  0.68729351787E+02 0.  0.
          5    1    3    3  501    0 -0.23160978270E+02 -0.10348102426E+02  0.42111611948E+02  0.49386151896E+02  0.47000000000E+01 0. -1.
        -13    1    4    4    0    0  0.12924433973E+02  0.80242964799E+01 -0.56065783790E+02  0.58093049838E+02  0.00000000000E+00 0.  1.
         14    1    4    4    0    0  0.37635822274E+02 -0.69839825575E+02 -0.35630706650E+02  0.86968980740E+02  0.00000000000E+00 0. -1.
         -5    1    5    5    0  502 -0.60018892122E+02 -0.85961621310E+01  0.35263072808E+03  0.35783611025E+03  0.47000000000E+01 0.  1.
         13    1    6    6    0    0  0.31669678329E+02  0.84031321341E+01  0.41491502805E+02  0.52868950814E+02  0.00000000000E+00 0. -1.
        -14    1    6    6    0    0  0.94993581623E+00  0.72356661518E+02  0.20645351782E+03  0.21876801381E+03  0.00000000000E+00 0.  1.
</event>
<event>
12    1  0.1594973E-001  0.1973031E+03  0.7818608E-02  0.1152543E+00
         21   -1    0    0  503  502  0.00000000000E+00  0.00000000000E+00  0.12416293642E+03  0.12416293642E+03  0.00000000000E+00 0.  1.
         21   -1    0    0  501  503 -0.00000000000E+00 -0.00000000000E+00 -0.34247180841E+03  0.34247180841E+03  0.00000000000E+00 0. -1.
          6    2    1    2  501    0 -0.93964797236E+02 -0.19849867847E+01 -0.37679926383E+02  0.20086887032E+03  0.17347969022E+03 0.  0.
         24    2    3    3    0    0 -0.40481226765E+02  0.40479554293E+02  0.32255679935E+02  0.10300770033E+03  0.79327381173E+02 0.  0.
         -6    2    1    2    0  502  0.93964797236E+02  0.19849867847E+01 -0.18062894560E+03  0.26576587451E+03  0.17079625516E+03 0.  0.
        -24    2    5    5    0    0 -0.20501832624E+02 -0.24010148649E+02 -0.81649671236E+02  0.11215160704E+03  0.70103507546E+02 0.  0.
          5    1    3    3  501    0 -0.53483570472E+02 -0.42464541077E+02 -0.69935606318E+02  0.97861169983E+02  0.47000000000E+01 0. -1.
        -13    1    4    4    0    0 -0.24954349778E+02 -0.14531274964E+02 -0.11438718786E+02  0.31059971223E+02  0.00000000000E+00 0.  1.
         14    1    4    4    0    0 -0.15526876986E+02  0.55010829257E+02  0.43694398721E+02  0.71947729110E+02  0.00000000000E+00 0. -1.
         -5    1    5    5    0  502  0.11446662986E+03  0.25995135433E+02 -0.98979274361E+02  0.15361426747E+03  0.47000000000E+01 0.  1.
         11    1    6    6    0    0 -0.46111308799E+02 -0.14978427596E+02 -0.42303642965E+02  0.64344419342E+02  0.00000000000E+00 0. -1.
        -12    1    6    6    0    0  0.25609476175E+02 -0.90317210526E+01 -0.39346028271E+02  0.47807187700E+02  0.00000000000E+00 0.  1.
</event>
<event>
12    1  0.1594973E-001  0.1873786E+03  0.7818608E-02  0.1161290E+00
         21   -1    0    0  501  502  0.00000000000E+00  0.00000000000E+00  0.46678162906E+02  0.46678162906E+02  0.00000000000E+00 0. -1.
         21   -1    0    0  502  503 -0.00000000000E+00 -0.00000000000E+00 -0.87182023613E+03  0.87182023613E+03  0.00000000000E+00 0. -1.
         -6    2    1    2    0  503 -0.65683448292E+02 -0.22711003629E+02 -0.58625146414E+03  0.61488768378E+03  0.17194760655E+03 0.  0.
        -24    2    3    3    0    0 -0.47022893242E+02  0.31877006769E+02 -0.50899869501E+03  0.51835713146E+03  0.79919635645E+02 0.  0.
          6    2    1    2  501    0  0.65683448292E+02  0.22711003629E+02 -0.23889060908E+03  0.30361071525E+03  0.17401332777E+03 0.  0.
         24    2    5    5    0    0  0.10074974306E+03 -0.17557236680E+02 -0.14521955224E+03  0.19568697784E+03  0.82133474657E+02 0.  0.
          5    1    5    5  501    0 -0.35066294765E+02  0.40268240309E+02 -0.93671056841E+02  0.10792373741E+03  0.47000000000E+01 0. -1.
        -11    1    6    6    0    0  0.20929286788E+02 -0.22541199542E+02 -0.99884347989E+00  0.30775613894E+02  0.00000000000E+00 0.  1.
         12    1    6    6    0    0  0.79820456268E+02  0.49839628618E+01 -0.14422070876E+03  0.16491136395E+03  0.00000000000E+00 0. -1.
         -5    1    3    3    0  503 -0.18660555050E+02 -0.54588010398E+02 -0.77252769127E+02  0.96530552323E+02  0.47000000000E+01 0.  1.
         11    1    4    4    0    0  0.60420741533E+01  0.23607748649E+02 -0.34348535193E+03  0.34434868875E+03  0.00000000000E+00 0. -1.
        -12    1    4    4    0    0 -0.53064967395E+02  0.82692581203E+01 -0.16551334308E+03  0.17400844271E+03  0.00000000000E+00 0.  1.
</event>
<event>
12    1  0.1594973E-001  0.1734830E+03  0.7818608E-02  0.1174424E+00
         21   -1    0    0  503  502  0.00000000000E+00  0.00000000000E+00  0.17977442292E+02  0.17977442292E+02  0.00000000000E+00 0. -1.
         21   -1    0    0  501  503 -0.00000000000E+00 -0.00000000000E+00 -0.17898359657E+04  0.17898359657E+04  0.00000000000E+00 0. -1.
          6    2    1    2  501    0 -0.10422805137E+02  0.25590094914E+02 -0.11232352621E+04  0.11365534786E+04  0.17126840925E+03 0.  0.
         24    2    3    3    0    0 -0.69361867770E+02 -0.80103771887E+01 -0.73603051482E+03  0.74342193433E+03  0.77846122944E+02 0.  0.
         -6    2    1    2    0  502  0.10422805137E+02 -0.25590094914E+02 -0.64862326133E+03  0.67125992935E+03  0.17062904147E+03 0.  0.
        -24    2    5    5    0    0  0.64360035164E+02 -0.25464360539E+02 -0.27352025927E+03  0.29226970158E+03  0.76273183016E+02 0.  0.
          5    1    3    3  501    0  0.58939062632E+02  0.33600472103E+02 -0.38720474726E+03  0.39313154431E+03  0.47000000000E+01 0. -1.
        -11    1    4    4    0    0 -0.83448808816E+02  0.62738178470E+01 -0.55315686213E+03  0.55945114049E+03  0.00000000000E+00 0.  1.
         12    1    4    4    0    0  0.14086941047E+02 -0.14284195036E+02 -0.18287365269E+03  0.18397079383E+03  0.00000000000E+00 0. -1.
         -5    1    5    5    0  502 -0.53937230026E+02 -0.12573437510E+00 -0.37510300206E+03  0.37899022777E+03  0.47000000000E+01 0.  1.
         13    1    6    6    0    0  0.28304876481E+02  0.22902706386E+02 -0.58137423761E+02  0.68597813624E+02  0.00000000000E+00 0. -1.
        -14    1    6    6    0    0  0.36055158683E+02 -0.48367066925E+02 -0.21538283551E+03  0.22367188796E+03  0.00000000000E+00 0.  1.
</event>
<event>
12    1  0.1594973E-001  0.2416470E+03  0.7818608E-02  0.1119250E+00
         21   -1    0    0  501  502  0.00000000000E+00  0.00000000000E+00  0.34171433361E+04  0.34171433361E+04  0.00000000000E+00 0. -1.
         21   -1    0    0  502  503 -0.00000000000E+00 -0.00000000000E+00 -0.18112400795E+02  0.18112400795E+02  0.00000000000E+00 0.  1.
         -6    2    1    2    0  503  0.26134550520E+02  0.16639313359E+03  0.12361269135E+04  0.12588947622E+04  0.16863151072E+03 0.  0.
        -24    2    3    3    0    0  0.68100367702E+02  0.16263678665E+03  0.10729873545E+04  0.10903366248E+04  0.80272711185E+02 0.  0.
          6    2    1    2  501    0 -0.26134550520E+02 -0.16639313359E+03  0.21629040218E+04  0.21763609747E+04  0.17327318010E+03 0.  0.
         24    2    5    5    0    0  0.17781781921E+02 -0.48565197593E+02  0.49987471424E+03  0.50857782494E+03  0.78114684243E+02 0.  0.
          5    1    5    5  501    0 -0.43916332441E+02 -0.11782793600E+03  0.16630293076E+04  0.16677831498E+04  0.47000000000E+01 0. -1.
        -11    1    6    6    0    0  0.33578404176E+02 -0.50294407966E+02  0.47644493112E+03  0.48026743496E+03  0.00000000000E+00 0.  1.
         12    1    6    6    0    0 -0.15796622255E+02  0.17292103733E+01  0.23429783124E+02  0.28310389973E+02  0.00000000000E+00 0. -1.
         -5    1    3    3    0  503 -0.41965817182E+02  0.37563469436E+01  0.16313955903E+03  0.16855813738E+03  0.47000000000E+01 0.  1.
         11    1    4    4    0    0  0.25398438503E+02  0.30200638660E+01  0.22100488644E+03  0.22248002449E+03  0.00000000000E+00 0. -1.
        -12    1    4    4    0    0  0.42701929199E+02  0.15961672279E+03  0.85198246801E+03  0.86785660034E+03  0.00000000000E+00 0.  1.
</event>
<event>
12    1  0.1594973E-001  0.1906763E+03  0.7818608E-02  0.1158107E+00
         21   -1    0    0  503  502  0.00000000000E+00  0.00000000000E+00  0.14386884721E+03  0.14386884721E+03  0.00000000000E+00 0.  1.
         21   -1    0    0  501  503 -0.00000000000E+00 -0.00000000000E+00 -0.29394240602E+03  0.29394240602E+03  0.00000000000E+00 0. -1.
          6    2    1    2  501    0  0.74397242550E+02  0.34590302456E+02 -0.15868265478E+03  0.24806781192E+03  0.17212209521E+03 0.  0.
         24    2    3    3    0    0  0.16159269353E+02  0.29574424689E+01 -0.58243564386E+01  0.81394332551E+02  0.79506262593E+02 0.  0.
         -6    2    1    2    0  502 -0.74397242550E+02 -0.34590302456E+02  0.86090959752E+01  0.18974344131E+03  0.17087135003E+03 0.  0.
        -24    2    5    5    0    0 -0.58013296413E+02 -0.56979127959E+02 -0.49657844442E+02  0.12503780365E+03  0.80971521191E+02 0.  0.
          5    1    3    3  501    0  0.58237973197E+02  0.31632859987E+02 -0.15285829834E+03  0.16667347937E+03  0.47000000000E+01 0. -1.
        -11    1    4    4    0    0  0.41477349762E+02 -0.20529643378E+02  0.51355138748E+00  0.46282831974E+02  0.00000000000E+00 0.  1.
         12    1    4    4    0    0 -0.25318080409E+02  0.23487085847E+02 -0.63379078261E+01  0.35111500577E+02  0.00000000000E+00 0. -1.
         -5    1    5    5    0  502 -0.16383946137E+02  0.22388825503E+02  0.58266940418E+02  0.64705637653E+02  0.47000000000E+01 0.  1.
         13    1    6    6    0    0 -0.28804453349E+02 -0.75029225463E+02 -0.36472665920E+02  0.88257218207E+02  0.00000000000E+00 0. -1.
        -14    1    6    6    0    0 -0.29208843064E+02  0.18050097504E+02 -0.13185178523E+02  0.36780585446E+02  0.00000000000E+00 0.  1.
</event>
<event>
12    1  0.1594973E-001  0.2389831E+03  0.7818608E-02  0.1120562E+00
         21   -1    0    0  501  502  0.00000000000E+00  0.00000000000E+00  0.26342271466E+03  0.26342271466E+03  0.00000000000E+00 0. -1.
         21   -1    0    0  502  503 -0.00000000000E+00 -0.00000000000E+00 -0.26831809290E+03  0.26831809290E+03  0.00000000000E+00 0. -1.
         -6    2    1    2    0  503  0.15414465911E+03 -0.61145950359E+02 -0.11947907269E+03  0.26670808543E+03  0.17134337118E+03 0.  0.
        -24    2    3    3    0    0  0.11117780027E+03 -0.56305717990E+02 -0.15223269908E+03  0.21226114935E+03  0.79681639667E+02 0.  0.
          6    2    1    2  501    0 -0.15414465911E+03  0.61145950359E+02  0.11458369446E+03  0.26503272212E+03  0.17208578553E+03 0.  0.
         24    2    5    5    0    0 -0.21406096443E+02  0.99243028080E+01  0.35105441796E+01  0.84471048701E+02  0.81032841472E+02 0.  0.
          5    1    5    5  501    0 -0.13273856266E+03  0.51221647551E+02  0.11107315028E+03  0.18056167342E+03  0.47000000000E+01 0. -1.
        -13    1    6    6    0    0 -0.52363303647E+02  0.10389317322E+02  0.77377761262E+00  0.53389626474E+02  0.00000000000E+00 0.  1.
         14    1    6    6    0    0  0.30957207204E+02 -0.46501451430E+00  0.27367665670E+01  0.31081422227E+02  0.00000000000E+00 0. -1.
         -5    1    3    3    0  503  0.42966858837E+02 -0.48402323688E+01  0.32753626391E+02  0.54446936089E+02  0.47000000000E+01 0.  1.
         13    1    4    4    0    0  0.48878034841E+02 -0.67571587930E+02 -0.72934095480E+02  0.11078972908E+03  0.00000000000E+00 0. -1.
        -14    1    4    4    0    0  0.62299765430E+02  0.11265869940E+02 -0.79298603604E+02  0.10147142027E+03  0.00000000000E+00 0.  1.
</event>
<event>
12    1  0.1594973E-001  0.2297550E+03  0.7818608E-02  0.1126832E+00
         21   -1    0    0  503  502  0.00000000000E+00  0.00000000000E+00  0.40980454356E+03  0.40980454356E+03  0.00000000000E+00 0.  1.
         21   -1    0    0  501  503 -0.00000000000E+00 -0.00000000000E+00 -0.35508024543E+03  0.35508024543E+03  0.00000000000E+00 0. -1.
          6    2    1    2  501    0  0.51041291995E+02 -0.14425311943E+03 -0.27797550560E+03  0.36056249159E+03  0.17123303616E+03 0.  0.
         24    2    3    3    0    0  0.55924572904E+02 -0.47728713988E+02 -0.65222425836E+02  0.12683878670E+03  0.80178082953E+02 0.  0.
         -6    2    1    2    0  502 -0.51041291995E+02  0.14425311943E+03  0.33269980373E+03  0.40432229741E+03  0.17138606952E+03 0.  0.
        -24    2    5    5    0    0  0.37752425708E+02  0.55136161999E+02  0.15649826994E+03  0.18776923944E+03  0.79374660815E+02 0.  0.
          5    1    3    3  501    0 -0.48832809093E+01 -0.96524405439E+02 -0.21275307976E+03  0.23372370489E+03  0.47000000000E+01 0. -1.
        -13    1    4    4    0    0  0.23617384766E+02 -0.67058056580E+02 -0.40973990157E+02  0.82057490120E+02  0.00000000000E+00 0.  1.
         14    1    4    4    0    0  0.32307188138E+02  0.19329342592E+02 -0.24248435679E+02  0.44781296579E+02  0.00000000000E+00 0. -1.
         -5    1    5    5    0  502 -0.88793717702E+02  0.89116957428E+02  0.17620153379E+03  0.21655305797E+03  0.47000000000E+01 0.  1.
         13    1    6    6    0    0  0.23052989092E+02 -0.95869796836E+01  0.91600480300E+02  0.94942079589E+02  0.00000000000E+00 0. -1.
        -14    1    6    6    0    0  0.14699436615E+02  0.64723141682E+02  0.64897789638E+02  0.92827159851E+02  0.00000000000E+00 0.  1.
</event>
<event>
12    1  0.1594973E-001  0.1731833E+03  0.7818608E-02  0.1177319E+00
         21   -1    0    0  501  502  0.00000000000E+00  0.00000000000E+00  0.10057796462E+03  0.10057796462E+03  0.00000000000E+00 0. -1.
         21   -1    0    0  502  503 -0.00000000000E+00 -0.00000000000E+00 -0.51420787157E+03  0.51420787157E+03  0.00000000000E+00 0. -1.
         -6    2    1    2    0  503 -0.12238575844E+02  0.20070315141E+00 -0.41049596822E+03  0.44157422217E+03  0.16226839106E+03 0.  0.
        -24    2    3    3    0    0  0.47925603579E+02 -0.12798607498E+02 -0.30085127354E+03  0.31574592792E+03  0.81995941191E+02 0.  0.
          6    2    1    2  501    0  0.12238575844E+02 -0.20070315141E+00 -0.31339387320E+01  0.17321161402E+03  0.17275016249E+03 0.  0.
         24    2    5    5    0    0  0.11873512816E+02  0.24327964507E+02 -0.63989801148E+02  0.10742928510E+03  0.81936112201E+02 0.  0.
          5    1    5    5  501    0  0.36506302734E+00 -0.24528667658E+02  0.60855862416E+02  0.65782328923E+02  0.47000000000E+01 0. -1.
        -13    1    6    6    0    0 -0.16057021929E+02  0.39110069903E+02 -0.62926845565E+02  0.75810378009E+02  0.00000000000E+00 0.  1.
         14    1    6    6    0    0  0.27930534745E+02 -0.14782105396E+02 -0.10629555828E+01  0.31618907092E+02  0.00000000000E+00 0. -1.
         -5    1    3    3    0  503 -0.60164179422E+02  0.12999310649E+02 -0.10964469468E+03  0.12582829425E+03  0.47000000000E+01 0.  1.
         11    1    4    4    0    0  0.12139753342E+02  0.33739845733E+02 -0.90163969588E+02  0.97032428667E+02  0.00000000000E+00 0. -1.
        -12    1    4    4    0    0  0.35785850237E+02 -0.46538453231E+02 -0.21068730396E+03  0.21871349925E+03  0.00000000000E+00 0.  1.
</event>
<event>
12    1  0.1594973E-001  0.2688053E+03  0.7818608E-02  0.1101977E+00
         21   -1    0    0  503  502  0.00000000000E+00  0.00000000000E+00  0.49696660969E+03  0.49696660969E+03  0.00000000000E+00 0. -1.
         21   -1    0    0  501  503 -0.00000000000E+00 -0.00000000000E+00 -0.79935038226E+03  0.79935038226E+03  0.00000000000E+00 0. -1.
          6    2    1    2  501    0  0.52714386456E+02  0.19947366623E+03 -0.73746274974E+03  0.78489740198E+03  0.17217454610E+03 0.  0.
         24    2    3    3    0    0  0.92348950842E+02  0.15958896133E+03 -0.44557939514E+03  0.48761021579E+03  0.72289417418E+02 0.  0.
         -6    2    1    2    0  502 -0.52714386456E+02 -0.19947366623E+03  0.43507897717E+03  0.51141958997E+03  0.17230127848E+03 0.  0.
        -24    2    5    5    0    0 -0.47525410491E+02 -0.22472852650E+03  0.39887247047E+03  0.46672356591E+03  0.77266189288E+02 0.  0.
          5    1    3    3  501    0 -0.39634564385E+02  0.39884704892E+02 -0.29188335460E+03  0.29728718619E+03  0.47000000000E+01 0. -1.
        -13    1    4    4    0    0  0.35044623456E+01  0.76468462720E+01  0.12305365627E+00  0.84125297290E+01  0.00000000000E+00 0.  1.
         14    1    4    4    0    0  0.88844488496E+02  0.15194211506E+03 -0.44570244879E+03  0.47919768606E+03  0.00000000000E+00 0. -1.
         -5    1    5    5    0  502 -0.51889759647E+01  0.25254860275E+02  0.36206506699E+02  0.44696024056E+02  0.47000000000E+01 0.  1.
         11    1    6    6    0    0  0.48596298734E+01 -0.13271275409E+03  0.26141875333E+03  0.29321673842E+03  0.00000000000E+00 0. -1.
        -12    1    6    6    0    0 -0.52385040365E+02 -0.92015772415E+02  0.13745371714E+03  0.17350682749E+03  0.00000000000E+00 0.  1.
</event>
<event>
12    1  0.1594973E-001  0.2075395E+03  0.7818608E-02  0.1143548E+00
         21   -1    0    0  501  502  0.00000000000E+00  0.00000000000E+00  0.13757488798E+03  0.13757488798E+03  0.00000000000E+00 0.  1.
         21   -1    0    0  502  503 -0.00000000000E+00 -0.00000000000E+00 -0.40135458347E+03  0.40135458347E+03  0.00000000000E+00 0.  1.
         -6    2    1    2    0  503  0.85641105129E+02 -0.79353596153E+02 -0.25838280840E+03  0.33141264049E+03  0.17158458697E+03 0.  0.
        -24    2    3    3    0    0  0.42093188605E+02  0.50848795378E-01 -0.20953765301E+03  0.22841057198E+03  0.80582394163E+02 0.  0.
          6    2    1    2  501    0 -0.85641105129E+02  0.79353596153E+02 -0.53968870814E+01  0.20751683097E+03  0.17147220368E+03 0.  0.
         24    2    5    5    0    0 -0.63155032533E+02  0.34044427436E+02 -0.68000549336E+02  0.12689516665E+03  0.79565868525E+02 0.  0.
          5    1    5    5  501    0 -0.22486072596E+02  0.45309168717E+02  0.62603662254E+02  0.80621664323E+02  0.47000000000E+01 0. -1.
        -11    1    6    6    0    0 -0.65827388511E+02  0.41834841395E+02 -0.23242384382E+02  0.81385548253E+02  0.00000000000E+00 0.  1.
         12    1    6    6    0    0  0.26723559778E+01 -0.77904139585E+01 -0.44758164954E+02  0.45509618392E+02  0.00000000000E+00 0. -1.
         -5    1    3    3    0  503  0.43547916524E+02 -0.79404444949E+02 -0.48845155391E+02  0.10300206851E+03  0.47000000000E+01 0.  1.
         13    1    4    4    0    0 -0.23428027594E+02  0.82045478479E+01 -0.61148236509E+02  0.65994650620E+02  0.00000000000E+00 0. -1.
        -14    1    4    4    0    0  0.65521216199E+02 -0.81536990525E+01 -0.14838941651E+03  0.16241592136E+03  0.00000000000E+00 0.  1.
</event>
<event>
12    1  0.1594973E-001  0.2643992E+03  0.7818608E-02  0.1105020E+00
         21   -1    0    0  501  502  0.00000000000E+00  0.00000000000E+00  0.65340041401E+03  0.65340041401E+03  0.00000000000E+00 0. -1.
         21   -1    0    0  502  503 -0.00000000000E+00 -0.00000000000E+00 -0.11812728697E+03  0.11812728697E+03  0.00000000000E+00 0.  1.
         -6    2    1    2    0  503  0.19613668265E+03 -0.39383083727E+02  0.14377455561E+03  0.30096192543E+03  0.17287663855E+03 0.  0.
        -24    2    3    3    0    0  0.16883535675E+02 -0.78859166957E+01  0.23887029359E+02  0.82973689096E+02  0.77245073963E+02 0.  0.
          6    2    1    2  501    0 -0.19613668265E+03  0.39383083727E+02  0.39149857142E+03  0.47056577555E+03  0.16775098250E+03 0.  0.
         24    2    5    5    0    0 -0.40813542065E+02  0.37536442783E+02  0.10834892512E+03  0.14757274113E+03  0.83447555972E+02 0.  0.
          5    1    5    5  501    0 -0.15532314058E+03  0.18466409436E+01  0.28314964630E+03  0.32299303442E+03  0.47000000000E+01 0. -1.
        -11    1    6    6    0    0  0.14988701530E+02 -0.16372747105E+02  0.29861662860E+02  0.37208156768E+02  0.00000000000E+00 0.  1.
         12    1    6    6    0    0 -0.55802243595E+02  0.53909189888E+02  0.78487262261E+02  0.11036458436E+03  0.00000000000E+00 0. -1.
         -5    1    3    3    0  503  0.17925314697E+03 -0.31497167031E+02  0.11988752625E+03  0.21798823634E+03  0.47000000000E+01 0.  1.
         13    1    4    4    0    0  0.20573211325E+02  0.23626079152E+02  0.37141143013E+02  0.48589228689E+02  0.00000000000E+00 0. -1.
        -14    1    4    4    0    0 -0.36896756505E+01 -0.31511995848E+02 -0.13254113654E+02  0.34384460407E+02  0.00000000000E+00 0.  1.
</event>
<event>
12    1  0.1594973E-001  0.3088532E+03  0.7818608E-02  0.1081154E+00
         21   -1    0    0  503  502  0.00000000000E+00  0.00000000000E+00  0.53942271522E+03  0.53942271522E+03  0.00000000000E+00 0.  1.
         21   -1    0    0  501  503 -0.00000000000E+00 -0.00000000000E+00 -0.18756127459E+03  0.18756127459E+03  0.00000000000E+00 0. -1.
          6    2    1    2  501    0  0.22588004221E+03 -0.11638559086E+03  0.84786383518E+02  0.32027965144E+03  0.17556458946E+03 0.  0.
         24    2    3    3    0    0  0.61447159539E+02  0.37064812238E+01  0.36324565877E+01  0.10103474606E+03  0.80033329008E+02 0.  0.
         -6    2    1    2    0  502 -0.22588004221E+03  0.11638559086E+03  0.26707505711E+03  0.40670433836E+03  0.17179037659E+03 0.  0.
        -24    2    5    5    0    0 -0.23878638972E+03  0.13338083372E+03  0.24406492779E+03  0.37497157710E+03  0.78908858452E+02 0.  0.
          5    1    3    3  501    0  0.16443288267E+03 -0.12009207208E+03  0.81153926931E+02  0.21924490538E+03  0.47000000000E+01 0. -1.
        -13    1    4    4    0    0  0.23433136439E+02 -0.14367950232E+02  0.37857766842E+02  0.46784189503E+02  0.00000000000E+00 0.  1.
         14    1    4    4    0    0  0.38014023101E+02  0.18074431456E+02 -0.34225310254E+02  0.54250556557E+02  0.00000000000E+00 0. -1.
         -5    1    5    5    0  502  0.12906347506E+02 -0.16995242864E+02  0.23010129317E+02  0.31732761259E+02  0.47000000000E+01 0.  1.
         13    1    6    6    0    0 -0.12293157610E+03  0.11262253282E+03  0.13533607959E+03  0.21473672658E+03  0.00000000000E+00 0. -1.
        -14    1    6    6    0    0 -0.11585481361E+03  0.20758300904E+02  0.10872884820E+03  0.16023485053E+03  0.00000000000E+00 0.  1.
</event>
<event>
12    1  0.1594973E-001  0.1956920E+03  0.7818608E-02  0.1153570E+00
         21   -1    0    0  501  502  0.00000000000E+00  0.00000000000E+00  0.10893245677E+04  0.10893245677E+04  0.00000000000E+00 0.  1.
         21   -1    0    0  502  503 -0.00000000000E+00 -0.00000000000E+00 -0.62930113857E+02  0.62930113857E+02  0.00000000000E+00 0.  1.
         -6    2    1    2    0  503  0.46692621307E+02 -0.82235295231E+02  0.12914300563E+03  0.23391077304E+03  0.17056813646E+03 0.  0.
        -24    2    3    3    0    0 -0.23740591226E+01  0.86314013593E+00  0.10452922366E+03  0.13420712541E+03  0.84135680566E+02 0.  0.
          6    2    1    2  501    0 -0.46692621307E+02  0.82235295231E+02  0.89725144820E+03  0.91834390849E+03  0.17132579581E+03 0.  0.
         24    2    5    5    0    0 -0.15661561218E+02  0.85944524242E+02  0.33982328111E+03  0.36002058233E+03  0.80642492356E+02 0.  0.
          5    1    5    5  501    0 -0.31031060089E+02 -0.37092290117E+01  0.55742816709E+03  0.55832332616E+03  0.47000000000E+01 0. -1.
        -13    1    6    6    0    0 -0.12179313233E+02  0.47327404108E+01  0.18223587143E+03  0.18270371462E+03  0.00000000000E+00 0.  1.
         14    1    6    6    0    0 -0.34822479854E+01  0.81211783832E+02  0.15758740968E+03  0.17731686771E+03  0.00000000000E+00 0. -1.
         -5    1    3    3    0  503  0.49066680430E+02 -0.83098435367E+02  0.24613781967E+02  0.99703647634E+02  0.47000000000E+01 0.  1.
         13    1    4    4    0    0  0.31246132802E+00  0.11227559187E+02  0.11713254271E+03  0.11766982740E+03  0.00000000000E+00 0. -1.
        -14    1    4    4    0    0 -0.26865204506E+01 -0.10364419051E+02 -0.12603319053E+02  0.16537298013E+02  0.00000000000E+00 0.  1.
</event>
<event>
12    1  0.1594973E-001  0.2288028E+03  0.7818608E-02  0.1127498E+00
         21   -1    0    0  501  502  0.00000000000E+00  0.00000000000E+00  0.25931292300E+04  0.25931292300E+04  0.00000000000E+00 0.  1.
         21   -1    0    0  502  503 -0.00000000000E+00 -0.00000000000E+00 -0.21208116409E+02  0.21208116409E+02  0.00000000000E+00 0.  1.
         -6    2    1    2    0  503  0.14480013713E+03  0.50440610828E+02  0.99820450084E+03  0.10240748805E+04  0.16972271608E+03 0.  0.
        -24    2    3    3    0    0  0.19409924625E+02  0.55930453606E+02  0.35381856475E+03  0.36756275689E+03  0.80061493076E+02 0.  0.
          6    2    1    2  501    0 -0.14480013713E+03 -0.50440610828E+02  0.15737166127E+04  0.15902624659E+04  0.16982166655E+03 0.  0.
         24    2    5    5    0    0 -0.13714033900E+03  0.10032884091E+02  0.13045758442E+04  0.13142650757E+04  0.80414083039E+02 0.  0.
          5    1    5    5  501    0 -0.76597981255E+01 -0.60473494919E+02  0.26914076855E+03  0.27599739019E+03  0.47000000000E+01 0. -1.
        -11    1    6    6    0    0 -0.90300157272E+02 -0.91327491835E+01  0.10912603386E+04  0.10950281512E+04  0.00000000000E+00 0.  1.
         12    1    6    6    0    0 -0.46840181732E+02  0.19165633275E+02  0.21331550560E+03  0.21923692448E+03  0.00000000000E+00 0. -1.
         -5    1    3    3    0  503  0.12539021250E+03 -0.54898427785E+01  0.64438593608E+03  0.65651212357E+03  0.47000000000E+01 0.  1.
         13    1    4    4    0    0  0.24024136408E+02  0.22885936973E+01  0.24467301060E+03  0.24586028331E+03  0.00000000000E+00 0. -1.
        -14    1    4    4    0    0 -0.46142117833E+01  0.53641859909E+02  0.10914555415E+03  0.12170247358E+03  0.00000000000E+00 0.  1.
</event>
<event>
12    1  0.1594973E-001  0.3092247E+03  0.7818608E-02  0.1080726E+00
         21   -1    0    0  501  502  0.00000000000E+00  0.00000000000E+00  0.20050267939E+04  0.20050267939E+04  0.00000000000E+00 0. -1.
         21   -1    0    0  502  503 -0.00000000000E+00 -0.00000000000E+00 -0.64269414495E+02  0.64269414495E+02  0.00000000000E+00 0.  1.
         -6    2    1    2    0  503 -0.83100815202E+02  0.24292706051E+03  0.44464956031E+03  0.54156635240E+03  0.17222537661E+03 0.  0.
        -24    2    3    3    0    0 -0.11781298153E+03  0.15877502338E+03  0.35190025147E+03  0.41152395879E+03  0.80179642111E+02 0.  0.
          6    2    1    2  501    0  0.83100815202E+02 -0.24292706051E+03  0.14961078191E+04  0.15277298560E+04  0.17233863275E+03 0.  0.
         24    2    5    5    0    0  0.97089662012E+02 -0.18029454502E+03  0.83535857132E+03  0.86385473350E+03  0.80551427594E+02 0.  0.
          5    1    5    5  501    0 -0.13988846810E+02 -0.62632515495E+02  0.66074924782E+03  0.66387512254E+03  0.47000000000E+01 0. -1.
        -11    1    6    6    0    0  0.87601863306E+02 -0.18463441467E+03  0.82132391532E+03  0.84636689882E+03  0.00000000000E+00 0.  1.
         12    1    6    6    0    0  0.94877987064E+01  0.43398696586E+01  0.14034655992E+02  0.17487834679E+02  0.00000000000E+00 0. -1.
         -5    1    3    3    0  503  0.34712166326E+02  0.84152037130E+02  0.92749308841E+02  0.13004239361E+03  0.47000000000E+01 0.  1.
         11    1    4    4    0    0 -0.39053867516E+02  0.11637930160E+03  0.22432768053E+03  0.25571909327E+03  0.00000000000E+00 0. -1.
        -12    1    4    4    0    0 -0.78759114011E+02  0.42395721779E+02  0.12757257094E+03  0.15580486553E+03  0.00000000000E+00 0.  1.
</event>
<event>
12    1  0.1594973E-001  0.2082579E+03  0.7818608E-02  0.1144590E+00
         21   -1    0    0  503  502  0.00000000000E+00  0.00000000000E+00  0.23507201932E+03  0.23507201932E+03  0.00000000000E+00 0.  1.
         21   -1    0    0  501  503 -0.00000000000E+00 -0.00000000000E+00 -0.17747484281E+03  0.17747484281E+03  0.00000000000E+00 0.  1.
          6    2    1    2  501    0 -0.68826080062E+01  0.10137566669E+03  0.27808566878E+02  0.20216935558E+03  0.17255357387E+03 0.  0.
         24    2    3    3    0    0 -0.27317937078E+01  0.10146420403E+03  0.74603868534E+02  0.15495572031E+03  0.90239075023E+02 0.  0.
         -6    2    1    2    0  502  0.68826080062E+01 -0.10137566669E+03  0.29788609625E+02  0.21037750655E+03  0.18178816768E+03 0.  0.
        -24    2    5    5    0    0  0.26290771629E+02 -0.78114120012E+02 -0.49839958621E+02  0.12505121957E+03  0.79754408166E+02 0.  0.
          5    1    3    3  501    0 -0.41508142984E+01 -0.88537343610E-01 -0.46795301657E+02  0.47213635269E+02  0.47000000000E+01 0. -1.
        -11    1    4    4    0    0  0.10188524555E+02  0.74804856789E+02  0.87831616585E+00  0.75500622985E+02  0.00000000000E+00 0.  1.
         12    1    4    4    0    0 -0.12920318263E+02  0.26659347242E+02  0.73725552369E+02  0.79455097328E+02  0.00000000000E+00 0. -1.
         -5    1    5    5    0  502 -0.19408163623E+02 -0.23261546676E+02  0.79628568246E+02  0.85326286981E+02  0.47000000000E+01 0.  1.
         11    1    6    6    0    0  0.28662343241E+02  0.26875724489E+01 -0.30485701510E+02  0.41930072290E+02  0.00000000000E+00 0. -1.
        -12    1    6    6    0    0 -0.23715716117E+01 -0.80801692461E+02 -0.19354257112E+02  0.83121147278E+02  0.00000000000E+00 0.  1.
</event>
<event>
12    1  0.1594973E-001  0.1777617E+03  0.7818608E-02  0.1170207E+00
         21   -1    0    0  501  502  0.00000000000E+00  0.00000000000E+00  0.15770238295E+04  0.15770238295E+04  0.00000000000E+00 0. -1.
         21   -1    0    0  502  503 -0.00000000000E+00 -0.00000000000E+00 -0.13822852365E+03  0.13822852365E+03  0.00000000000E+00 0. -1.
         -6    2    1    2    0  503 -0.16255388945E+01 -0.50933463025E+02 -0.73712001359E+02  0.19243875792E+03  0.17030078206E+03 0.  0.
        -24    2    3    3    0    0 -0.65525258689E+02 -0.39826863895E+02 -0.24170039936E+02  0.11068897703E+03  0.76079696309E+02 0.  0.
          6    2    1    2  501    0  0.16255388945E+01  0.50933463025E+02  0.15125073072E+04  0.15228135952E+04  0.16936951144E+03 0.  0.
         24    2    5    5    0    0 -0.32064352764E+02 -0.29551171338E+02  0.95804572866E+03  0.96150929517E+03  0.68899289219E+02 0.  0.
          5    1    5    5  501    0  0.33689891659E+02  0.80484634362E+02  0.55446157851E+03  0.56130430001E+03  0.47000000000E+01 0. -1.
        -11    1    6    6    0    0  0.14845913035E+02 -0.41143529951E+00  0.48873662452E+03  0.48896222610E+03  0.00000000000E+00 0.  1.
         12    1    6    6    0    0 -0.46910265799E+02 -0.29139736038E+02  0.46930910414E+03  0.47254706907E+03  0.00000000000E+00 0. -1.
         -5    1    3    3    0  503  0.63899719794E+02 -0.11106599129E+02 -0.49541961423E+02  0.81749780890E+02  0.47000000000E+01 0.  1.
         11    1    4    4    0    0 -0.33842140539E+02 -0.47900126841E+02 -0.43215174746E+02  0.72850970865E+02  0.00000000000E+00 0. -1.
        -12    1    4    4    0    0 -0.31683118149E+02  0.80732629458E+01  0.19045134810E+02  0.37838006160E+02  0.00000000000E+00 0.  1.
</event>
<event>
12    1  0.1594973E-001  0.2068760E+03  0.7818608E-02  0.1144211E+00
         21   -1    0    0  503  502  0.00000000000E+00  0.00000000000E+00  0.24097191104E+03  0.24097191104E+03  0.00000000000E+00 0. -1.
         21   -1    0    0  501  503 -0.00000000000E+00 -0.00000000000E+00 -0.23907994099E+03  0.23907994099E+03  0.00000000000E+00 0.  1.
          6    2    1    2  501    0 -0.10874870296E+03 -0.29619411852E+02  0.12327499340E+03  0.24019458992E+03  0.17260685698E+03 0.  0.
         24    2    3    3    0    0 -0.73335134664E+02 -0.13234287635E+02  0.15415039684E+03  0.19021485750E+03  0.82862288288E+02 0.  0.
         -6    2    1    2    0  502  0.10874870296E+03  0.29619411852E+02 -0.12138302334E+03  0.23985726211E+03  0.17347644762E+03 0.  0.
        -24    2    5    5    0    0  0.67823460406E+02 -0.23220452041E+02 -0.69240323884E+01  0.10723042733E+03  0.79443131524E+02 0.  0.
          5    1    3    3  501    0 -0.35413568292E+02 -0.16385124217E+02 -0.30875403449E+02  0.49979732421E+02  0.47000000000E+01 0. -1.
        -13    1    4    4    0    0 -0.87027753873E+00  0.21184340521E+02  0.64971821031E+01  0.22175370157E+02  0.00000000000E+00 0.  1.
         14    1    4    4    0    0 -0.72464857125E+02 -0.34418628157E+02  0.14765321474E+03  0.16803948734E+03  0.00000000000E+00 0. -1.
         -5    1    5    5    0  502  0.40925242549E+02  0.52839863893E+02 -0.11445899095E+03  0.13262683478E+03  0.47000000000E+01 0.  1.
         11    1    6    6    0    0  0.19940025163E+02 -0.61531941501E+01  0.35393626121E+02  0.41087408920E+02  0.00000000000E+00 0. -1.
        -12    1    6    6    0    0  0.47883435243E+02 -0.17067257891E+02 -0.42317658510E+02  0.66143018410E+02  0.00000000000E+00 0.  1.
</event>
<event>
12    1  0.1594973E-001  0.3234543E+03  0.7818608E-02  0.1074101E+00
         21   -1    0    0  501  502  0.00000000000E+00  0.00000000000E+00  0.13892885035E+04  0.13892885035E+04  0.00000000000E+00 0.  1.
         21   -1    0    0  502  503 -0.00000000000E+00 -0.00000000000E+00 -0.10079103485E+03  0.10079103485E+03  0.00000000000E+00 0. -1.
         -6    2    1    2    0  503 -0.18593584329E+03 -0.20075975254E+03  0.26935960817E+03  0.42092430023E+03  0.17247043793E+03 0.  0.
        -24    2    3    3    0    0 -0.14034779680E+03 -0.57372840236E+02  0.12527553818E+03  0.21254871187E+03  0.80584412812E+02 0.  0.
          6    2    1    2  501    0  0.18593584329E+03  0.20075975254E+03  0.10191378605E+04  0.10691552382E+04  0.17197188276E+03 0.  0.
         24    2    5    5    0    0  0.19813036379E+03  0.20831337195E+03  0.10054295129E+04  0.10487647431E+04  0.79805255644E+02 0.  0.
          5    1    5    5  501    0 -0.12194520503E+02 -0.75536194084E+01  0.13708347598E+02  0.20390495098E+02  0.47000000000E+01 0. -1.
        -11    1    6    6    0    0  0.10584065709E+03  0.10329339293E+03  0.65471415298E+03  0.67120964819E+03  0.00000000000E+00 0.  1.
         12    1    6    6    0    0  0.92289706697E+02  0.10501997901E+03  0.35071535995E+03  0.37755509486E+03  0.00000000000E+00 0. -1.
         -5    1    3    3    0  503 -0.45588046484E+02 -0.14338691230E+03  0.14408406999E+03  0.20837558836E+03  0.47000000000E+01 0.  1.
         11    1    4    4    0    0 -0.14205199691E+03 -0.57708137173E+02  0.13401432595E+03  0.20363899057E+03  0.00000000000E+00 0. -1.
        -12    1    4    4    0    0  0.17042001052E+01  0.33529693669E+00 -0.87387877675E+01  0.89097213020E+01  0.00000000000E+00 0.  1.
</event>
<event>
12    1  0.1594973E-001  0.2785516E+03  0.7818608E-02  0.1096659E+00
         21   -1    0    0  503  502  0.00000000000E+00  0.00000000000E+00  0.38121488311E+03  0.38121488311E+03  0.00000000000E+00 0.  1.
         21   -1    0    0  501  503 -0.00000000000E+00 -0.00000000000E+00 -0.28213142586E+03  0.28213142586E+03  0.00000000000E+00 0. -1.
          6    2    1    2  501    0  0.15294226362E+03 -0.15516589937E+03 -0.12647000564E+03  0.30591769158E+03  0.17356030470E+03 0.  0.
         24    2    3    3    0    0  0.14874154223E+03 -0.18238347608E+03 -0.12472076035E+03  0.27792497108E+03  0.79367768981E+02 0.  0.
         -6    2    1    2    0  502 -0.15294226362E+03  0.15516589937E+03  0.22555346289E+03  0.35742861739E+03  0.17150236026E+03 0.  0.
        -24    2    5    5    0    0 -0.19954908182E+02  0.10260241514E+03  0.84979872848E+02  0.15685050093E+03  0.80343306506E+02 0.  0.
          5    1    3    3  501    0  0.42007213932E+01  0.27217576709E+02 -0.17492452882E+01  0.27992720504E+02  0.47000000000E+01 0. -1.
        -11    1    4    4    0    0 -0.73774220519E+01 -0.20623862896E+02 -0.20992173597E+02  0.30338777649E+02  0.00000000000E+00 0.  1.
         12    1    4    4    0    0  0.15611896428E+03 -0.16175961319E+03 -0.10372858675E+03  0.24758619343E+03  0.00000000000E+00 0. -1.
         -5    1    5    5    0  502 -0.13298735544E+03  0.52563484231E+02  0.14057359004E+03  0.20057811645E+03  0.47000000000E+01 0.  1.
         13    1    6    6    0    0  0.16782468073E+02 -0.21877910276E+01  0.26249327099E+02  0.31232432459E+02  0.00000000000E+00 0. -1.
        -14    1    6    6    0    0 -0.36737376255E+02  0.10479020617E+03  0.58730545750E+02  0.12561806848E+03  0.00000000000E+00 0.  1.
</event>
<event>
12    1  0.1594973E-001  0.3098454E+03  0.7818608E-02  0.1080737E+00
         21   -1    0    0  503  502  0.00000000000E+00  0.00000000000E+00  0.20001050413E+03  0.20001050413E+03  0.00000000000E+00 0. -1.
         21   -1    0    0  501  503 -0.00000000000E+00 -0.00000000000E+00 -0.61113173510E+03  0.61113173510E+03  0.00000000000E+00 0.  1.
          6    2    1    2  501    0  0.22929620833E+03  0.11716532088E+03 -0.14115693532E+02  0.30753763343E+03  0.16755798878E+03 0.  0.
         24    2    3    3    0    0  0.44368626777E+02  0.74346559100E+02 -0.11827063964E+02  0.11764559936E+03  0.78769421193E+02 0.  0.
         -6    2    1    2    0  502 -0.22929620833E+03 -0.11716532088E+03 -0.39700553744E+03  0.50360460579E+03  0.17233612114E+03 0.  0.
        -24    2    5    5    0    0 -0.81143475414E+02 -0.10380878038E+03 -0.14528889399E+03  0.21118198691E+03  0.78284368758E+02 0.  0.
          5    1    3    3  501    0  0.18492758155E+03  0.42818761775E+02 -0.22886295686E+01  0.18989203407E+03  0.47000000000E+01 0. -1.
        -13    1    4    4    0    0 -0.91731036962E+01  0.37905267249E+02  0.21790536057E+02  0.44674182458E+02  0.00000000000E+00 0.  1.
         14    1    4    4    0    0  0.53541730473E+02  0.36441291851E+02 -0.33617600020E+02  0.72971416904E+02  0.00000000000E+00 0. -1.
         -5    1    5    5    0  502 -0.14815273291E+03 -0.13356540491E+02 -0.25171664345E+03  0.29242261888E+03  0.47000000000E+01 0.  1.
         13    1    6    6    0    0  0.62951356947E+00 -0.58190261493E+02 -0.41998365761E+02  0.71766047311E+02  0.00000000000E+00 0. -1.
        -14    1    6    6    0    0 -0.81772988984E+02 -0.45618518892E+02 -0.10329052822E+03  0.13941593960E+03  0.00000000000E+00 0.  1.
</event>
<event>
12    1  0.1594973E-001  0.1775658E+03  0.7818608E-02  0.1170409E+00
         21   -1    0    0  501  502  0.00000000000E+00  0.00000000000E+00  0.14148478501E+03  0.14148478501E+03  0.00000000000E+00 0. -1.
         21   -1    0    0  502  503 -0.00000000000E+00 -0.00000000000E+00 -0.51450166389E+03  0.51450166389E+03  0.00000000000E+00 0. -1.
         -6    2    1    2    0  503 -0.31731869680E+02  0.26009852036E+02 -0.43373674936E+03  0.46832576794E+03  0.17180812908E+03 0.  0.
        -24    2    3    3    0    0  0.22600327631E+01  0.77537725187E+02 -0.31815464934E+03  0.33720794693E+03  0.80433898317E+02 0.  0.
          6    2    1    2  501    0  0.31731869680E+02 -0.26009852036E+02  0.60719870479E+02  0.18766068096E+03  0.17276054107E+03 0.  0.
         24    2    5    5    0    0  0.17485806595E+02  0.50989286427E+02  0.48180460266E+02  0.10821796923E+03  0.80523979976E+02 0.  0.
          5    1    5    5  501    0  0.14246063086E+02 -0.76999138463E+02  0.12539410212E+02  0.79442711723E+02  0.47000000000E+01 0. -1.
        -13    1    6    6    0    0 -0.16357663917E+02  0.42767421980E+02 -0.34723080842E+01  0.45920392801E+02  0.00000000000E+00 0.  1.
         14    1    6    6    0    0  0.33843470511E+02  0.82218644478E+01  0.51652768350E+02  0.62297576434E+02  0.00000000000E+00 0. -1.
         -5    1    3    3    0  503 -0.33991902443E+02 -0.51527873151E+02 -0.11558210002E+03  0.13111782101E+03  0.47000000000E+01 0.  1.
         11    1    4    4    0    0 -0.27871645516E+02  0.67663057749E+02 -0.16048978583E+03  0.17638619380E+03  0.00000000000E+00 0. -1.
        -12    1    4    4    0    0  0.30131678279E+02  0.98746674380E+01 -0.15766486351E+03  0.16082175312E+03  0.00000000000E+00 0.  1.
</event>
<event>
12    1  0.1594973E-001  0.1718281E+03  0.7818608E-02  0.1176133E+00
         21   -1    0    0  503  502  0.00000000000E+00  0.00000000000E+00  0.11340073035E+04  0.11340073035E+04  0.00000000000E+00 0.  1.
         21   -1    0    0  501  503 -0.00000000000E+00 -0.00000000000E+00 -0.11124344565E+03  0.11124344565E+03  0.00000000000E+00 0.  1.
          6    2    1    2  501    0 -0.56976030899E+01  0.15575735354E+01 -0.34106254713E+02  0.17450366418E+03  0.17103626366E+03 0.  0.
         24    2    3    3    0    0 -0.95593789426E+01 -0.58536928464E+02 -0.50030283325E+02  0.11203825639E+03  0.80818240058E+02 0.  0.
         -6    2    1    2    0  502  0.56976030899E+01 -0.15575735354E+01  0.10568701126E+04  0.10707470850E+04  0.17172651631E+03 0.  0.
        -24    2    5    5    0    0 -0.41052746684E+02 -0.32164516888E+02  0.39152176796E+03  0.40303989625E+03  0.80199619869E+02 0.  0.
          5    1    3    3  501    0  0.38617758528E+01  0.60094502000E+02  0.15924028612E+02  0.62465407791E+02  0.47000000000E+01 0. -1.
        -13    1    4    4    0    0  0.20480153893E+02 -0.10643140056E+02 -0.50474960258E+02  0.55501664360E+02  0.00000000000E+00 0.  1.
         14    1    4    4    0    0 -0.30039532835E+02 -0.47893788408E+02  0.44467693284E+00  0.56536592032E+02  0.00000000000E+00 0. -1.
         -5    1    5    5    0  502  0.46750349774E+02  0.30606943352E+02  0.66534834464E+03  0.66770718875E+03  0.47000000000E+01 0.  1.
         11    1    6    6    0    0  0.24955795539E+01 -0.48745633205E+02  0.21505187656E+03  0.22052136923E+03  0.00000000000E+00 0. -1.
        -12    1    6    6    0    0 -0.43548326238E+02  0.16581116317E+02  0.17646989140E+03  0.18251852702E+03  0.00000000000E+00 0.  1.
</event>
<event>
12    1  0.1594973E-001  0.1946349E+03  0.7818608E-02  0.1154468E+00
         21   -1    0    0  503  502  0.00000000000E+00  0.00000000000E+00  0.79054523070E+02  0.79054523070E+02  0.00000000000E+00 0. -1.
         21   -1    0    0  501  503 -0.00000000000E+00 -0.00000000000E+00 -0.48353235380E+03  0.48353235380E+03  0.00000000000E+00 0.  1.
          6    2    1    2  501    0 -0.65102633217E+02 -0.59674899344E+02 -0.17196900541E+03  0.25972312480E+03  0.17344542736E+03 0.  0.
         24    2    3    3    0    0 -0.29113014816E+01 -0.78891918956E+02 -0.15402029716E+03  0.19203781093E+03  0.83209725018E+02 0.  0.
         -6    2    1    2    0  502  0.65102633217E+02  0.59674899344E+02 -0.23250882532E+03  0.30286375206E+03  0.17281970952E+03 0.  0.
        -24    2    5    5    0    0  0.72359677125E+02  0.39932959601E+02 -0.24996774762E+03  0.27512726276E+03  0.79878480996E+02 0.  0.
          5    1    3    3  501    0 -0.62191331735E+02  0.19217019613E+02 -0.17948708246E+02  0.67685313869E+02  0.47000000000E+01 0. -1.
        -11    1    4    4    0    0 -0.19361754760E+02 -0.75855386287E+02 -0.15663170821E+03  0.17510685079E+03  0.00000000000E+00 0.  1.
         12    1    4    4    0    0  0.16450453279E+02 -0.30365326688E+01  0.26114110503E+01  0.16930960144E+02  0.00000000000E+00 0. -1.
         -5    1    5    5    0  502 -0.72570439085E+01  0.19741939742E+02  0.17458922302E+02  0.27736489306E+02  0.47000000000E+01 0.  1.
         11    1    6    6    0    0  0.74689888488E+02  0.15363411985E+02 -0.11541720465E+03  0.13833201004E+03  0.00000000000E+00 0. -1.
        -12    1    6    6    0    0 -0.23302113628E+01  0.24569547616E+02 -0.13455054297E+03  0.13679525272E+03  0.00000000000E+00 0.  1.
</event>
<event>
12    1  0.1594973E-001  0.2029802E+03  0.7818608E-02  0.1147372E+00
         21   -1    0    0  501  502  0.00000000000E+00  0.00000000000E+00  0.12731766439E+03  0.12731766439E+03  0.00000000000E+00 0.  1.
         21   -1    0    0  502  503 -0.00000000000E+00 -0.00000000000E+00 -0.36993410803E+03  0.36993410803E+03  0.00000000000E+00 0. -1.
         -6    2    1    2    0  503 -0.30502459825E+02  0.10293657391E+03 -0.21003397849E+03  0.29167315801E+03  0.17155937946E+03 0.  0.
        -24    2    3    3    0    0  0.43245305569E+02  0.87048386258E+02 -0.12421688505E+03  0.17731481361E+03  0.81013150730E+02 0.  0.
          6    2    1    2  501    0  0.30502459825E+02 -0.10293657391E+03 -0.32582465155E+02  0.20557861441E+03  0.17226320374E+03 0.  0.
         24    2    5    5    0    0  0.66523441825E-01  0.17074885318E+02 -0.43155635753E+02  0.81228389210E+02  0.66663979648E+02 0.  0.
          5    1    5    5  501    0  0.30435936384E+02 -0.12001145923E+03  0.10573170598E+02  0.12435022520E+03  0.47000000000E+01 0. -1.
        -11    1    6    6    0    0 -0.46092157150E+01  0.37588474788E+01  0.17744299327E+02  0.18714538800E+02  0.00000000000E+00 0.  1.
         12    1    6    6    0    0  0.46757391568E+01  0.13316037840E+02 -0.60899935080E+02  0.62513850410E+02  0.00000000000E+00 0. -1.
         -5    1    3    3    0  503 -0.73747765395E+02  0.15888187653E+02 -0.85817093436E+02  0.11435834440E+03  0.47000000000E+01 0.  1.
         13    1    4    4    0    0  0.49337908541E+02  0.16013412710E+02 -0.72900419983E+02  0.89471391180E+02  0.00000000000E+00 0. -1.
        -14    1    4    4    0    0 -0.60926029723E+01  0.71034973548E+02 -0.51316465068E+02  0.87843422434E+02  0.00000000000E+00 0.  1.
</event>
<event>
12    1  0.1594973E-001  0.1845052E+03  0.7818608E-02  0.1163788E+00
         21   -1    0    0  501  502  0.00000000000E+00  0.00000000000E+00  0.38939763927E+03  0.38939763927E+03  0.00000000000E+00 0.  1.
         21   -1    0    0  502  503 -0.00000000000E+00 -0.00000000000E+00 -0.12209541642E+03  0.12209541642E+03  0.00000000000E+00 0.  1.
         -6    2    1    2    0  503 -0.66531974290E+02  0.55740296157E+01 -0.40234644959E+01  0.18337754609E+03  0.17074414407E+03 0.  0.
        -24    2    3    3    0    0  0.20474991144E+02 -0.28773790807E+02  0.75278289684E+01  0.89008551278E+02  0.81355378998E+02 0.  0.
          6    2    1    2  501    0  0.66531974290E+02 -0.55740296157E+01  0.27132568734E+03  0.32811550960E+03  0.17200170236E+03 0.  0.
         24    2    5    5    0    0  0.32149543589E+02  0.65233867792E+02  0.15951669447E+03  0.19129719663E+03  0.76550577809E+02 0.  0.
          5    1    5    5  501    0  0.34382430701E+02 -0.70807897408E+02  0.11180899287E+03  0.13681831297E+03  0.47000000000E+01 0. -1.
        -13    1    6    6    0    0 -0.22878989906E+02  0.69245104288E+01  0.24223876612E+02  0.34032237979E+02  0.00000000000E+00 0.  1.
         14    1    6    6    0    0  0.55028533494E+02  0.58309357363E+02  0.13529281786E+03  0.15726495865E+03  0.00000000000E+00 0. -1.
         -5    1    3    3    0  503 -0.87006965434E+02  0.34347820423E+02 -0.11551293464E+02  0.94368994816E+02  0.47000000000E+01 0.  1.
         11    1    4    4    0    0  0.16345722714E+02  0.27594971592E+02  0.72689756816E+00  0.32081045623E+02  0.00000000000E+00 0. -1.
        -12    1    4    4    0    0  0.41292684308E+01 -0.56368762399E+02  0.68009314002E+01  0.56927505655E+02  0.00000000000E+00 0.  1.
</event>
<event>
12    1  0.1594973E-001  0.2110351E+03  0.7818608E-02  0.1142230E+00
         21   -1    0    0  503  502  0.00000000000E+00  0.00000000000E+00  0.12436319224E+04  0.12436319224E+04  0.00000000000E+00 0.  1.
         21   -1    0    0  501  503 -0.00000000000E+00 -0.00000000000E+00 -0.49667922411E+02  0.49667922411E+02  0.00000000000E+00 0.  1.
          6    2    1    2  501    0  0.83544733044E+02  0.72757353020E+02  0.24788060245E+03  0.32554664526E+03  0.17961756688E+03 0.  0.
         24    2    3    3    0    0 -0.23160655363E+02  0.68087191733E+02  0.10913943177E+03  0.15039227689E+03  0.74391798901E+02 0.  0.
         -6    2    1    2    0  502 -0.83544733044E+02 -0.72757353020E+02  0.94608339756E+03  0.96775319957E+03  0.17087745697E+03 0.  0.
        -24    2    5    5    0    0  0.21884124880E+02 -0.30055971492E+02  0.34906955316E+03  0.35998163684E+03  0.79717937560E+02 0.  0.
          5    1    3    3  501    0  0.10670538841E+03  0.46701612869E+01  0.13874117068E+03  0.17515436838E+03  0.47000000000E+01 0. -1.
        -11    1    4    4    0    0  0.13777175502E+02  0.53414375721E+02  0.32407702010E+02  0.63977849667E+02  0.00000000000E+00 0.  1.
         12    1    4    4    0    0 -0.36937830865E+02  0.14672816011E+02  0.76731729765E+02  0.86414427218E+02  0.00000000000E+00 0. -1.
         -5    1    5    5    0  502 -0.10542885792E+03 -0.42701381527E+02  0.59701384440E+03  0.60777156274E+03  0.47000000000E+01 0.  1.
         13    1    6    6    0    0  0.98983113534E+01  0.25495012663E+02  0.16775359081E+03  0.16996834843E+03  0.00000000000E+00 0. -1.
        -14    1    6    6    0    0  0.11985813527E+02 -0.55550984156E+02  0.18131596236E+03  0.19001328841E+03  0.00000000000E+00 0.  1.
</event>
<event>
12    1  0.1594973E-001  0.2020623E+03  0.7818608E-02  0.1148084E+00
         21   -1    0    0  503  502  0.00000000000E+00  0.00000000000E+00  0.59295135586E+02  0.59295135586E+02  0.00000000000E+00 0. -1.
         21   -1    0    0  501  503 -0.00000000000E+00 -0.00000000000E+00 -0.71807408214E+03  0.71807408214E+03  0.00000000000E+00 0. -1.
          6    2    1    2  501    0  0.10449728867E+03 -0.17516816947E+02 -0.41002781081E+03  0.45711263856E+03  0.17205416728E+03 0.  0.
         24    2    3    3    0    0  0.11658832062E+02 -0.43972948607E+02 -0.11803051001E+03  0.14953594959E+03  0.79751177738E+02 0.  0.
         -6    2    1    2    0  502 -0.10449728867E+03  0.17516816947E+02 -0.24875113575E+03  0.32025657917E+03  0.17164098215E+03 0.  0.
        -24    2    5    5    0    0 -0.84761058667E+02  0.26909119144E+02 -0.62601612327E+02  0.13276932844E+03  0.76159010957E+02 0.  0.
          5    1    3    3  501    0  0.92838456603E+02  0.26456131660E+02 -0.29199730079E+03  0.30757668897E+03  0.47000000000E+01 0. -1.
        -13    1    4    4    0    0  0.15093166871E+02 -0.14945913192E+02  0.60285480209E+01  0.22080022613E+02  0.00000000000E+00 0.  1.
         14    1    4    4    0    0 -0.34343348086E+01 -0.29027035415E+02 -0.12405905803E+03  0.12745592697E+03  0.00000000000E+00 0. -1.
         -5    1    5    5    0  502 -0.19736229999E+02 -0.93923021966E+01 -0.18614952342E+03  0.18748725073E+03  0.47000000000E+01 0.  1.
         13    1    6    6    0    0 -0.79025639235E+02 -0.28620637634E+01 -0.64989783567E+02  0.10235680258E+03  0.00000000000E+00 0. -1.
        -14    1    6    6    0    0 -0.57354194315E+01  0.29771182907E+02  0.23881712403E+01  0.30412525867E+02  0.00000000000E+00 0.  1.
</event>
<event>
12    1  0.1594973E-001  0.2054452E+03  0.7818608E-02  0.1145415E+00
         21   -1    0    0  501  502  0.00000000000E+00  0.00000000000E+00  0.53897501408E+03  0.53897501408E+03  0.00000000000E+00 0.  1.
         21   -1    0    0  502  503 -0.00000000000E+00 -0.00000000000E+00 -0.88851197272E+02  0.88851197272E+02  0.00000000000E+00 0. -1.
         -6    2    1    2    0  503  0.13659557316E+02 -0.10989068951E+03  0.11558654378E+03  0.23572865368E+03  0.17304682000E+03 0.  0.
        -24    2    3    3    0    0  0.75344313663E+00 -0.10718040754E+03  0.15371848990E+02  0.13454076673E+03  0.79854346996E+02 0.  0.
          6    2    1    2  501    0 -0.13659557316E+02  0.10989068951E+03  0.33453727303E+03  0.39209755768E+03  0.17193824631E+03 0.  0.
         24    2    5    5    0    0 -0.31517117009E+02 -0.11613733112E+01  0.91165823624E+02  0.12394982697E+03  0.77831065502E+02 0.  0.
          5    1    5    5  501    0  0.17857559694E+02  0.11105206283E+03  0.24337144941E+03  0.26814773070E+03  0.47000000000E+01 0. -1.
        -11    1    6    6    0    0 -0.43081174276E+02 -0.26304055551E+02  0.78932017423E+02  0.93691804817E+02  0.00000000000E+00 0.  1.
         12    1    6    6    0    0  0.11564057266E+02  0.25142682240E+02  0.12233806201E+02  0.30258022157E+02  0.00000000000E+00 0. -1.
         -5    1    3    3    0  503  0.12906114179E+02 -0.27102819691E+01  0.10021469479E+03  0.10118788694E+03  0.47000000000E+01 0.  1.
         11    1    4    4    0    0  0.36380360918E+02 -0.32034356469E+02  0.16978647711E+02  0.51361514123E+02  0.00000000000E+00 0. -1.
        -12    1    4    4    0    0 -0.35626917781E+02 -0.75146051076E+02 -0.16067987214E+01  0.83179252612E+02  0.00000000000E+00 0.  1.
</event>
<event>
12    1  0.1594973E-001  0.2136791E+03  0.7818608E-02  0.1140373E+00
         21   -1    0    0  501  502  0.00000000000E+00  0.00000000000E+00  0.13694152194E+03  0.13694152194E+03  0.00000000000E+00 0.  1.
         21   -1    0    0  502  503 -0.00000000000E+00 -0.00000000000E+00 -0.32076110948E+03  0.32076110948E+03  0.00000000000E+00 0.  1.
         -6    2    1    2    0  503 -0.23161769052E+01  0.11602320026E+03 -0.99288090973E+02  0.22791073462E+03  0.16916982672E+03 0.  0.
        -24    2    3    3    0    0 -0.11398531051E+02  0.41768379670E+02 -0.11922212604E+03  0.15034964069E+03  0.80725306249E+02 0.  0.
          6    2    1    2  501    0  0.23161769052E+01 -0.11602320026E+03 -0.84531496568E+02  0.22979189680E+03  0.17942127591E+03 0.  0.
         24    2    5    5    0    0 -0.62914557958E+02 -0.70055068908E+02 -0.11752762691E+02  0.12168568987E+03  0.76179560294E+02 0.  0.
          5    1    5    5  501    0  0.65230734863E+02 -0.45968131353E+02 -0.72778733877E+02  0.10810620692E+03  0.47000000000E+01 0. -1.
        -13    1    6    6    0    0 -0.44800822491E+02  0.21944097450E+01  0.56079411501E+01  0.45203740265E+02  0.00000000000E+00 0.  1.
         14    1    6    6    0    0 -0.18113735466E+02 -0.72249478652E+02 -0.17360703841E+02  0.76481949609E+02  0.00000000000E+00 0. -1.
         -5    1    3    3    0  503  0.90823541463E+01  0.74254820591E+02  0.19934035062E+02  0.77561093930E+02  0.47000000000E+01 0.  1.
         13    1    4    4    0    0 -0.23258780912E+02  0.62832951155E+02 -0.80923150133E+02  0.10505953963E+03  0.00000000000E+00 0. -1.
        -14    1    4    4    0    0  0.11860249860E+02 -0.21064571486E+02 -0.38298975903E+02  0.45290101058E+02  0.00000000000E+00 0.  1.
</event>
<event>
12    1  0.1594973E-001  0.1976997E+03  0.7818608E-02  0.1151706E+00
         21   -1    0    0  501  502  0.00000000000E+00  0.00000000000E+00  0.78562702194E+02  0.78562702194E+02  0.00000000000E+00 0.  1.
         21   -1    0    0  502  503 -0.00000000000E+00 -0.00000000000E+00 -0.69277985802E+03  0.69277985802E+03  0.00000000000E+00 0.  1.
         -6    2    1    2    0  503  0.95702028510E+02  0.71000899467E+01 -0.51191156212E+03  0.54874065299E+03  0.17278184879E+03 0.  0.
        -24    2    3    3    0    0  0.10236234092E+03 -0.47193279207E+02 -0.31888228361E+03  0.34805552135E+03  0.82167394424E+02 0.  0.
          6    2    1    2  501    0 -0.95702028510E+02 -0.71000899467E+01 -0.10230559371E+03  0.22260190723E+03  0.17284642044E+03 0.  0.
         24    2    5    5    0    0  0.10152148264E+02 -0.34570957452E+02 -0.39774899347E+02  0.96538696738E+02  0.80246246868E+02 0.  0.
          5    1    5    5  501    0 -0.10585417677E+03  0.27470867505E+02 -0.62530694364E+02  0.12606321049E+03  0.47000000000E+01 0. -1.
        -13    1    6    6    0    0 -0.63590393868E+01  0.56392115948E+01  0.20518920788E+02  0.22209551991E+02  0.00000000000E+00 0.  1.
         14    1    6    6    0    0  0.16511187651E+02 -0.40210169047E+02 -0.60293820135E+02  0.74329144747E+02  0.00000000000E+00 0. -1.
         -5    1    3    3    0  503 -0.66603124055E+01  0.54293369154E+02 -0.19302927851E+03  0.20068513163E+03  0.47000000000E+01 0.  1.
         13    1    4    4    0    0  0.22712917139E+02  0.13468334931E+01 -0.90483273839E+01  0.24485971368E+02  0.00000000000E+00 0. -1.
        -14    1    4    4    0    0  0.79649423777E+02 -0.48540112700E+02 -0.30983395622E+03  0.32356954999E+03  0.00000000000E+00 0.  1.
</event>
<event>
12    1  0.1594973E-001  0.1957379E+03  0.7818608E-02  0.1154428E+00
         21   -1    0    0  503  502  0.00000000000E+00  0.00000000000E+00  0.17190899319E+03  0.17190899319E+03  0.00000000000E+00 0.  1.
         21   -1    0    0  501  503 -0.00000000000E+00 -0.00000000000E+00 -0.28705319143E+03  0.28705319143E+03  0.00000000000E+00 0. -1.
          6    2    1    2  501    0 -0.68074551615E+02 -0.45493742392E+02 -0.16998987187E+03  0.25568561619E+03  0.17255362243E+03 0.  0.
         24    2    3    3    0    0  0.22149896662E+02 -0.54836629297E+02 -0.10195475591E+03  0.14220166311E+03  0.79554175901E+02 0.  0.
         -6    2    1    2    0  502  0.68074551615E+02  0.45493742392E+02  0.54845673626E+02  0.20327656843E+03  0.17779057957E+03 0.  0.
        -24    2    5    5    0    0 -0.21191226022E+02  0.13133250390E+01 -0.11251739578E+02  0.83646946817E+02  0.80121265500E+02 0.  0.
          5    1    3    3  501    0 -0.90224448277E+02  0.93428869051E+01 -0.68035115953E+02  0.11348395307E+03  0.47000000000E+01 0. -1.
        -11    1    4    4    0    0  0.15773043794E+01  0.20735060623E+02 -0.20493080592E+02  0.29195838408E+02  0.00000000000E+00 0.  1.
         12    1    4    4    0    0  0.20572592282E+02 -0.75571689921E+02 -0.81461675323E+02  0.11300582470E+03  0.00000000000E+00 0. -1.
         -5    1    5    5    0  502  0.89265777637E+02  0.44180417353E+02  0.66097413204E+02  0.11962962161E+03  0.47000000000E+01 0.  1.
         13    1    6    6    0    0 -0.42730765209E+02  0.26080400771E+02 -0.71168727612E+01  0.50564369645E+02  0.00000000000E+00 0. -1.
        -14    1    6    6    0    0  0.21539539187E+02 -0.24767075732E+02 -0.41348668169E+01  0.33082577171E+02  0.00000000000E+00 0.  1.
</event>
<event>
12    1  0.1594973E-001  0.2228089E+03  0.7818608E-02  0.1132171E+00
         21   -1    0    0  503  502  0.00000000000E+00  0.00000000000E+00  0.11652965548E+04  0.11652965548E+04  0.00000000000E+00 0.  1.
         21   -1    0    0  501  503 -0.00000000000E+00 -0.00000000000E+00 -0.99723641100E+02  0.99723641100E+02  0.00000000000E+00 0.  1.
          6    2    1    2  501    0  0.62158549018E+02  0.12640236972E+03  0.53508186540E+02  0.22914388072E+03  0.17263414424E+03 0.  0.
         24    2    3    3    0    0 -0.29552481903E+02  0.32965922164E+02  0.57215173134E+01  0.89691599700E+02  0.77792969385E+02 0.  0.
         -6    2    1    2    0  502 -0.62158549018E+02 -0.12640236972E+03  0.10120647272E+04  0.10358763152E+04  0.17006905687E+03 0.  0.
        -24    2    5    5    0    0  0.59604319742E+01 -0.31678304107E+02  0.24569299788E+03  0.26065985404E+03  0.80866980915E+02 0.  0.
          5    1    3    3  501    0  0.91711030922E+02  0.93436447561E+02  0.47786669226E+02  0.13945228102E+03  0.47000000000E+01 0. -1.
        -13    1    4    4    0    0 -0.42604235451E+02 -0.56265936802E+01 -0.12941394227E+02  0.44880498208E+02  0.00000000000E+00 0.  1.
         14    1    4    4    0    0  0.13051753548E+02  0.38592515844E+02  0.18662911540E+02  0.44811101493E+02  0.00000000000E+00 0. -1.
         -5    1    5    5    0  502 -0.68118980993E+02 -0.94724065618E+02  0.76637172930E+03  0.77521646116E+03  0.47000000000E+01 0.  1.
         13    1    6    6    0    0  0.32750093098E+02 -0.34715929609E+02  0.21301092085E+03  0.21829204467E+03  0.00000000000E+00 0. -1.
        -14    1    6    6    0    0 -0.26789661124E+02  0.30376255022E+01  0.32682077031E+02  0.42367809371E+02  0.00000000000E+00 0.  1.
</event>
<event>
12    1  0.1594973E-001  0.2644967E+03  0.7818608E-02  0.1104880E+00
         21   -1    0    0  501  502  0.00000000000E+00  0.00000000000E+00  0.11578768483E+03  0.11578768483E+03  0.00000000000E+00 0.  1.
         21   -1    0    0  502  503 -0.00000000000E+00 -0.00000000000E+00 -0.77391019705E+03  0.77391019705E+03  0.00000000000E+00 0.  1.
         -6    2    1    2    0  503 -0.18798993025E+03  0.60920385432E+02 -0.53987289900E+03  0.59997133363E+03  0.17161394719E+03 0.  0.
        -24    2    3    3    0    0 -0.13537133901E+03  0.10730568916E+03 -0.41784236075E+03  0.45913861438E+03  0.79850600685E+02 0.  0.
          6    2    1    2  501    0  0.18798993025E+03 -0.60920385432E+02 -0.11824961322E+03  0.28972654824E+03  0.17580385233E+03 0.  0.
         24    2    5    5    0    0  0.18479394516E+03 -0.99083448687E+02 -0.11336850189E+03  0.25083504576E+03  0.78099110032E+02 0.  0.
          5    1    5    5  501    0  0.31959850838E+01  0.38163063256E+02 -0.48811113332E+01  0.38891502485E+02  0.47000000000E+01 0. -1.
        -11    1    6    6    0    0  0.12118115620E+02 -0.29693248048E+02  0.15627611133E+01  0.32108876158E+02  0.00000000000E+00 0.  1.
         12    1    6    6    0    0  0.17267582954E+03 -0.69390200639E+02 -0.11493126300E+03  0.21872616960E+03  0.00000000000E+00 0. -1.
         -5    1    3    3    0  503 -0.52618591232E+02 -0.46385303725E+02 -0.12203053825E+03  0.14083271925E+03  0.47000000000E+01 0.  1.
         13    1    4    4    0    0 -0.27594458294E+02  0.65885412379E+02 -0.11934503556E+03  0.13908838631E+03  0.00000000000E+00 0. -1.
        -14    1    4    4    0    0 -0.10777688072E+03  0.41420276777E+02 -0.29849732519E+03  0.32005022808E+03  0.00000000000E+00 0.  1.
</event>
<event>
12    1  0.1594973E-001  0.1944370E+03  0.7818608E-02  0.1154539E+00
         21   -1    0    0  503  502  0.00000000000E+00  0.00000000000E+00  0.18732282183E+04  0.18732282183E+04  0.00000000000E+00 0. -1.
         21   -1    0    0  501  503 -0.00000000000E+00 -0.00000000000E+00 -0.20551798841E+02  0.20551798841E+02  0.00000000000E+00 0. -1.
          6    2    1    2  501    0 -0.89975248033E+02 -0.92978873090E+01  0.10547215636E+04  0.10724775691E+04  0.17201326521E+03 0.  0.
         24    2    3    3    0    0 -0.10356032352E+03 -0.55213767745E+02  0.67957808470E+03  0.69426130536E+03  0.79994288298E+02 0.  0.
         -6    2    1    2    0  502  0.89975248033E+02  0.92978873090E+01  0.79795485585E+03  0.82130244809E+03  0.17211555217E+03 0.  0.
        -24    2    5    5    0    0  0.44170683638E+02 -0.85767058944E+01  0.74361465300E+03  0.74786875795E+03  0.65729124351E+02 0.  0.
          5    1    3    3  501    0  0.13585075485E+02  0.45915880436E+02  0.37514347894E+03  0.37821626373E+03  0.47000000000E+01 0. -1.
        -11    1    4    4    0    0 -0.28949480497E+02 -0.57257799447E+02  0.38870542986E+03  0.39396502284E+03  0.00000000000E+00 0.  1.
         12    1    4    4    0    0 -0.74610843021E+02  0.20440317016E+01  0.29087265484E+03  0.30029628252E+03  0.00000000000E+00 0. -1.
         -5    1    5    5    0  502  0.45804564396E+02  0.17874593203E+02  0.54340202852E+02  0.73433690140E+02  0.47000000000E+01 0.  1.
         11    1    6    6    0    0  0.56531668207E+02 -0.10923818391E+02  0.70290276138E+03  0.70525701079E+03  0.00000000000E+00 0. -1.
        -12    1    6    6    0    0 -0.12360984570E+02  0.23471124970E+01  0.40711891619E+02  0.42611747158E+02  0.00000000000E+00 0.  1.
</event>
<event>
12    1  0.1594973E-001  0.2318774E+03  0.7818608E-02  0.1125350E+00
         21   -1    0    0  503  502  0.00000000000E+00  0.00000000000E+00  0.53738585787E+02  0.53738585787E+02  0.00000000000E+00 0. -1.
         21   -1    0    0  501  503 -0.00000000000E+00 -0.00000000000E+00 -0.11767472016E+04  0.11767472016E+04  0.00000000000E+00 0. -1.
          6    2    1    2  501    0 -0.12489531699E+03  0.93352368326E+02 -0.80015289149E+03  0.83307369423E+03  0.17162058557E+03 0.  0.
         24    2    3    3    0    0 -0.42741368942E+02  0.30442257690E+02 -0.60414847137E+03  0.61138297294E+03  0.77718778154E+02 0.  0.
         -6    2    1    2    0  502  0.12489531699E+03 -0.93352368326E+02 -0.32285572433E+03  0.39741209316E+03  0.17142650955E+03 0.  0.
        -24    2    5    5    0    0  0.14742268498E+03 -0.37481523460E+02 -0.24392261854E+03  0.29800606314E+03  0.78556076668E+02 0.  0.
          5    1    3    3  501    0 -0.82153948048E+02  0.62910110636E+02 -0.19600442012E+03  0.22169072129E+03  0.47000000000E+01 0. -1.
        -13    1    4    4    0    0 -0.93483254573E+01 -0.26279612204E+02 -0.16991066749E+03  0.17218491262E+03  0.00000000000E+00 0.  1.
         14    1    4    4    0    0 -0.33393043485E+02  0.56721869894E+02 -0.43423780387E+03  0.43919806032E+03  0.00000000000E+00 0. -1.
         -5    1    5    5    0  502 -0.22527367994E+02 -0.55870844865E+02 -0.78933105789E+02  0.99406030019E+02  0.47000000000E+01 0.  1.
         11    1    6    6    0    0  0.84959357865E+02 -0.32408961419E+02 -0.75123547301E+02  0.11794905946E+03  0.00000000000E+00 0. -1.
        -12    1    6    6    0    0  0.62463327119E+02 -0.50725620413E+01 -0.16879907124E+03  0.18005700367E+03  0.00000000000E+00 0.  1.
</event>
<event>
12    1  0.1594973E-001  0.2012861E+03  0.7818608E-02  0.1149024E+00
         21   -1    0    0  503  502  0.00000000000E+00  0.00000000000E+00  0.37241513867E+03  0.37241513867E+03  0.00000000000E+00 0.  1.
         21   -1    0    0  501  503 -0.00000000000E+00 -0.00000000000E+00 -0.29974006104E+03  0.29974006104E+03  0.00000000000E+00 0.  1.
          6    2    1    2  501    0 -0.79666185467E+02 -0.65230967634E+02 -0.23250361999E+03  0.30752888130E+03  0.17295750715E+03 0.  0.
         24    2    3    3    0    0  0.18121879522E+02 -0.43601232631E+02 -0.15140276611E+03  0.17857233982E+03  0.82071998626E+02 0.  0.
         -6    2    1    2    0  502  0.79666185467E+02  0.65230967634E+02  0.30517869761E+03  0.36462631842E+03  0.17092844807E+03 0.  0.
        -24    2    5    5    0    0  0.58038676786E+02 -0.27326427492E+02  0.14248179649E+03  0.17614026546E+03  0.81296427609E+02 0.  0.
          5    1    3    3  501    0 -0.97788064989E+02 -0.21629735002E+02 -0.81100853877E+02  0.12895654148E+03  0.47000000000E+01 0. -1.
        -13    1    4    4    0    0  0.22693844580E+02 -0.73320546521E+01 -0.13735475683E+03  0.13940982330E+03  0.00000000000E+00 0.  1.
         14    1    4    4    0    0 -0.45719650577E+01 -0.36269177979E+02 -0.14048009279E+02  0.39162516524E+02  0.00000000000E+00 0. -1.
         -5    1    5    5    0  502  0.21627508681E+02  0.92557395126E+02  0.16269690113E+03  0.18848605296E+03  0.47000000000E+01 0.  1.
         11    1    6    6    0    0 -0.46079017651E+01 -0.30009766467E+02  0.14549530814E+02  0.33667605929E+02  0.00000000000E+00 0. -1.
        -12    1    6    6    0    0  0.62646578551E+02  0.26833389748E+01  0.12793226568E+03  0.14247265953E+03  0.00000000000E+00 0.  1.
</event>
<event>
12    1  0.1594973E-001  0.1964450E+03  0.7818608E-02  0.1156823E+00
         21   -1    0    0  501  502  0.00000000000E+00  0.00000000000E+00  0.47650845551E+02  0.47650845551E+02  0.00000000000E+00 0. -1.
         21   -1    0    0  502  503 -0.00000000000E+00 -0.00000000000E+00 -0.87129869496E+03  0.87129869496E+03  0.00000000000E+00 0. -1.
         -6    2    1    2    0  503  0.46463452874E+02  0.13058815548E+02 -0.24888357584E+03  0.31707043750E+03  0.19042385066E+03 0.  0.
        -24    2    3    3    0    0  0.43349879113E+02 -0.42924629109E+02 -0.53221634533E+02  0.11347887163E+03  0.79518401151E+02 0.  0.
          6    2    1    2  501    0 -0.46463452874E+02 -0.13058815548E+02 -0.57476427357E+03  0.60187910301E+03  0.17197412407E+03 0.  0.
         24    2    5    5    0    0 -0.92649757524E+02 -0.23046979095E+02 -0.33661824985E+03  0.35904468049E+03  0.80536300128E+02 0.  0.
          5    1    5    5  501    0  0.46186304650E+02  0.99881635473E+01 -0.23814602371E+03  0.24283442252E+03  0.47000000000E+01 0. -1.
        -13    1    6    6    0    0 -0.35148214617E+02  0.30280354881E+02 -0.11864261949E+03  0.12739061207E+03  0.00000000000E+00 0.  1.
         14    1    6    6    0    0 -0.57501542907E+02 -0.53327333976E+02 -0.21797563036E+03  0.23165406842E+03  0.00000000000E+00 0. -1.
         -5    1    3    3    0  503  0.31135737610E+01  0.55983444657E+02 -0.19566194131E+03  0.20359156587E+03  0.47000000000E+01 0.  1.
         11    1    4    4    0    0  0.85941749491E+01 -0.37496037851E+02 -0.65717245869E+02  0.76148336175E+02  0.00000000000E+00 0. -1.
        -12    1    4    4    0    0  0.34755704163E+02 -0.54285912581E+01  0.12495611336E+02  0.37330535458E+02  0.00000000000E+00 0.  1.
</event>
<event>
12    1  0.1594973E-001  0.2947544E+03  0.7818608E-02  0.1088002E+00
         21   -1    0    0  501  502  0.00000000000E+00  0.00000000000E+00  0.26557335330E+03  0.26557335330E+03  0.00000000000E+00 0.  1.
         21   -1    0    0  502  503 -0.00000000000E+00 -0.00000000000E+00 -0.35039645834E+03  0.35039645834E+03  0.00000000000E+00 0.  1.
         -6    2    1    2    0  503 -0.23805301862E+03 -0.39017546451E+01 -0.12329464015E+03  0.31871532406E+03  0.17231780563E+03 0.  0.
        -24    2    3    3    0    0 -0.79835166267E+02 -0.11701512583E+02  0.81433436783E+01  0.11282273405E+03  0.78435171340E+02 0.  0.
          6    2    1    2  501    0  0.23805301862E+03  0.39017546451E+01  0.38471535113E+02  0.29725448758E+03  0.17376912271E+03 0.  0.
         24    2    5    5    0    0  0.23304494254E+03  0.10315518138E+01 -0.19046889388E+02  0.23925640100E+03  0.50693511246E+02 0.  0.
          5    1    5    5  501    0  0.50080760878E+01  0.28702028313E+01  0.57518424501E+02  0.57998086584E+02  0.47000000000E+01 0. -1.
        -13    1    6    6    0    0  0.76691434865E+02  0.20429268597E+02  0.65615988418E+01  0.79636585666E+02  0.00000000000E+00 0.  1.
         14    1    6    6    0    0  0.15635350767E+03 -0.19397716783E+02 -0.25608488230E+02  0.15961981533E+03  0.00000000000E+00 0. -1.
         -5    1    3    3    0  503 -0.15821785236E+03  0.77997579380E+01 -0.13143798383E+03  0.20589259001E+03  0.47000000000E+01 0.  1.
         11    1    4    4    0    0  0.99788502898E+01 -0.12402395967E+02 -0.12998389487E+02  0.20551277529E+02  0.00000000000E+00 0. -1.
        -12    1    4    4    0    0 -0.89814016557E+02  0.70088338377E+00  0.21141733166E+02  0.92271456523E+02  0.00000000000E+00 0.  1.
</event>
<event>
12    1  0.1594973E-001  0.2232118E+03  0.7818608E-02  0.1131850E+00
         21   -1    0    0  501  502  0.00000000000E+00  0.00000000000E+00  0.93961951285E+02  0.93961951285E+02  0.00000000000E+00 0. -1.
         21   -1    0    0  502  503 -0.00000000000E+00 -0.00000000000E+00 -0.84047658028E+03  0.84047658028E+03  0.00000000000E+00 0.  1.
         -6    2    1    2    0  503  0.13059592608E+03 -0.54471361877E+02 -0.65813695496E+03  0.69436749243E+03  0.17023377422E+03 0.  0.
        -24    2    3    3    0    0  0.33756040794E+02 -0.21291656714E+02 -0.47519337456E+03  0.48467891423E+03  0.86672381635E+02 0.  0.
          6    2    1    2  501    0 -0.13059592608E+03  0.54471361877E+02 -0.88377674032E+02  0.24007103913E+03  0.17262985081E+03 0.  0.
         24    2    5    5    0    0 -0.50801118634E+02  0.82199385249E+02 -0.91971780210E+02  0.15538891484E+03  0.79683209714E+02 0.  0.
          5    1    5    5  501    0 -0.79794807447E+02 -0.27728023371E+02  0.35941061787E+01  0.84682124293E+02  0.47000000000E+01 0. -1.
        -11    1    6    6    0    0 -0.32763179788E+02  0.21997073224E+01 -0.57943809222E+02  0.66601424078E+02  0.00000000000E+00 0.  1.
         12    1    6    6    0    0 -0.18037938845E+02  0.79999677926E+02 -0.34027970989E+02  0.88787490762E+02  0.00000000000E+00 0. -1.
         -5    1    3    3    0  503  0.96839885287E+02 -0.33179705163E+02 -0.18294358040E+03  0.20968857820E+03  0.47000000000E+01 0.  1.
         11    1    4    4    0    0 -0.29165824542E+02 -0.13304509855E+01 -0.13125720215E+03  0.13446512015E+03  0.00000000000E+00 0. -1.
        -12    1    4    4    0    0  0.62921865336E+02 -0.19961205729E+02 -0.34393617241E+03  0.35021379408E+03  0.00000000000E+00 0.  1.
</event>
<event>
12    1  0.1594973E-001  0.1965816E+03  0.7818608E-02  0.1152753E+00
         21   -1    0    0  503  502  0.00000000000E+00  0.00000000000E+00  0.38240964513E+03  0.38240964513E+03  0.00000000000E+00 0. -1.
         21   -1    0    0  501  503 -0.00000000000E+00 -0.00000000000E+00 -0.11838852945E+03  0.11838852945E+03  0.00000000000E+00 0. -1.
          6    2    1    2  501    0 -0.20063310271E+02 -0.93912818301E+02  0.35687881375E+02  0.19979481451E+03  0.17152897472E+03 0.  0.
         24    2    3    3    0    0 -0.46593268642E+02 -0.14301926096E+02 -0.22409396512E+02  0.97622819590E+02  0.81563202977E+02 0.  0.
         -6    2    1    2    0  502  0.20063310271E+02  0.93912818301E+02  0.22833323431E+03  0.30100336006E+03  0.17101111957E+03 0.  0.
        -24    2    5    5    0    0 -0.31721517735E+02  0.52043646214E+02  0.20809294296E+03  0.23124337599E+03  0.80349425853E+02 0.  0.
          5    1    3    3  501    0  0.26529958371E+02 -0.79610892205E+02  0.58097277886E+02  0.10217199492E+03  0.47000000000E+01 0. -1.
        -13    1    4    4    0    0 -0.60459510113E+02 -0.22954448459E+02 -0.38022295798E+02  0.75019691048E+02  0.00000000000E+00 0.  1.
         14    1    4    4    0    0  0.13866241470E+02  0.86525223627E+01  0.15612899287E+02  0.22603128542E+02  0.00000000000E+00 0. -1.
         -5    1    5    5    0  502  0.51784828007E+02  0.41869172088E+02  0.20240291354E+02  0.69759984067E+02  0.47000000000E+01 0.  1.
         13    1    6    6    0    0 -0.16474989358E+02  0.46358373076E+02  0.42973703557E+02  0.65324292771E+02  0.00000000000E+00 0. -1.
        -14    1    6    6    0    0 -0.15246528378E+02  0.56852731375E+01  0.16511923940E+03  0.16591908322E+03  0.00000000000E+00 0.  1.
</event>
<event>
12    1  0.1594973E-001  0.2021767E+03  0.7818608E-02  0.1148226E+00
         21   -1    0    0  503  502  0.00000000000E+00  0.00000000000E+00  0.20432062637E+03  0.20432062637E+03  0.00000000000E+00 0. -1.
         21   -1    0    0  501  503 -0.00000000000E+00 -0.00000000000E+00 -0.24754362970E+03  0.24754362970E+03  0.00000000000E+00 0. -1.
          6    2    1    2  501    0  0.79949944434E+02  0.69105753695E+02 -0.12214922975E+03  0.23621147796E+03  0.17235959266E+03 0.  0.
         24    2    3    3    0    0  0.68119696841E+02  0.73583694282E+02 -0.15477781227E+03  0.20090253990E+03  0.79691945665E+02 0.  0.
         -6    2    1    2    0  502 -0.79949944434E+02 -0.69105753695E+02  0.78926226416E+02  0.21565277811E+03  0.17061410458E+03 0.  0.
        -24    2    5    5    0    0 -0.35679619751E+02 -0.10558536004E+03  0.26794306234E+02  0.13799680327E+03  0.76836705733E+02 0.  0.
          5    1    3    3  501    0  0.11830247593E+02 -0.44779405867E+01  0.32628582518E+02  0.35308938063E+02  0.47000000000E+01 0. -1.
        -13    1    4    4    0    0  0.26396038495E+02 -0.14773602055E+02 -0.32936668682E+02  0.44719507039E+02  0.00000000000E+00 0.  1.
         14    1    4    4    0    0  0.41723658346E+02  0.88357296337E+02 -0.12184114359E+03  0.15618303286E+03  0.00000000000E+00 0. -1.
         -5    1    5    5    0  502 -0.44270324683E+02  0.36479606340E+02  0.52131920182E+02  0.77655974839E+02  0.47000000000E+01 0.  1.
         11    1    6    6    0    0 -0.46117281045E+02 -0.43387895392E+02 -0.11296999567E+02  0.64319011783E+02  0.00000000000E+00 0. -1.
        -12    1    6    6    0    0  0.10437661294E+02 -0.62197464644E+02  0.38091305801E+02  0.73677791491E+02  0.00000000000E+00 0.  1.
</event>
<event>
12    1  0.1594973E-001  0.2299626E+03  0.7818608E-02  0.1127350E+00
         21   -1    0    0  501  502  0.00000000000E+00  0.00000000000E+00  0.13385323484E+04  0.13385323484E+04  0.00000000000E+00 0.  1.
         21   -1    0    0  502  503 -0.00000000000E+00 -0.00000000000E+00 -0.38863791000E+02  0.38863791000E+02  0.00000000000E+00 0. -1.
         -6    2    1    2    0  503 -0.23429111594E+02 -0.14598903594E+03  0.64177773574E+03  0.68173416110E+03  0.17612802852E+03 0.  0.
        -24    2    3    3    0    0  0.67101737000E+01 -0.10706862683E+03  0.22239732795E+03  0.25944848622E+03  0.79650663801E+02 0.  0.
          6    2    1    2  501    0  0.23429111594E+02  0.14598903594E+03  0.65789082167E+03  0.69566197832E+03  0.17106587313E+03 0.  0.
         24    2    5    5    0    0 -0.44968955078E+02  0.58840507854E+02  0.41586216854E+03  0.42944191820E+03  0.77424838379E+02 0.  0.
          5    1    5    5  501    0  0.68398066671E+02  0.87148528084E+02  0.24202865313E+03  0.26622006012E+03  0.47000000000E+01 0. -1.
        -13    1    6    6    0    0 -0.74547345734E+00  0.60826568321E+02  0.28067334156E+03  0.28718974878E+03  0.00000000000E+00 0.  1.
         14    1    6    6    0    0 -0.44223481621E+02 -0.19860604674E+01  0.13518882698E+03  0.14225216941E+03  0.00000000000E+00 0. -1.
         -5    1    3    3    0  503 -0.30139285294E+02 -0.38920409112E+02  0.41938040779E+03  0.42228567487E+03  0.47000000000E+01 0.  1.
         11    1    4    4    0    0 -0.12253088762E+01  0.90997055104E+01  0.91967387631E+00  0.92277745019E+01  0.00000000000E+00 0. -1.
        -12    1    4    4    0    0  0.79354825762E+01 -0.11616833234E+03  0.22147765407E+03  0.25022071172E+03  0.00000000000E+00 0.  1.
</event>
<event>
12    1  0.1594973E-001  0.2020097E+03  0.7818608E-02  0.1148239E+00
         21   -1    0    0  501  502  0.00000000000E+00  0.00000000000E+00  0.39625363135E+03  0.39625363135E+03  0.00000000000E+00 0.  1.
         21   -1    0    0  502  503 -0.00000000000E+00 -0.00000000000E+00 -0.16557235911E+03  0.16557235911E+03  0.00000000000E+00 0. -1.
         -6    2    1    2    0  503 -0.24224449238E+02  0.10374436408E+03 -0.57835088167E+02  0.21012567348E+03  0.17163386674E+03 0.  0.
        -24    2    3    3    0    0 -0.78424933969E+02  0.89973372359E+02 -0.55600692491E+02  0.15396149199E+03  0.79793646413E+02 0.  0.
          6    2    1    2  501    0  0.24224449238E+02 -0.10374436408E+03  0.28851636040E+03  0.35170031699E+03  0.17059222060E+03 0.  0.
         24    2    5    5    0    0  0.29415881497E+02  0.10585489678E+02  0.13777551020E+03  0.16237741729E+03  0.80043661583E+02 0.  0.
          5    1    5    5  501    0 -0.51914322592E+01 -0.11432985376E+03  0.15074085020E+03  0.18932289970E+03  0.47000000000E+01 0. -1.
        -13    1    6    6    0    0 -0.18252940884E+02 -0.17049229892E+02  0.73972568311E+02  0.78075520833E+02  0.00000000000E+00 0.  1.
         14    1    6    6    0    0  0.47668822381E+02  0.27634719570E+02  0.63802941889E+02  0.84301896459E+02  0.00000000000E+00 0. -1.
         -5    1    3    3    0  503  0.54200484731E+02  0.13770991721E+02 -0.22343956762E+01  0.56164181487E+02  0.47000000000E+01 0.  1.
         13    1    4    4    0    0 -0.11280714126E+02  0.41413797678E+02 -0.56670705055E+02  0.71090969615E+02  0.00000000000E+00 0. -1.
        -14    1    4    4    0    0 -0.67144219843E+02  0.48559574681E+02  0.10700125641E+01  0.82870522373E+02  0.00000000000E+00 0.  1.
</event>
<event>
12    1  0.1594973E-001  0.2013739E+03  0.7818608E-02  0.1148716E+00
         21   -1    0    0  501  502  0.00000000000E+00  0.00000000000E+00  0.12646327417E+04  0.12646327417E+04  0.00000000000E+00 0.  1.
         21   -1    0    0  502  503 -0.00000000000E+00 -0.00000000000E+00 -0.81031976573E+02  0.81031976573E+02  0.00000000000E+00 0.  1.
         -6    2    1    2    0  503 -0.92239427018E+02 -0.48305839953E+02  0.11157251748E+04  0.11337522247E+04  0.17236552774E+03 0.  0.
        -24    2    3    3    0    0  0.84029117363E+01 -0.28207974070E+01  0.15859558241E+03  0.17026018209E+03  0.61297675513E+02 0.  0.
          6    2    1    2  501    0  0.92239427018E+02  0.48305839953E+02  0.67875590308E+02  0.21191249360E+03  0.17163403833E+03 0.  0.
         24    2    5    5    0    0  0.54066478214E+02  0.88231899021E+02  0.87494737335E+01  0.13086157211E+03  0.79625031827E+02 0.  0.
          5    1    5    5  501    0  0.38172948804E+02 -0.39926059068E+02  0.59126116574E+02  0.81050921489E+02  0.47000000000E+01 0. -1.
        -11    1    6    6    0    0  0.17146382605E+02  0.90416701270E+02 -0.29353848473E+01  0.92074941158E+02  0.00000000000E+00 0.  1.
         12    1    6    6    0    0  0.36920095609E+02 -0.21848022491E+01  0.11684858581E+02  0.38786630953E+02  0.00000000000E+00 0. -1.
         -5    1    3    3    0  503 -0.10064233875E+03 -0.45485042546E+02  0.95712959239E+03  0.96349204256E+03  0.47000000000E+01 0.  1.
         13    1    4    4    0    0 -0.38654749353E+01 -0.29929111824E+02  0.58350673698E+02  0.65692425378E+02  0.00000000000E+00 0. -1.
        -14    1    4    4    0    0  0.12268386672E+02  0.27108314417E+02  0.10024490871E+03  0.10456775672E+03  0.00000000000E+00 0.  1.
</event>
<event>
12    1  0.1594973E-001  0.3149915E+03  0.7818608E-02  0.1077993E+00
         21   -1    0    0  501  502  0.00000000000E+00  0.00000000000E+00  0.20729477890E+03  0.20729477890E+03  0.00000000000E+00 0. -1.
         21   -1    0    0  502  503 -0.00000000000E+00 -0.00000000000E+00 -0.82973450925E+03  0.82973450925E+03  0.00000000000E+00 0. -1.
         -6    2    1    2    0  503 -0.25220392068E+03  0.74003944255E+02 -0.64863862005E+03  0.72107677036E+03  0.17359794918E+03 0.  0.
        -24    2    3    3    0    0 -0.53497476199E+02 -0.92721506075E+01 -0.15057773743E+03  0.17839279984E+03  0.78755211199E+02 0.  0.
          6    2    1    2  501    0  0.25220392068E+03 -0.74003944255E+02  0.26198889700E+02  0.31595251779E+03  0.17336726999E+03 0.  0.
         24    2    5    5    0    0  0.46479759651E+02 -0.46354437392E+02 -0.17930029511E+02  0.10368764276E+03  0.78233876160E+02 0.  0.
          5    1    5    5  501    0  0.20572416103E+03 -0.27649506863E+02  0.44128919212E+02  0.21226487504E+03  0.47000000000E+01 0. -1.
        -11    1    6    6    0    0  0.15250629967E+02  0.21551128861E+02  0.15551114465E+01  0.26447140511E+02  0.00000000000E+00 0.  1.
         12    1    6    6    0    0  0.31229129684E+02 -0.67905566253E+02 -0.19485140958E+02  0.77240502246E+02  0.00000000000E+00 0. -1.
         -5    1    3    3    0  503 -0.19870644449E+03  0.83276094863E+02 -0.49806088262E+03  0.54268397052E+03  0.47000000000E+01 0.  1.
         13    1    4    4    0    0 -0.30383703993E+02  0.26367547483E+02 -0.11855911093E+03  0.12519856154E+03  0.00000000000E+00 0. -1.
        -14    1    4    4    0    0 -0.23113772206E+02 -0.35639698090E+02 -0.32018626501E+02  0.53194238303E+02  0.00000000000E+00 0.  1.
</event>
<event>
12    1  0.1594973E-001  0.2830497E+03  0.7818608E-02  0.1094111E+00
         21   -1    0    0  501  502  0.00000000000E+00  0.00000000000E+00  0.16695398743E+04  0.16695398743E+04  0.00000000000E+00 0. -1.
         21   -1    0    0  502  503 -0.00000000000E+00 -0.00000000000E+00 -0.80602142039E+02  0.80602142039E+02  0.00000000000E+00 0. -1.
         -6    2    1    2    0  503 -0.21690678219E+03  0.56063877106E+02  0.23654507819E+03  0.36844631589E+03  0.17206801912E+03 0.  0.
        -24    2    3    3    0    0 -0.15086893206E+03 -0.26309183364E+02  0.17537337126E+03  0.24633822251E+03  0.80455532639E+02 0.  0.
          6    2    1    2  501    0  0.21690678219E+03 -0.56063877106E+02  0.13523926541E+04  0.13816957005E+04  0.17298961636E+03 0.  0.
         24    2    5    5    0    0  0.23328312468E+03 -0.50077267290E+02  0.13260084528E+04  0.13497232097E+04  0.80781042607E+02 0.  0.
          5    1    5    5  501    0 -0.16376342488E+02 -0.59866098161E+01  0.26384201290E+02  0.31972490803E+02  0.47000000000E+01 0. -1.
        -13    1    6    6    0    0  0.34852922945E+02  0.56453841831E+01  0.37382748527E+03  0.37549112552E+03  0.00000000000E+00 0.  1.
         14    1    6    6    0    0  0.19843020173E+03 -0.55722651473E+02  0.95218096752E+03  0.97423208413E+03  0.00000000000E+00 0. -1.
         -5    1    3    3    0  503 -0.66037850132E+02  0.82373060469E+02  0.61171706930E+02  0.12210809338E+03  0.47000000000E+01 0.  1.
         11    1    4    4    0    0 -0.12772099501E+03 -0.11216780337E+02  0.90115614089E+02  0.15671404733E+03  0.00000000000E+00 0. -1.
        -12    1    4    4    0    0 -0.23147937044E+02 -0.15092403027E+02  0.85257757168E+02  0.89624175175E+02  0.00000000000E+00 0.  1.
</event>
<event>
12    1  0.1594973E-001  0.2013948E+03  0.7818608E-02  0.1148912E+00
         21   -1    0    0  501  502  0.00000000000E+00  0.00000000000E+00  0.90257057499E+02  0.90257057499E+02  0.00000000000E+00 0.  1.
         21   -1    0    0  502  503 -0.00000000000E+00 -0.00000000000E+00 -0.47395952664E+03  0.47395952664E+03  0.00000000000E+00 0.  1.
         -6    2    1    2    0  503 -0.10469963624E+03  0.15762321274E+02 -0.26143362346E+03  0.33001119338E+03  0.17131661823E+03 0.  0.
        -24    2    3    3    0    0 -0.13263834987E+03  0.39569648672E+02 -0.18009594345E+03  0.24065086244E+03  0.79495910531E+02 0.  0.
          6    2    1    2  501    0  0.10469963624E+03 -0.15762321274E+02 -0.12226884568E+03  0.23420539076E+03  0.16938721863E+03 0.  0.
         24    2    5    5    0    0  0.19968633165E+02 -0.41435166860E+02 -0.16204601510E+02  0.95965918194E+02  0.82651370113E+02 0.  0.
          5    1    5    5  501    0  0.84731003077E+02  0.25672845585E+02 -0.10606424417E+03  0.13823947256E+03  0.47000000000E+01 0. -1.
        -13    1    6    6    0    0 -0.29002914315E+02 -0.51846970674E+00  0.34025704790E+01  0.29206426270E+02  0.00000000000E+00 0.  1.
         14    1    6    6    0    0  0.48971547480E+02 -0.40916697153E+02 -0.19607171989E+02  0.66759491923E+02  0.00000000000E+00 0. -1.
         -5    1    3    3    0  503  0.27938713633E+02 -0.23807327398E+02 -0.81337680004E+02  0.89360330940E+02  0.47000000000E+01 0.  1.
         13    1    4    4    0    0 -0.11013161180E+03  0.39617745570E+02 -0.18374028237E+03  0.21785093309E+03  0.00000000000E+00 0. -1.
        -14    1    4    4    0    0 -0.22506738076E+02 -0.48096897129E-01  0.36443389216E+01  0.22799929349E+02  0.00000000000E+00 0.  1.
</event>
<event>
12    1  0.1594973E-001  0.1963959E+03  0.7818608E-02  0.1155031E+00
         21   -1    0    0  501  502  0.00000000000E+00  0.00000000000E+00  0.12983052596E+04  0.12983052596E+04  0.00000000000E+00 0.  1.
         21   -1    0    0  502  503 -0.00000000000E+00 -0.00000000000E+00 -0.28298730697E+02  0.28298730697E+02  0.00000000000E+00 0.  1.
         -6    2    1    2    0  503  0.49515556984E+02  0.50859404490E+02  0.65355419389E+03  0.67962267419E+03  0.17238162751E+03 0.  0.
        -24    2    3    3    0    0  0.22793837282E+02 -0.23966685587E+02  0.18539303331E+03  0.20474378822E+03  0.80346007850E+02 0.  0.
          6    2    1    2  501    0 -0.49515556984E+02 -0.50859404490E+02  0.61645233505E+03  0.64698131615E+03  0.18311983140E+03 0.  0.
         24    2    5    5    0    0  0.93275801790E+01 -0.85922322600E+02  0.47053225162E+03  0.48571543704E+03  0.83959732558E+02 0.  0.
          5    1    5    5  501    0 -0.58843137163E+02  0.35062918110E+02  0.14592008343E+03  0.16126587911E+03  0.47000000000E+01 0. -1.
        -11    1    6    6    0    0  0.97017145354E+01 -0.41098464982E+02  0.39947574046E+03  0.40170147412E+03  0.00000000000E+00 0.  1.
         12    1    6    6    0    0 -0.37413435636E+00 -0.44823857618E+02  0.71056511156E+02  0.84013962923E+02  0.00000000000E+00 0. -1.
         -5    1    3    3    0  503  0.26721719702E+02  0.74826090077E+02  0.46816116058E+03  0.47487888597E+03  0.47000000000E+01 0.  1.
         11    1    4    4    0    0 -0.21647143752E+02 -0.37877965924E+01  0.12584434198E+03  0.12774875594E+03  0.00000000000E+00 0. -1.
        -12    1    4    4    0    0  0.44440981034E+02 -0.20178888995E+02  0.59548691331E+02  0.76995032279E+02  0.00000000000E+00 0.  1.
</event>
<event>
12    1  0.1594973E-001  0.3063628E+03  0.7818608E-02  0.1082115E+00
         21   -1    0    0  501  502  0.00000000000E+00  0.00000000000E+00  0.26952528584E+03  0.26952528584E+03  0.00000000000E+00 0.  1.
         21   -1    0    0  502  503 -0.00000000000E+00 -0.00000000000E+00 -0.51080013082E+03  0.51080013082E+03  0.00000000000E+00 0. -1.
         -6    2    1    2    0  503  0.14051309902E+03  0.21160497987E+03 -0.34083681481E+03  0.45828798417E+03  0.17128205860E+03 0.  0.
        -24    2    3    3    0    0  0.10932451598E+03  0.20005292192E+03 -0.34824618929E+03  0.42389079555E+03  0.80218307352E+02 0.  0.
          6    2    1    2  501    0 -0.14051309902E+03 -0.21160497987E+03  0.99561969827E+02  0.32203743249E+03  0.17109916302E+03 0.  0.
         24    2    5    5    0    0 -0.13483916935E+03 -0.99600625022E+02  0.22764480801E+02  0.18603333952E+03  0.77384079324E+02 0.  0.
          5    1    5    5  501    0 -0.56739296751E+01 -0.11200435485E+03  0.76797489026E+02  0.13600409297E+03  0.47000000000E+01 0. -1.
        -11    1    6    6    0    0 -0.19709183425E+02 -0.52660273146E+02  0.25343006049E+02  0.61675150869E+02  0.00000000000E+00 0.  1.
         12    1    6    6    0    0 -0.11512998592E+03 -0.46940351876E+02 -0.25785252481E+01  0.12435818865E+03  0.00000000000E+00 0. -1.
         -5    1    3    3    0  503  0.31188583040E+02  0.11552057947E+02  0.74093744730E+01  0.34397188619E+02  0.47000000000E+01 0.  1.
         13    1    4    4    0    0  0.67492414362E+02  0.18396690162E+03 -0.26832976434E+03  0.33226481806E+03  0.00000000000E+00 0. -1.
        -14    1    4    4    0    0  0.41832101620E+02  0.16086020304E+02 -0.79916424949E+02  0.91625977495E+02  0.00000000000E+00 0.  1.
</event>
<event>
12    1  0.1594973E-001  0.1879387E+03  0.7818608E-02  0.1161710E+00
         21   -1    0    0  501  502  0.00000000000E+00  0.00000000000E+00  0.37111602284E+02  0.37111602284E+02  0.00000000000E+00 0. -1.
         21   -1    0    0  502  503 -0.00000000000E+00 -0.00000000000E+00 -0.11472740931E+04  0.11472740931E+04  0.00000000000E+00 0. -1.
         -6    2    1    2    0  503  0.93900133448E+01 -0.75250082674E+02 -0.82458360558E+03  0.84572991518E+03  0.17195993586E+03 0.  0.
        -24    2    3    3    0    0  0.44060159398E+02 -0.43483816610E+02 -0.75156129382E+03  0.75875024685E+03  0.83817771255E+02 0.  0.
          6    2    1    2  501    0 -0.93900133448E+01  0.75250082674E+02 -0.28557888527E+03  0.33865578024E+03  0.16547413842E+03 0.  0.
         24    2    5    5    0    0  0.73207507896E+01 -0.20566792374E+02 -0.15787932886E+03  0.17806502742E+03  0.79402047647E+02 0.  0.
          5    1    5    5  501    0 -0.16710764134E+02  0.95816875048E+02 -0.12769955641E+03  0.16059075281E+03  0.47000000000E+01 0. -1.
        -11    1    6    6    0    0  0.12299103114E+02  0.14409960498E+02 -0.13420830104E+03  0.13553886146E+03  0.00000000000E+00 0.  1.
         12    1    6    6    0    0 -0.49783523248E+01 -0.34976752872E+02 -0.23671027816E+02  0.42526165959E+02  0.00000000000E+00 0. -1.
         -5    1    3    3    0  503 -0.34670146053E+02 -0.31766266064E+02 -0.73022311768E+02  0.86979668331E+02  0.47000000000E+01 0.  1.
         11    1    4    4    0    0 -0.20074539064E+02 -0.31799206688E+02 -0.33748609827E+03  0.33957479764E+03  0.00000000000E+00 0. -1.
        -12    1    4    4    0    0  0.64134698462E+02 -0.11684609922E+02 -0.41407519554E+03  0.41917544921E+03  0.00000000000E+00 0.  1.
</event>
<event>
12    1  0.1594973E-001  0.2097092E+03  0.7818608E-02  0.1141900E+00
         21   -1    0    0  503  502  0.00000000000E+00  0.00000000000E+00  0.19921425490E+03  0.19921425490E+03  0.00000000000E+00 0.  1.
         21   -1    0    0  501  503 -0.00000000000E+00 -0.00000000000E+00 -0.89556927191E+03  0.89556927191E+03  0.00000000000E+00 0.  1.
          6    2    1    2  501    0  0.11521329651E+03  0.37673201646E+02 -0.82342460646E+03  0.84958029175E+03  0.17048523628E+03 0.  0.
         24    2    3    3    0    0  0.85613919425E+02 -0.25230358726E+02 -0.67453256962E+03  0.68519078580E+03  0.80783112514E+02 0.  0.
         -6    2    1    2    0  502 -0.11521329651E+03 -0.37673201646E+02  0.12706958945E+03  0.24520323506E+03  0.17112735639E+03 0.  0.
        -24    2    5    5    0    0 -0.83002579635E+02 -0.91645705101E+02  0.89293124369E+02  0.17172049746E+03  0.78906930616E+02 0.  0.
          5    1    3    3  501    0  0.29599377083E+02  0.62903560373E+02 -0.14889203684E+03  0.16438950595E+03  0.47000000000E+01 0. -1.
        -13    1    4    4    0    0  0.22418839023E+02  0.28669207856E+02 -0.24673486192E+03  0.24940453065E+03  0.00000000000E+00 0.  1.
         14    1    4    4    0    0  0.63195080403E+02 -0.53899566582E+02 -0.42779770770E+03  0.43578625515E+03  0.00000000000E+00 0. -1.
         -5    1    5    5    0  502 -0.32210716874E+02  0.53972503455E+02  0.37776465086E+02  0.73482737599E+02  0.47000000000E+01 0.  1.
         11    1    6    6    0    0  0.69900334245E+01 -0.44076332010E+02  0.22570745777E+02  0.50010220712E+02  0.00000000000E+00 0. -1.
        -12    1    6    6    0    0 -0.89992613059E+02 -0.47569373092E+02  0.66722378592E+02  0.12171027675E+03  0.00000000000E+00 0.  1.
</event>
<event>
12    1  0.1594973E-001  0.1808127E+03  0.7818608E-02  0.1167319E+00
         21   -1    0    0  501  502  0.00000000000E+00  0.00000000000E+00  0.18969524532E+03  0.18969524532E+03  0.00000000000E+00 0.  1.
         21   -1    0    0  502  503 -0.00000000000E+00 -0.00000000000E+00 -0.21942864975E+03  0.21942864975E+03  0.00000000000E+00 0.  1.
         -6    2    1    2    0  503 -0.55022622837E+02 -0.45755469774E+01 -0.11076572598E+03  0.21098389959E+03  0.17087052168E+03 0.  0.
        -24    2    3    3    0    0 -0.55246133973E+02  0.45734931101E+02 -0.11836289227E+03  0.15988594369E+03  0.80061985242E+02 0.  0.
          6    2    1    2  501    0  0.55022622837E+02  0.45755469774E+01  0.81032321555E+02  0.19813999548E+03  0.17217664191E+03 0.  0.
         24    2    5    5    0    0  0.56862667592E+02 -0.59296124688E+02  0.65003942805E+02  0.13209474485E+03  0.80461889538E+02 0.  0.
          5    1    5    5  501    0 -0.18400447545E+01  0.63871671665E+02  0.16028378750E+02  0.66045250634E+02  0.47000000000E+01 0. -1.
        -13    1    6    6    0    0  0.63065599874E+02 -0.43376237657E+02  0.13362423412E+02  0.77700207466E+02  0.00000000000E+00 0.  1.
         14    1    6    6    0    0 -0.62029322826E+01 -0.15919887031E+02  0.51641519392E+02  0.54394537383E+02  0.00000000000E+00 0. -1.
         -5    1    3    3    0  503  0.22351113535E+00 -0.50310478078E+02  0.75971662850E+01  0.51097955901E+02  0.47000000000E+01 0.  1.
         11    1    4    4    0    0  0.18438088818E+02  0.24168810780E+02 -0.39230382688E+02  0.49629804146E+02  0.00000000000E+00 0. -1.
        -12    1    4    4    0    0 -0.73684222791E+02  0.21566120321E+02 -0.79132509582E+02  0.11025613954E+03  0.00000000000E+00 0.  1.
</event>
<event>
12    1  0.1594973E-001  0.2573729E+03  0.7818608E-02  0.1108925E+00
         21   -1    0    0  503  502  0.00000000000E+00  0.00000000000E+00  0.12951373312E+03  0.12951373312E+03  0.00000000000E+00 0. -1.
         21   -1    0    0  501  503 -0.00000000000E+00 -0.00000000000E+00 -0.64894144214E+03  0.64894144214E+03  0.00000000000E+00 0.  1.
          6    2    1    2  501    0 -0.18017389420E+03 -0.60132277338E+02 -0.43999619955E+03  0.50910379760E+03  0.17178910961E+03 0.  0.
         24    2    3    3    0    0 -0.29436717838E+02 -0.18212342584E+02 -0.87580855597E+02  0.12349046546E+03  0.79882908140E+02 0.  0.
         -6    2    1    2    0  502  0.18017389420E+03  0.60132277338E+02 -0.79431509475E+02  0.26935137767E+03  0.17367290239E+03 0.  0.
        -24    2    5    5    0    0  0.82777673012E+02 -0.25065992318E+02 -0.79451515037E+02  0.13986446924E+03  0.75954456045E+02 0.  0.
          5    1    3    3  501    0 -0.15073717636E+03 -0.41919934754E+02 -0.35241534395E+03  0.38561333214E+03  0.47000000000E+01 0. -1.
        -11    1    4    4    0    0 -0.19296774921E+02 -0.50049103650E+02 -0.54749677239E+02  0.76647279510E+02  0.00000000000E+00 0.  1.
         12    1    4    4    0    0 -0.10139942917E+02  0.31836761066E+02 -0.32831178358E+02  0.46843185949E+02  0.00000000000E+00 0. -1.
         -5    1    5    5    0  502  0.97396221191E+02  0.85198269656E+02  0.20005562176E-01  0.12948690843E+03  0.47000000000E+01 0.  1.
         13    1    6    6    0    0  0.36091581883E+02  0.18322160088E+01  0.81253803869E+01  0.37040263292E+02  0.00000000000E+00 0. -1.
        -14    1    6    6    0    0  0.46686091129E+02 -0.26898208327E+02 -0.87576895424E+02  0.10282420595E+03  0.00000000000E+00 0.  1.
</event>
<event>
12    1  0.1594973E-001  0.2676506E+03  0.7818608E-02  0.1102921E+00
         21   -1    0    0  501  502  0.00000000000E+00  0.00000000000E+00  0.25347261173E+03  0.25347261173E+03  0.00000000000E+00 0.  1.
         21   -1    0    0  502  503 -0.00000000000E+00 -0.00000000000E+00 -0.61279366333E+03  0.61279366333E+03  0.00000000000E+00 0.  1.
         -6    2    1    2    0  503  0.56076349046E+02 -0.19469645734E+03 -0.49829420108E+03  0.56468648842E+03  0.17182098811E+03 0.  0.
        -24    2    3    3    0    0  0.10052121192E+03 -0.10027177319E+03 -0.28318705855E+03  0.32555359738E+03  0.75041935550E+02 0.  0.
          6    2    1    2  501    0 -0.56076349046E+02  0.19469645734E+03  0.13897314948E+03  0.30157978664E+03  0.17488728944E+03 0.  0.
         24    2    5    5    0    0 -0.71420715483E+01  0.14349441911E+03  0.24144488615E+02  0.16658377341E+03  0.80780812883E+02 0.  0.
          5    1    5    5  501    0 -0.48934277498E+02  0.51202038233E+02  0.11482866086E+03  0.13499601323E+03  0.47000000000E+01 0. -1.
        -11    1    6    6    0    0  0.32151729251E+02  0.98199127794E+02  0.26150498601E+02  0.10658635452E+03  0.00000000000E+00 0.  1.
         12    1    6    6    0    0 -0.39293800799E+02  0.45295291315E+02 -0.20060099852E+01  0.59997418882E+02  0.00000000000E+00 0. -1.
         -5    1    3    3    0  503 -0.44444862873E+02 -0.94424684155E+02 -0.21510714253E+03  0.23913289105E+03  0.47000000000E+01 0.  1.
         11    1    4    4    0    0  0.95101384473E+02 -0.10869522798E+03 -0.27998032629E+03  0.31503636143E+03  0.00000000000E+00 0. -1.
        -12    1    4    4    0    0  0.54198274461E+01  0.84234547915E+01 -0.32067322607E+01  0.10517235947E+02  0.00000000000E+00 0.  1.
</event>
<event>
12    1  0.1594973E-001  0.1875979E+03  0.7818608E-02  0.1160799E+00
         21   -1    0    0  503  502  0.00000000000E+00  0.00000000000E+00  0.13460160303E+03  0.13460160303E+03  0.00000000000E+00 0.  1.
         21   -1    0    0  501  503 -0.00000000000E+00 -0.00000000000E+00 -0.28784253451E+03  0.28784253451E+03  0.00000000000E+00 0.  1.
          6    2    1    2  501    0 -0.48184630384E+02  0.57182685408E+02 -0.14156160493E+03  0.23448302271E+03  0.17132128249E+03 0.  0.
         24    2    3    3    0    0  0.25346604922E+02 -0.14178081834E+02 -0.72830609357E+02  0.11101140080E+03  0.78586036048E+02 0.  0.
         -6    2    1    2    0  502  0.48184630384E+02 -0.57182685408E+02 -0.11679326556E+02  0.18796111483E+03  0.17205044581E+03 0.  0.
        -24    2    5    5    0    0  0.41313474254E+02  0.13619284507E+02 -0.52474054593E+02  0.10582445087E+03  0.80950601797E+02 0.  0.
          5    1    3    3  501    0 -0.73531235306E+02  0.71360767242E+02 -0.68730995572E+02  0.12347162192E+03  0.47000000000E+01 0. -1.
        -11    1    4    4    0    0 -0.10048451047E+01 -0.18277031421E+02 -0.81060915944E+02  0.83101935507E+02  0.00000000000E+00 0.  1.
         12    1    4    4    0    0  0.26351450026E+02  0.40989495869E+01  0.82303065869E+01  0.27909465289E+02  0.00000000000E+00 0. -1.
         -5    1    5    5    0  502  0.68711561305E+01 -0.70801969915E+02  0.40794728036E+02  0.82136663957E+02  0.47000000000E+01 0.  1.
         13    1    6    6    0    0  0.64613908419E+02  0.11010786773E+02 -0.26140207347E+02  0.70565607959E+02  0.00000000000E+00 0. -1.
        -14    1    6    6    0    0 -0.23300434165E+02  0.26084977342E+01 -0.26333847246E+02  0.35258842912E+02  0.00000000000E+00 0.  1.
</event>
<event>
12    1  0.1594973E-001  0.2166300E+03  0.7818608E-02  0.1136450E+00
         21   -1    0    0  501  502  0.00000000000E+00  0.00000000000E+00  0.17486196249E+03  0.17486196249E+03  0.00000000000E+00 0. -1.
         21   -1    0    0  502  503 -0.00000000000E+00 -0.00000000000E+00 -0.26910841023E+03  0.26910841023E+03  0.00000000000E+00 0.  1.
         -6    2    1    2    0  503 -0.13096510285E+03  0.11332753846E+02 -0.34076051539E+02  0.21913922269E+03  0.17198991877E+03 0.  0.
        -24    2    3    3    0    0 -0.11309650207E+03  0.66534246628E+02 -0.59191203167E+01  0.15447551977E+03  0.81302063120E+02 0.  0.
          6    2    1    2  501    0  0.13096510285E+03 -0.11332753846E+02 -0.60170396206E+02  0.22483115003E+03  0.17218675899E+03 0.  0.
         24    2    5    5    0    0  0.14187456276E+03  0.77565758943E+01 -0.80848335878E+02  0.19428469337E+03  0.10498348745E+03 0.  0.
          5    1    5    5  501    0 -0.10909459907E+02 -0.19089329740E+02  0.20677939672E+02  0.30546456660E+02  0.47000000000E+01 0. -1.
        -13    1    6    6    0    0  0.14722090136E+03  0.57459831130E+01 -0.39489608099E+02  0.15253340377E+03  0.00000000000E+00 0.  1.
         14    1    6    6    0    0 -0.53463386023E+01  0.20105927813E+01 -0.41358727779E+02  0.41751289601E+02  0.00000000000E+00 0. -1.
         -5    1    3    3    0  503 -0.17868600781E+02 -0.55201492783E+02 -0.28156931222E+02  0.64663702919E+02  0.47000000000E+01 0.  1.
         13    1    4    4    0    0 -0.41002153654E+02  0.29422676104E+02  0.37146029068E+02  0.62663370073E+02  0.00000000000E+00 0. -1.
        -14    1    4    4    0    0 -0.72094348414E+02  0.37111570524E+02 -0.43065149384E+02  0.91812149695E+02  0.00000000000E+00 0.  1.
</event>
<event>
12    1  0.1594973E-001  0.2336140E+03  0.7818608E-02  0.1124217E+00
         21   -1    0    0  501  502  0.00000000000E+00  0.00000000000E+00  0.38337871767E+03  0.38337871767E+03  0.00000000000E+00 0.  1.
         21   -1    0    0  502  503 -0.00000000000E+00 -0.00000000000E+00 -0.14480379435E+03  0.14480379435E+03  0.00000000000E+00 0. -1.
         -6    2    1    2    0  503  0.15494223151E+03  0.25886699399E+02  0.82797188649E+02  0.24785254501E+03  0.17291122956E+03 0.  0.
        -24    2    3    3    0    0  0.15791002331E+03  0.49917524077E+02  0.29148779000E+02  0.18880569767E+03  0.85852230507E+02 0.  0.
          6    2    1    2  501    0 -0.15494223151E+03 -0.25886699399E+02  0.15577773467E+03  0.28032996701E+03  0.17216553509E+03 0.  0.
         24    2    5    5    0    0 -0.11561774294E+03  0.43328683186E+01  0.31119503348E+02  0.14608615035E+03  0.83585307354E+02 0.  0.
          5    1    5    5  501    0 -0.39324488566E+02 -0.30219567717E+02  0.12465823132E+03  0.13424381665E+03  0.47000000000E+01 0. -1.
        -13    1    6    6    0    0 -0.10910403212E+02 -0.29258586178E+02  0.16002618491E+02  0.35088253902E+02  0.00000000000E+00 0.  1.
         14    1    6    6    0    0 -0.10470733973E+03  0.33591454496E+02  0.15116884857E+02  0.11099789645E+03  0.00000000000E+00 0. -1.
         -5    1    3    3    0  503 -0.29677918044E+01 -0.24030824678E+02  0.53648409648E+02  0.59046847339E+02  0.47000000000E+01 0.  1.
         13    1    4    4    0    0  0.11418630744E+03 -0.66819880209E+01  0.10311512164E+02  0.11484550080E+03  0.00000000000E+00 0. -1.
        -14    1    4    4    0    0  0.43723715875E+02  0.56599512098E+02  0.18837266836E+02  0.73960196873E+02  0.00000000000E+00 0.  1.
</event>
<event>
12    1  0.1594973E-001  0.1993960E+03  0.7818608E-02  0.1150548E+00
         21   -1    0    0  501  502  0.00000000000E+00  0.00000000000E+00  0.59073574065E+02  0.59073574065E+02  0.00000000000E+00 0. -1.
         21   -1    0    0  502  503 -0.00000000000E+00 -0.00000000000E+00 -0.80762204136E+03  0.80762204136E+03  0.00000000000E+00 0. -1.
         -6    2    1    2    0  503 -0.67908451450E+01 -0.97670066667E+02 -0.55535264350E+03  0.59006384036E+03  0.17370440282E+03 0.  0.
        -24    2    3    3    0    0  0.29291833840E+02 -0.25272580962E+01 -0.35382628437E+03  0.36425622940E+03  0.81395101694E+02 0.  0.
          6    2    1    2  501    0  0.67908451450E+01  0.97670066667E+02 -0.19319582380E+03  0.27663177507E+03  0.17208996236E+03 0.  0.
         24    2    5    5    0    0  0.83852052539E+00  0.13249032334E+03 -0.11484189146E+03  0.19055443103E+03  0.74618645508E+02 0.  0.
          5    1    5    5  501    0  0.59523246196E+01 -0.34820256671E+02 -0.78353932341E+02  0.86077344036E+02  0.47000000000E+01 0. -1.
        -11    1    6    6    0    0 -0.11012183250E+02 -0.14006938497E+01 -0.29039074488E+02  0.31088550470E+02  0.00000000000E+00 0.  1.
         12    1    6    6    0    0  0.11850703775E+02  0.13389101719E+03 -0.85802816971E+02  0.15946588056E+03  0.00000000000E+00 0. -1.
         -5    1    3    3    0  503 -0.36082678985E+02 -0.95142808570E+02 -0.20152635913E+03  0.22580761096E+03  0.47000000000E+01 0.  1.
         11    1    4    4    0    0 -0.19615925990E+02  0.13320913798E+01 -0.25072602975E+02  0.31862116060E+02  0.00000000000E+00 0. -1.
        -12    1    4    4    0    0  0.48907759830E+02 -0.38593494760E+01 -0.32875368139E+03  0.33239411334E+03  0.00000000000E+00 0.  1.
</event>
<event>
12    1  0.1594973E-001  0.3976007E+03  0.7818608E-02  0.1044620E+00
         21   -1    0    0  503  502  0.00000000000E+00  0.00000000000E+00  0.26867222652E+03  0.26867222652E+03  0.00000000000E+00 0. -1.
         21   -1    0    0  501  503 -0.00000000000E+00 -0.00000000000E+00 -0.60144894635E+03  0.60144894635E+03  0.00000000000E+00 0.  1.
          6    2    1    2  501    0 -0.29635560729E+03  0.20155820205E+03 -0.23074618992E+03  0.45970652965E+03  0.17214509710E+03 0.  0.
         24    2    3    3    0    0 -0.29521276402E+03  0.19741689964E+03 -0.17547657185E+03  0.40407131456E+03  0.79734507479E+02 0.  0.
         -6    2    1    2    0  502  0.29635560729E+03 -0.20155820205E+03 -0.10203052991E+03  0.41041464322E+03  0.17198138140E+03 0.  0.
        -24    2    5    5    0    0  0.20814799414E+03 -0.15632271192E+03 -0.73667805028E+01  0.27326455012E+03  0.82806202505E+02 0.  0.
          5    1    3    3  501    0 -0.11428432712E+01  0.41413024131E+01 -0.55269618070E+02  0.55635215089E+02  0.47000000000E+01 0. -1.
        -11    1    4    4    0    0 -0.93134089190E+02  0.47182152372E+02 -0.90931862871E+02  0.13845113852E+03  0.00000000000E+00 0.  1.
         12    1    4    4    0    0 -0.20207867483E+03  0.15023474727E+03 -0.84544708983E+02  0.26562017605E+03  0.00000000000E+00 0. -1.
         -5    1    5    5    0  502  0.88207613152E+02 -0.45235490135E+02 -0.94663749404E+02  0.13715009310E+03  0.47000000000E+01 0.  1.
         13    1    6    6    0    0  0.21544530620E+02 -0.18569732368E+02  0.26486700740E+02  0.38865757113E+02  0.00000000000E+00 0. -1.
        -14    1    6    6    0    0  0.18660346352E+03 -0.13775297955E+03 -0.33853481243E+02  0.23439879301E+03  0.00000000000E+00 0.  1.
</event>
<event>
12    1  0.1594973E-001  0.2003672E+03  0.7818608E-02  0.1149558E+00
         21   -1    0    0  503  502  0.00000000000E+00  0.00000000000E+00  0.51612329569E+03  0.51612329569E+03  0.00000000000E+00 0. -1.
         21   -1    0    0  501  503 -0.00000000000E+00 -0.00000000000E+00 -0.79075615373E+02  0.79075615373E+02  0.00000000000E+00 0. -1.
          6    2    1    2  501    0 -0.88721758053E+02  0.48209311667E+02  0.17685371691E+03  0.26679687818E+03  0.17235906978E+03 0.  0.
         24    2    3    3    0    0 -0.46875443748E+02 -0.32350233008E+02  0.14559715888E+03  0.17067187269E+03  0.68458094134E+02 0.  0.
         -6    2    1    2    0  502  0.88721758053E+02 -0.48209311667E+02  0.26019396341E+03  0.32840203289E+03  0.17306446351E+03 0.  0.
        -24    2    5    5    0    0  0.10100653209E+03 -0.85659008640E+02  0.21033875448E+03  0.26467584256E+03  0.90945723993E+02 0.  0.
          5    1    3    3  501    0 -0.41846314305E+02  0.80559544674E+02  0.31256558032E+02  0.96125005483E+02  0.47000000000E+01 0. -1.
        -11    1    4    4    0    0 -0.38276059957E+02 -0.69718700950E+01  0.13717223129E+03  0.14258290492E+03  0.00000000000E+00 0.  1.
         12    1    4    4    0    0 -0.85993837914E+01 -0.25378362913E+02  0.84249275920E+01  0.28088967775E+02  0.00000000000E+00 0. -1.
         -5    1    5    5    0  502 -0.12284774039E+02  0.37449696974E+02  0.49855208932E+02  0.63726190332E+02  0.47000000000E+01 0.  1.
         13    1    6    6    0    0  0.95558372540E+02 -0.73045427469E+02  0.10872152040E+03  0.16213391389E+03  0.00000000000E+00 0. -1.
        -14    1    6    6    0    0  0.54481595515E+01 -0.12613581171E+02  0.10161723408E+03  0.10254192866E+03  0.00000000000E+00 0.  1.
</event>
<event>
12    1  0.1594973E-001  0.3957692E+03  0.7818608E-02  0.1045560E+00
         21   -1    0    0  501  502  0.00000000000E+00  0.00000000000E+00  0.39268407789E+03  0.39268407789E+03  0.00000000000E+00 0. -1.
         21   -1    0    0  502  503 -0.00000000000E+00 -0.00000000000E+00 -0.41597058679E+03  0.41597058679E+03  0.00000000000E+00 0.  1.
         -6    2    1    2    0  503 -0.37737724888E+02  0.35252083724E+03 -0.10160546720E+03  0.40860363612E+03  0.17589253515E+03 0.  0.
        -24    2    3    3    0    0 -0.84490580117E+02  0.25211154037E+03 -0.36617177584E+02  0.28009906750E+03  0.80098583027E+02 0.  0.
          6    2    1    2  501    0  0.37737724888E+02 -0.35252083724E+03  0.78318958301E+02  0.40005102855E+03  0.16796395342E+03 0.  0.
         24    2    5    5    0    0  0.86725636154E+02 -0.24338205364E+03  0.50863275348E+02  0.27722190309E+03  0.86653048258E+02 0.  0.
          5    1    5    5  501    0 -0.48987911267E+02 -0.10913878360E+03  0.27455682953E+02  0.12282912546E+03  0.47000000000E+01 0. -1.
        -11    1    6    6    0    0  0.54904242066E+02 -0.23145858087E+03  0.38053751879E+02  0.24090587059E+03  0.00000000000E+00 0.  1.
         12    1    6    6    0    0  0.31821394089E+02 -0.11923472772E+02  0.12809523469E+02  0.36316032495E+02  0.00000000000E+00 0. -1.
         -5    1    3    3    0  503  0.46752855229E+02  0.10040929687E+03 -0.64988289618E+02  0.12850456862E+03  0.47000000000E+01 0.  1.
         11    1    4    4    0    0 -0.15313758903E+02  0.38102469273E+02  0.23470881260E+02  0.47298960280E+02  0.00000000000E+00 0. -1.
        -12    1    4    4    0    0 -0.69176821214E+02  0.21400907110E+03 -0.60088058845E+02  0.23280010722E+03  0.00000000000E+00 0.  1.
</event>
<event>
12    1  0.1594973E-001  0.1765832E+03  0.7818608E-02  0.1171616E+00
         21   -1    0    0  501  502  0.00000000000E+00  0.00000000000E+00  0.16447637642E+03  0.16447637642E+03  0.00000000000E+00 0. -1.
         21   -1    0    0  502  503 -0.00000000000E+00 -0.00000000000E+00 -0.31227672694E+03  0.31227672694E+03  0.00000000000E+00 0. -1.
         -6    2    1    2    0  503  0.29762720149E+02 -0.18917531816E+02 -0.22476445460E+03  0.28583334206E+03  0.17302585605E+03 0.  0.
        -24    2    3    3    0    0  0.44083280677E+02  0.46684832276E+02 -0.97406044300E+02  0.14178125668E+03  0.80567847684E+02 0.  0.
          6    2    1    2  501    0 -0.29762720149E+02  0.18917531816E+02  0.76964104081E+02  0.19091976130E+03  0.17112331641E+03 0.  0.
         24    2    5    5    0    0 -0.82910107400E+02  0.16676018124E+02  0.73530103497E+02  0.13740759899E+03  0.79510984470E+02 0.  0.
          5    1    5    5  501    0  0.53147387251E+02  0.22415136920E+01  0.34340005839E+01  0.53512162311E+02  0.47000000000E+01 0. -1.
        -13    1    6    6    0    0  0.33619521036E+01  0.28762671569E+02  0.18909284448E+02  0.34585474351E+02  0.00000000000E+00 0.  1.
         14    1    6    6    0    0 -0.86272059504E+02 -0.12086653445E+02  0.54620819048E+02  0.10282212464E+03  0.00000000000E+00 0. -1.
         -5    1    3    3    0  503 -0.14320560527E+02 -0.65602364092E+02 -0.12735841030E+03  0.14405208538E+03  0.47000000000E+01 0.  1.
         13    1    4    4    0    0  0.51700592469E+02  0.63454728574E+02 -0.90719579988E+02  0.12218631688E+03  0.00000000000E+00 0. -1.
        -14    1    4    4    0    0 -0.76173117929E+01 -0.16769896297E+02 -0.66864643121E+01  0.19594939800E+02  0.00000000000E+00 0.  1.
</event>
<event>
12    1  0.1594973E-001  0.1919829E+03  0.7818608E-02  0.1156706E+00
         21   -1    0    0  501  502  0.00000000000E+00  0.00000000000E+00  0.53519622802E+02  0.53519622802E+02  0.00000000000E+00 0.  1.
         21   -1    0    0  502  503 -0.00000000000E+00 -0.00000000000E+00 -0.80023804932E+03  0.80023804932E+03  0.00000000000E+00 0.  1.
         -6    2    1    2    0  503  0.77408110601E+02 -0.37168972115E+02 -0.53291625006E+03  0.56640982350E+03  0.17160072990E+03 0.  0.
        -24    2    3    3    0    0  0.40764082824E+02  0.44520276429E+02 -0.26318671423E+03  0.28217043390E+03  0.81909350862E+02 0.  0.
          6    2    1    2  501    0 -0.77408110601E+02  0.37168972115E+02 -0.21380217646E+03  0.28734784863E+03  0.17170867007E+03 0.  0.
         24    2    5    5    0    0 -0.42172816281E+02  0.46852515454E+02 -0.38553788902E+02  0.10826858037E+03  0.79132712701E+02 0.  0.
          5    1    5    5  501    0 -0.35235294320E+02 -0.96835433388E+01 -0.17524838756E+03  0.17907926826E+03  0.47000000000E+01 0. -1.
        -13    1    6    6    0    0 -0.25345602399E+02  0.66631639822E+02 -0.40909320437E+02  0.82193354262E+02  0.00000000000E+00 0.  1.
         14    1    6    6    0    0 -0.16827213882E+02 -0.19779124368E+02  0.23555315344E+01  0.26075226109E+02  0.00000000000E+00 0. -1.
         -5    1    3    3    0  503  0.36644027778E+02 -0.81689248544E+02 -0.26972953583E+03  0.28423938960E+03  0.47000000000E+01 0.  1.
         11    1    4    4    0    0 -0.25092971586E+02  0.94998979694E+01 -0.80033425896E+02  0.84411222862E+02  0.00000000000E+00 0. -1.
        -12    1    4    4    0    0  0.65857054410E+02  0.35020378459E+02 -0.18315328833E+03  0.19775921104E+03  0.00000000000E+00 0.  1.
</event>
<event>
12    1  0.1594973E-001  0.2375144E+03  0.7818608E-02  0.1121625E+00
         21   -1    0    0  503  502  0.00000000000E+00  0.00000000000E+00  0.23438006685E+03  0.23438006685E+03  0.00000000000E+00 0.  1.
         21   -1    0    0  501  503 -0.00000000000E+00 -0.00000000000E+00 -0.23987091116E+03  0.23987091116E+03  0.00000000000E+00 0.  1.
          6    2    1    2  501    0  0.14868201646E+03  0.63998129139E+02 -0.90427484151E+01  0.23671001696E+03  0.17247538456E+03 0.  0.
         24    2    3    3    0    0  0.16602923835E+03  0.70092744127E+02 -0.39391880058E+02  0.20091574046E+03  0.79603478453E+02 0.  0.
         -6    2    1    2    0  502 -0.14868201646E+03 -0.63998129139E+02  0.35519041135E+01  0.23754096105E+03  0.17381308812E+03 0.  0.
        -24    2    5    5    0    0 -0.10435343464E+03 -0.99977140766E+02  0.37017744891E+02  0.17119667009E+03  0.83981655235E+02 0.  0.
          5    1    3    3  501    0 -0.17347221890E+02 -0.60946149874E+01  0.30349131643E+02  0.35794276507E+02  0.47000000000E+01 0. -1.
        -13    1    4    4    0    0  0.64619498547E+02 -0.11180604040E+02 -0.24915360756E+02  0.70153123243E+02  0.00000000000E+00 0.  1.
         14    1    4    4    0    0  0.10140973980E+03  0.81273348167E+02 -0.14476519303E+02  0.13076261721E+03  0.00000000000E+00 0. -1.
         -5    1    5    5    0  502 -0.44328581819E+02  0.35979011626E+02 -0.33465840778E+02  0.66344290957E+02  0.47000000000E+01 0.  1.
         13    1    6    6    0    0  0.12257857611E+02 -0.25295141059E+02  0.11595299990E+02  0.30406417353E+02  0.00000000000E+00 0. -1.
        -14    1    6    6    0    0 -0.11661129225E+03 -0.74681999707E+02  0.25422444902E+02  0.14079025274E+03  0.00000000000E+00 0.  1.
</event>
<event>
12    1  0.1594973E-001  0.2194791E+03  0.7818608E-02  0.1134333E+00
         21   -1    0    0  501  502  0.00000000000E+00  0.00000000000E+00  0.71602524765E+02  0.71602524765E+02  0.00000000000E+00 0.  1.
         21   -1    0    0  502  503 -0.00000000000E+00 -0.00000000000E+00 -0.82343827122E+03  0.82343827122E+03  0.00000000000E+00 0. -1.
         -6    2    1    2    0  503  0.31945426918E+02  0.13247525696E+03 -0.56776333482E+03  0.60859055837E+03  0.17163058982E+03 0.  0.
        -24    2    3    3    0    0  0.67950208580E+02  0.11830696492E+03 -0.32198477720E+03  0.35974065544E+03  0.84411928268E+02 0.  0.
          6    2    1    2  501    0 -0.31945426918E+02 -0.13247525696E+03 -0.18407241164E+03  0.28645023762E+03  0.17204906829E+03 0.  0.
         24    2    5    5    0    0  0.35676542088E+02 -0.91941905653E+02 -0.10990776578E+03  0.17810741157E+03  0.99581139819E+02 0.  0.
          5    1    5    5  501    0 -0.67621969006E+02 -0.40533351307E+02 -0.74164645862E+02  0.10834282605E+03  0.47000000000E+01 0. -1.
        -13    1    6    6    0    0 -0.26578751024E+02 -0.46467710640E+02 -0.14532671948E+02  0.55469601514E+02  0.00000000000E+00 0.  1.
         14    1    6    6    0    0  0.62255293112E+02 -0.45474195012E+02 -0.95375093830E+02  0.12263781006E+03  0.00000000000E+00 0. -1.
         -5    1    3    3    0  503 -0.36004781662E+02  0.14168292038E+02 -0.24577855761E+03  0.24884990292E+03  0.47000000000E+01 0.  1.
         11    1    4    4    0    0  0.60626287583E+02  0.52189943073E+02 -0.24635916566E+03  0.25902157325E+03  0.00000000000E+00 0. -1.
        -12    1    4    4    0    0  0.73239209973E+01  0.66117021850E+02 -0.75625611545E+02  0.10071908220E+03  0.00000000000E+00 0.  1.
</event>
<event>
12    1  0.1594973E-001  0.1756448E+03  0.7818608E-02  0.1172450E+00
         21   -1    0    0  501  502  0.00000000000E+00  0.00000000000E+00  0.16271167565E+03  0.16271167565E+03  0.00000000000E+00 0. -1.
         21   -1    0    0  502  503 -0.00000000000E+00 -0.00000000000E+00 -0.20432220330E+03  0.20432220330E+03  0.00000000000E+00 0. -1.
         -6    2    1    2    0  503  0.28451172123E+02 -0.11205602376E+02  0.31073769959E+02  0.17694420122E+03  0.17148946453E+03 0.  0.
        -24    2    3    3    0    0  0.79655998988E+02 -0.24614771413E+02 -0.21743489100E+02  0.10202095407E+03  0.54630857625E+02 0.  0.
          6    2    1    2  501    0 -0.28451172123E+02  0.11205602376E+02 -0.72684297608E+02  0.19008967772E+03  0.17296255010E+03 0.  0.
         24    2    5    5    0    0 -0.80403035285E+02  0.35871366688E+01 -0.19504331074E+02  0.11520819840E+03  0.80093660264E+02 0.  0.
          5    1    5    5  501    0  0.51951863161E+02  0.76184657076E+01 -0.53179966534E+02  0.74881479327E+02  0.47000000000E+01 0. -1.
        -11    1    6    6    0    0 -0.55098491119E+02 -0.34163487076E+01  0.27267060850E+02  0.61571160209E+02  0.00000000000E+00 0.  1.
         12    1    6    6    0    0 -0.25304544166E+02  0.70034853764E+01 -0.46771391925E+02  0.53637038186E+02  0.00000000000E+00 0. -1.
         -5    1    3    3    0  503 -0.51204826865E+02  0.13409169037E+02  0.52817259059E+02  0.74923247147E+02  0.47000000000E+01 0.  1.
         11    1    4    4    0    0  0.44601160633E+02 -0.41015361509E+02 -0.88966479135E+01  0.61242744498E+02  0.00000000000E+00 0. -1.
        -12    1    4    4    0    0  0.35054838355E+02  0.16400590095E+02 -0.12846841186E+02  0.40778209574E+02  0.00000000000E+00 0.  1.
</event>
<event>
12    1  0.1594973E-001  0.2038831E+03  0.7818608E-02  0.1146694E+00
         21   -1    0    0  501  502  0.00000000000E+00  0.00000000000E+00  0.14919458515E+03  0.14919458515E+03  0.00000000000E+00 0. -1.
         21   -1    0    0  502  503 -0.00000000000E+00 -0.00000000000E+00 -0.28387350776E+03  0.28387350776E+03  0.00000000000E+00 0.  1.
         -6    2    1    2    0  503 -0.49051612945E+02  0.98125671606E+02 -0.34376612937E+02  0.20584825323E+03  0.17075433723E+03 0.  0.
        -24    2    3    3    0    0 -0.87216768918E+02  0.90946941360E+02  0.68544687013E+01  0.14901335734E+03  0.79245731750E+02 0.  0.
          6    2    1    2  501    0  0.49051612945E+02 -0.98125671606E+02 -0.10030230968E+03  0.22721983968E+03  0.17185340862E+03 0.  0.
         24    2    5    5    0    0  0.48008958420E+02 -0.12218150900E+03 -0.35199109726E+02  0.15764766790E+03  0.79878837243E+02 0.  0.
          5    1    5    5  501    0  0.10426545253E+01  0.24055837395E+02 -0.65103199954E+02  0.69572171775E+02  0.47000000000E+01 0. -1.
        -11    1    6    6    0    0  0.59676647451E+02 -0.46285546453E+02 -0.27910681095E+02  0.80514968674E+02  0.00000000000E+00 0.  1.
         12    1    6    6    0    0 -0.11667689031E+02 -0.75895962548E+02 -0.72884286313E+01  0.77132699228E+02  0.00000000000E+00 0. -1.
         -5    1    3    3    0  503  0.38165155973E+02  0.71787302459E+01 -0.41231081638E+02  0.56834895895E+02  0.47000000000E+01 0.  1.
         11    1    4    4    0    0 -0.42377123396E+02  0.91226358950E+02  0.19418691509E+02  0.10244586246E+03  0.00000000000E+00 0. -1.
        -12    1    4    4    0    0 -0.44839645522E+02 -0.27941758965E+00 -0.12564222808E+02  0.46567494881E+02  0.00000000000E+00 0.  1.
</event>
<event>
12    1  0.1594973E-001  0.2095382E+03  0.7818608E-02  0.1142439E+00
         21   -1    0    0  503  502  0.00000000000E+00  0.00000000000E+00  0.75334560969E+03  0.75334560969E+03  0.00000000000E+00 0.  1.
         21   -1    0    0  501  503 -0.00000000000E+00 -0.00000000000E+00 -0.20514583191E+03  0.20514583191E+03  0.00000000000E+00 0.  1.
          6    2    1    2  501    0 -0.10545797027E+03  0.51129897325E+02 -0.13189368806E+03  0.24759281124E+03  0.17369687773E+03 0.  0.
         24    2    3    3    0    0 -0.38680969569E+02  0.10628846209E+02 -0.14411898997E+03  0.16840284362E+03  0.77330748672E+02 0.  0.
         -6    2    1    2    0  502  0.10545797027E+03 -0.51129897325E+02  0.68009346585E+03  0.71089863036E+03  0.17062851600E+03 0.  0.
        -24    2    5    5    0    0  0.87025862707E+02 -0.91378353350E+02  0.43314727193E+03  0.45997196081E+03  0.89633371648E+02 0.  0.
          5    1    3    3  501    0 -0.66777000705E+02  0.40501051115E+02  0.12225301914E+02  0.79189967619E+02  0.47000000000E+01 0. -1.
        -11    1    4    4    0    0 -0.57342900286E+02  0.21482732669E+02 -0.79992482831E+02  0.10073982989E+03  0.00000000000E+00 0.  1.
         12    1    4    4    0    0  0.18661930717E+02 -0.10853886459E+02 -0.64126507142E+02  0.67663013734E+02  0.00000000000E+00 0. -1.
         -5    1    5    5    0  502  0.18432107567E+02  0.40248456025E+02  0.24694619391E+03  0.25092666955E+03  0.47000000000E+01 0.  1.
         11    1    6    6    0    0  0.71006506020E+01 -0.24729508378E+02  0.23271613071E+03  0.23413407552E+03  0.00000000000E+00 0. -1.
        -12    1    6    6    0    0  0.79925212105E+02 -0.66648844972E+02  0.20043114122E+03  0.22583788530E+03  0.00000000000E+00 0.  1.
</event>
<event>
12    1  0.1594973E-001  0.2379603E+03  0.7818608E-02  0.1121305E+00
         21   -1    0    0  503  502  0.00000000000E+00  0.00000000000E+00  0.53108509184E+03  0.53108509184E+03  0.00000000000E+00 0.  1.
         21   -1    0    0  501  503 -0.00000000000E+00 -0.00000000000E+00 -0.16518896119E+03  0.16518896119E+03  0.00000000000E+00 0.  1.
          6    2    1    2  501    0  0.33735501426E+01 -0.16456854256E+03 -0.25242202761E+02  0.23843751903E+03  0.17064904230E+03 0.  0.
         24    2    3    3    0    0  0.68691299818E+02 -0.88228760695E+02 -0.65938790041E+01  0.13614372304E+03  0.77387500270E+02 0.  0.
         -6    2    1    2    0  502 -0.33735501426E+01  0.16456854256E+03  0.39113833341E+03  0.45783653400E+03  0.17184559917E+03 0.  0.
        -24    2    5    5    0    0 -0.70274916053E+01  0.43544884540E+02  0.65880452552E+02  0.11074165338E+03  0.77317120721E+02 0.  0.
          5    1    3    3  501    0 -0.65317749675E+02 -0.76339781869E+02 -0.18648323757E+02  0.10229379599E+03  0.47000000000E+01 0. -1.
        -13    1    4    4    0    0  0.22582353925E+02 -0.79080783808E+02  0.16325033113E+02  0.83846525168E+02  0.00000000000E+00 0.  1.
         14    1    4    4    0    0  0.46108945893E+02 -0.91479768864E+01 -0.22918912117E+02  0.52297197871E+02  0.00000000000E+00 0. -1.
         -5    1    5    5    0  502  0.36539414627E+01  0.12102365802E+03  0.32525788086E+03  0.34709488062E+03  0.47000000000E+01 0.  1.
         13    1    6    6    0    0 -0.88169607440E+01  0.15105686903E+02  0.77882087954E+02  0.79821928050E+02  0.00000000000E+00 0. -1.
        -14    1    6    6    0    0  0.17894691387E+01  0.28439197637E+02 -0.12001635402E+02  0.30919725328E+02  0.00000000000E+00 0.  1.
</event>
<event>
12    1  0.1594973E-001  0.2027110E+03  0.7818608E-02  0.1147565E+00
         21   -1    0    0  501  502  0.00000000000E+00  0.00000000000E+00  0.40880284948E+03  0.40880284948E+03  0.00000000000E+00 0.  1.
         21   -1    0    0  502  503 -0.00000000000E+00 -0.00000000000E+00 -0.11182650155E+03  0.11182650155E+03  0.00000000000E+00 0.  1.
         -6    2    1    2    0  503 -0.10475516128E+03  0.20076113857E+02  0.64749141950E+02  0.21237422933E+03  0.17185362300E+03 0.  0.
        -24    2    3    3    0    0 -0.30980314317E+02  0.11908410544E+02 -0.30156017210E+02  0.91798449600E+02  0.80099811848E+02 0.  0.
          6    2    1    2  501    0  0.10475516128E+03 -0.20076113857E+02  0.23222720597E+03  0.30825512170E+03  0.17238054036E+03 0.  0.
         24    2    5    5    0    0  0.12470176803E+03 -0.53281330646E+02  0.21416718113E+03  0.26525851672E+03  0.78134935031E+02 0.  0.
          5    1    5    5  501    0 -0.19946606745E+02  0.33205216789E+02  0.18060024845E+02  0.42996604983E+02  0.47000000000E+01 0. -1.
        -13    1    6    6    0    0  0.10337937116E+03 -0.55142308819E+01  0.15356717046E+03  0.18520414943E+03  0.00000000000E+00 0.  1.
         14    1    6    6    0    0  0.21322396869E+02 -0.47767099764E+02  0.60600010674E+02  0.80054367287E+02  0.00000000000E+00 0. -1.
         -5    1    3    3    0  503 -0.73774846965E+02  0.81677033135E+01  0.94905159159E+02  0.12057577973E+03  0.47000000000E+01 0.  1.
         13    1    4    4    0    0 -0.35474992081E+01 -0.11798984443E+02  0.23795275798E+02  0.26795819353E+02  0.00000000000E+00 0. -1.
        -14    1    4    4    0    0 -0.27432815109E+02  0.23707394986E+02 -0.53951293007E+02  0.65002630247E+02  0.00000000000E+00 0.  1.
</event>
<event>
12    1  0.1594973E-001  0.3029152E+03  0.7818608E-02  0.1084259E+00
         21   -1    0    0  503  502  0.00000000000E+00  0.00000000000E+00  0.23325712200E+04  0.23325712200E+04  0.00000000000E+00 0. -1.
         21   -1    0    0  501  503 -0.00000000000E+00 -0.00000000000E+00 -0.23171861391E+03  0.23171861391E+03  0.00000000000E+00 0.  1.
          6    2    1    2  501    0  0.18650856869E+03 -0.15865286381E+03 -0.12040064623E+03  0.32247725272E+03  0.17186938505E+03 0.  0.
         24    2    3    3    0    0  0.13828609941E+03 -0.12811868484E+03 -0.15401117827E+03  0.25607318287E+03  0.79476973135E+02 0.  0.
         -6    2    1    2    0  502 -0.18650856869E+03  0.15865286381E+03  0.22212532523E+04  0.22418125812E+04  0.17832964083E+03 0.  0.
        -24    2    5    5    0    0 -0.18700081513E+03  0.16278222912E+03  0.22201479027E+04  0.22354403161E+04  0.81666016461E+02 0.  0.
          5    1    3    3  501    0  0.48222469282E+02 -0.30534178978E+02  0.33610532032E+02  0.66404069852E+02  0.47000000000E+01 0. -1.
        -13    1    4    4    0    0  0.20151496086E+02 -0.69355402521E+02 -0.62379403188E+02  0.95432932447E+02  0.00000000000E+00 0.  1.
         14    1    4    4    0    0  0.11813460333E+03 -0.58763282315E+02 -0.91631775078E+02  0.16064025042E+03  0.00000000000E+00 0. -1.
         -5    1    5    5    0  502  0.49224643684E+00 -0.41293653069E+01  0.11053496791E+01  0.63722650844E+01  0.47000000000E+01 0.  1.
         11    1    6    6    0    0 -0.62817509766E+02  0.64537620357E+02  0.11651316577E+04  0.11686072581E+04  0.00000000000E+00 0. -1.
        -12    1    6    6    0    0 -0.12418330536E+03  0.98244608764E+02  0.10550162450E+04  0.10668330580E+04  0.00000000000E+00 0.  1.
</event>
<event>
12    1  0.1594973E-001  0.2084268E+03  0.7818608E-02  0.1143224E+00
         21   -1    0    0  503  502  0.00000000000E+00  0.00000000000E+00  0.46563731100E+03  0.46563731100E+03  0.00000000000E+00 0.  1.
         21   -1    0    0  501  503 -0.00000000000E+00 -0.00000000000E+00 -0.10010659246E+03  0.10010659246E+03  0.00000000000E+00 0.  1.
          6    2    1    2  501    0 -0.11229727081E+03 -0.23922692051E+02  0.10342204331E+03  0.23086680235E+03  0.17152372768E+03 0.  0.
         24    2    3    3    0    0 -0.29207249467E+02 -0.11233590399E+02  0.11736438353E+03  0.14553542595E+03  0.80167978098E+02 0.  0.
         -6    2    1    2    0  502  0.11229727081E+03  0.23922692051E+02  0.26210867523E+03  0.33487710112E+03  0.17395040384E+03 0.  0.
        -24    2    5    5    0    0  0.51811515797E+02 -0.49052368035E+02  0.17577707249E+03  0.20658399302E+03  0.81785077977E+02 0.  0.
          5    1    3    3  501    0 -0.83090021339E+02 -0.12689101652E+02 -0.13942340213E+02  0.85331376395E+02  0.47000000000E+01 0. -1.
        -11    1    4    4    0    0 -0.35204983187E+02 -0.40687498025E+02  0.90162824070E+02  0.10499618174E+03  0.00000000000E+00 0.  1.
         12    1    4    4    0    0  0.59977337199E+01  0.29453907626E+02  0.27201559457E+02  0.40539244209E+02  0.00000000000E+00 0. -1.
         -5    1    5    5    0  502  0.60485755008E+02  0.72975060087E+02  0.86331602738E+02  0.12829310810E+03  0.47000000000E+01 0.  1.
         11    1    6    6    0    0  0.31867393369E+01 -0.34426724948E+02  0.14480535481E+02  0.37483871279E+02  0.00000000000E+00 0. -1.
        -12    1    6    6    0    0  0.48624776461E+02 -0.14625643088E+02  0.16129653701E+03  0.16910012174E+03  0.00000000000E+00 0.  1.
</event>
<event>
12    1  0.1594973E-001  0.2275738E+03  0.7818608E-02  0.1128716E+00
         21   -1    0    0  503  502  0.00000000000E+00  0.00000000000E+00  0.85209799229E+02  0.85209799229E+02  0.00000000000E+00 0.  1.
         21   -1    0    0  501  503 -0.00000000000E+00 -0.00000000000E+00 -0.62068302076E+03  0.62068302076E+03  0.00000000000E+00 0. -1.
          6    2    1    2  501    0  0.12251636943E+03  0.79567044553E+02 -0.20617305211E+03  0.30560739640E+03  0.17189350761E+03 0.  0.
         24    2    3    3    0    0  0.38555155540E+02  0.81055310049E+01 -0.16560998487E+03  0.18803322499E+03  0.79860046088E+02 0.  0.
         -6    2    1    2    0  502 -0.12251636943E+03 -0.79567044553E+02 -0.32930016942E+03  0.40028542359E+03  0.17449539650E+03 0.  0.
        -24    2    5    5    0    0 -0.13914301826E+03 -0.27908526373E+02 -0.29146955835E+03  0.33396579538E+03  0.80243278020E+02 0.  0.
          5    1    3    3  501    0  0.83961213894E+02  0.71461513549E+02 -0.40563067236E+02  0.11757417140E+03  0.47000000000E+01 0. -1.
        -11    1    4    4    0    0 -0.15645277431E+02  0.23015984209E+02 -0.87351292776E+02  0.91677470431E+02  0.00000000000E+00 0.  1.
         12    1    4    4    0    0  0.54200432971E+02 -0.14910453204E+02 -0.78258692094E+02  0.96355754562E+02  0.00000000000E+00 0. -1.
         -5    1    5    5    0  502  0.16626648823E+02 -0.51658518180E+02 -0.37830611074E+02  0.66319628210E+02  0.47000000000E+01 0.  1.
         11    1    6    6    0    0 -0.74179593307E+02  0.25090119394E+02 -0.15815212113E+03  0.17647724944E+03  0.00000000000E+00 0. -1.
        -12    1    6    6    0    0 -0.64963424950E+02 -0.52998645767E+02 -0.13331743722E+03  0.15748854594E+03  0.00000000000E+00 0.  1.
</event>
<event>
12    1  0.1594973E-001  0.2525698E+03  0.7818608E-02  0.1111792E+00
         21   -1    0    0  501  502  0.00000000000E+00  0.00000000000E+00  0.17707239166E+04  0.17707239166E+04  0.00000000000E+00 0. -1.
         21   -1    0    0  502  503 -0.00000000000E+00 -0.00000000000E+00 -0.38000592628E+02  0.38000592628E+02  0.00000000000E+00 0.  1.
         -6    2    1    2    0  503  0.18288680808E+03 -0.24236627906E+02  0.65648527775E+03  0.70339491002E+03  0.17250066909E+03 0.  0.
        -24    2    3    3    0    0  0.69528612081E+02 -0.10380513086E+02  0.48859449368E+03  0.50029031162E+03  0.81386938082E+02 0.  0.
          6    2    1    2  501    0 -0.18288680808E+03  0.24236627906E+02  0.10762380462E+04  0.11053295992E+04  0.17155230120E+03 0.  0.
         24    2    5    5    0    0 -0.65030058009E+02  0.10149228391E+02  0.76869790841E+03  0.77564536432E+03  0.79983382807E+02 0.  0.
          5    1    5    5  501    0 -0.11785675007E+03  0.14087399515E+02  0.30754013776E+03  0.32968423483E+03  0.47000000000E+01 0. -1.
        -13    1    6    6    0    0 -0.15308558606E+02  0.41599511646E+02  0.29611267000E+03  0.29941206500E+03  0.00000000000E+00 0.  1.
         14    1    6    6    0    0 -0.49721499403E+02 -0.31450283255E+02  0.47258523841E+03  0.47623329932E+03  0.00000000000E+00 0. -1.
         -5    1    3    3    0  503  0.11335819600E+03 -0.13856114820E+02  0.16789078407E+03  0.20310459841E+03  0.47000000000E+01 0.  1.
         11    1    4    4    0    0 -0.14688334007E+02  0.10446903790E+02  0.48833907799E+02  0.52054159350E+02  0.00000000000E+00 0. -1.
        -12    1    4    4    0    0  0.84216946087E+02 -0.20827416876E+02  0.43976058588E+03  0.44823615226E+03  0.00000000000E+00 0.  1.
</event>
<event>
12    1  0.1594973E-001  0.1724534E+03  0.7818608E-02  0.1175802E+00
         21   -1    0    0  501  502  0.00000000000E+00  0.00000000000E+00  0.14446821204E+03  0.14446821204E+03  0.00000000000E+00 0. -1.
         21   -1    0    0  502  503 -0.00000000000E+00 -0.00000000000E+00 -0.55968240758E+03  0.55968240758E+03  0.00000000000E+00 0. -1.
         -6    2    1    2    0  503  0.20252955206E+02 -0.15189427530E+01 -0.48801531972E+03  0.51696036105E+03  0.16934158743E+03 0.  0.
        -24    2    3    3    0    0 -0.13615929466E+02  0.17279051756E+02 -0.46385375973E+03  0.47106551463E+03  0.79110362772E+02 0.  0.
          6    2    1    2  501    0 -0.20252955206E+02  0.15189427530E+01  0.72801124187E+02  0.18719025857E+03  0.17125332066E+03 0.  0.
         24    2    5    5    0    0 -0.53057483534E+02 -0.43310416612E+02  0.20132143065E+02  0.11049658144E+03  0.84340397074E+02 0.  0.
          5    1    5    5  501    0  0.32804528327E+02  0.44829359365E+02  0.52668981122E+02  0.76693677133E+02  0.47000000000E+01 0. -1.
        -11    1    6    6    0    0 -0.25787835193E+02 -0.50430709976E+02 -0.21192189001E+02  0.60476258377E+02  0.00000000000E+00 0.  1.
         12    1    6    6    0    0 -0.27269648340E+02  0.71202933641E+01  0.41324332066E+02  0.50020323059E+02  0.00000000000E+00 0. -1.
         -5    1    3    3    0  503  0.33868884672E+02 -0.18797994509E+02 -0.24161559994E+02  0.45894846419E+02  0.47000000000E+01 0.  1.
         13    1    4    4    0    0 -0.10868241777E+02  0.47380934933E+02 -0.34595517114E+03  0.34935376356E+03  0.00000000000E+00 0. -1.
        -14    1    4    4    0    0 -0.27476876891E+01 -0.30101883177E+02 -0.11789858859E+03  0.12171175108E+03  0.00000000000E+00 0.  1.
</event>
<event>
12    1  0.1594973E-001  0.2543542E+03  0.7818608E-02  0.1110653E+00
         21   -1    0    0  503  502  0.00000000000E+00  0.00000000000E+00  0.19473982299E+04  0.19473982299E+04  0.00000000000E+00 0.  1.
         21   -1    0    0  501  503 -0.00000000000E+00 -0.00000000000E+00 -0.42807005126E+02  0.42807005126E+02  0.00000000000E+00 0.  1.
          6    2    1    2  501    0  0.17631074079E+03  0.60556654733E+02  0.47932157922E+03  0.54241738939E+03  0.17237999379E+03 0.  0.
         24    2    3    3    0    0  0.14293747923E+03 -0.90554254194E+01  0.23153652304E+03  0.28284246696E+03  0.76665350170E+02 0.  0.
         -6    2    1    2    0  502 -0.17631074079E+03 -0.60556654733E+02  0.14252696455E+04  0.14477878456E+04  0.17304189570E+03 0.  0.
        -24    2    5    5    0    0 -0.13985818559E+03 -0.13649460199E+01  0.65841536868E+03  0.67777484631E+03  0.79408874968E+02 0.  0.
          5    1    3    3  501    0  0.33373261563E+02  0.69612080152E+02  0.24778505617E+03  0.25957492243E+03  0.47000000000E+01 0. -1.
        -11    1    4    4    0    0  0.49136437534E+02  0.11414729168E+02  0.14523827285E+03  0.15374928109E+03  0.00000000000E+00 0.  1.
         12    1    4    4    0    0  0.93801041697E+02 -0.20470154588E+02  0.86298250193E+02  0.12909318587E+03  0.00000000000E+00 0. -1.
         -5    1    5    5    0  502 -0.36452555200E+02 -0.59191708713E+02  0.76685427683E+03  0.77001299928E+03  0.47000000000E+01 0.  1.
         13    1    6    6    0    0 -0.46211830317E+02  0.14276839738E+02  0.39149662305E+03  0.39447302477E+03  0.00000000000E+00 0. -1.
        -14    1    6    6    0    0 -0.93646355277E+02 -0.15641785758E+02  0.26691874563E+03  0.28330182154E+03  0.00000000000E+00 0.  1.
</event>
<event>
12    1  0.1594973E-001  0.2126467E+03  0.7818608E-02  0.1139863E+00
         21   -1    0    0  503  502  0.00000000000E+00  0.00000000000E+00  0.10575146001E+03  0.10575146001E+03  0.00000000000E+00 0. -1.
         21   -1    0    0  501  503 -0.00000000000E+00 -0.00000000000E+00 -0.58924934136E+03  0.58924934136E+03  0.00000000000E+00 0.  1.
          6    2    1    2  501    0 -0.12100248573E+03  0.32174696277E+02 -0.42512879308E+03  0.47448872260E+03  0.16949408408E+03 0.  0.
         24    2    3    3    0    0 -0.13345737871E+03 -0.19608494197E+02 -0.33226242749E+03  0.36733054497E+03  0.79611830603E+02 0.  0.
         -6    2    1    2    0  502  0.12100248573E+03 -0.32174696277E+02 -0.58369088280E+02  0.22051207877E+03  0.17187732190E+03 0.  0.
        -24    2    5    5    0    0  0.89427260217E+02  0.43576902447E+02 -0.54071403518E+02  0.13819646865E+03  0.79236140562E+02 0.  0.
          5    1    3    3  501    0  0.12454892982E+02  0.51783190474E+02 -0.92866365592E+02  0.10715817763E+03  0.47000000000E+01 0. -1.
        -13    1    4    4    0    0 -0.74020090899E+02  0.50795328636E+01 -0.26084395349E+03  0.27119060379E+03  0.00000000000E+00 0.  1.
         14    1    4    4    0    0 -0.59437287811E+02 -0.24688027061E+02 -0.71418473998E+02  0.96139941183E+02  0.00000000000E+00 0. -1.
         -5    1    5    5    0  502  0.31575225511E+02 -0.75751598724E+02 -0.42976847616E+01  0.82315610122E+02  0.47000000000E+01 0.  1.
         11    1    6    6    0    0 -0.91659553624E+01  0.12819207841E+01  0.96874311204E+01  0.13397924478E+02  0.00000000000E+00 0. -1.
        -12    1    6    6    0    0  0.98593215579E+02  0.42294981663E+02 -0.63758834638E+02  0.12479854417E+03  0.00000000000E+00 0.  1.
</event>
<event>
12    1  0.1594973E-001  0.2696297E+03  0.7818608E-02  0.1101586E+00
         21   -1    0    0  503  502  0.00000000000E+00  0.00000000000E+00  0.44784388033E+03  0.44784388033E+03  0.00000000000E+00 0.  1.
         21   -1    0    0  501  503 -0.00000000000E+00 -0.00000000000E+00 -0.16495921003E+03  0.16495921003E+03  0.00000000000E+00 0.  1.
          6    2    1    2  501    0  0.20424187832E+03  0.36482094700E+02  0.10014887224E+03  0.28762820498E+03  0.17220481873E+03 0.  0.
         24    2    3    3    0    0  0.19555236326E+03  0.13348210840E+02  0.12273025476E+03  0.25382446124E+03  0.10461950191E+03 0.  0.
         -6    2    1    2    0  502 -0.20424187832E+03 -0.36482094700E+02  0.18273579806E+03  0.32517488537E+03  0.17117431493E+03 0.  0.
        -24    2    5    5    0    0 -0.90760522447E+02 -0.82756229258E+02  0.10035913610E+03  0.17743417299E+03  0.79529011249E+02 0.  0.
          5    1    3    3  501    0  0.86895150579E+01  0.23133883860E+02 -0.22581382518E+02  0.33803743740E+02  0.47000000000E+01 0. -1.
        -13    1    4    4    0    0  0.13778574314E+03  0.32932715612E+01  0.25325009916E+02  0.14013248295E+03  0.00000000000E+00 0.  1.
         14    1    4    4    0    0  0.57766620124E+02  0.10054939279E+02  0.97405244844E+02  0.11369197829E+03  0.00000000000E+00 0. -1.
         -5    1    5    5    0  502 -0.11348135588E+03  0.46274134558E+02  0.82376661952E+02  0.14774071238E+03  0.47000000000E+01 0.  1.
         13    1    6    6    0    0 -0.96541506296E+02 -0.60760284177E+02  0.54880121929E+02  0.12658555350E+03  0.00000000000E+00 0. -1.
        -14    1    6    6    0    0  0.57809838492E+01 -0.21995945081E+02  0.45479014176E+02  0.50848619496E+02  0.00000000000E+00 0.  1.
</event>
<event>
12    1  0.1594973E-001  0.2416370E+03  0.7818608E-02  0.1118823E+00
         21   -1    0    0  501  502  0.00000000000E+00  0.00000000000E+00  0.92488252105E+02  0.92488252105E+02  0.00000000000E+00 0. -1.
         21   -1    0    0  502  503 -0.00000000000E+00 -0.00000000000E+00 -0.65885686547E+03  0.65885686547E+03  0.00000000000E+00 0.  1.
         -6    2    1    2    0  503  0.13584830973E+03  0.10107862734E+03 -0.36291137994E+03  0.43599669988E+03  0.17238561558E+03 0.  0.
        -24    2    3    3    0    0  0.12217543071E+03  0.41866270097E+02 -0.14653520819E+03  0.21119948333E+03  0.80330779144E+02 0.  0.
          6    2    1    2  501    0 -0.13584830973E+03 -0.10107862734E+03 -0.20345723342E+03  0.31534841769E+03  0.17140048583E+03 0.  0.
         24    2    5    5    0    0 -0.41571805533E+01 -0.58482126259E+02 -0.57079743324E+02  0.11384041532E+03  0.79146079001E+02 0.  0.
          5    1    5    5  501    0 -0.13169112918E+03 -0.42596501084E+02 -0.14637749010E+03  0.20150800236E+03  0.47000000000E+01 0. -1.
        -13    1    6    6    0    0 -0.35606212316E+02 -0.59726609741E+01 -0.29868709474E+02  0.46857388321E+02  0.00000000000E+00 0.  1.
         14    1    6    6    0    0  0.31449031763E+02 -0.52509465285E+02 -0.27211033850E+02  0.66983027003E+02  0.00000000000E+00 0. -1.
         -5    1    3    3    0  503  0.13672879021E+02  0.59212357246E+02 -0.21637617175E+03  0.22479721656E+03  0.47000000000E+01 0.  1.
         11    1    4    4    0    0  0.12361027933E+03  0.55753612602E+02 -0.14240602600E+03  0.19664038933E+03  0.00000000000E+00 0. -1.
        -12    1    4    4    0    0 -0.14348486233E+01 -0.13887342505E+02 -0.41291821851E+01  0.14559093994E+02  0.00000000000E+00 0.  1.
</event>
<event>
12    1  0.1594973E-001  0.2335124E+03  0.7818608E-02  0.1124635E+00
         21   -1    0    0  501  502  0.00000000000E+00  0.00000000000E+00  0.98705000148E+03  0.98705000148E+03  0.00000000000E+00 0. -1.
         21   -1    0    0  502  503 -0.00000000000E+00 -0.00000000000E+00 -0.74238107498E+02  0.74238107498E+02  0.00000000000E+00 0. -1.
         -6    2    1    2    0  503  0.74787958482E+02  0.13893630521E+03  0.18192932483E+03  0.29400891725E+03  0.16866069059E+03 0.  0.
        -24    2    3    3    0    0 -0.15505828584E+02  0.10417231140E+03  0.11995440371E+03  0.17901116033E+03  0.81016266094E+02 0.  0.
          6    2    1    2  501    0 -0.74787958482E+02 -0.13893630521E+03  0.73088256915E+03  0.76727919172E+03  0.17213800432E+03 0.  0.
         24    2    5    5    0    0 -0.43883036543E+02 -0.28665156675E+02  0.16697905834E+03  0.19184535547E+03  0.78582583247E+02 0.  0.
          5    1    5    5  501    0 -0.30904921938E+02 -0.11027114853E+03  0.56390351081E+03  0.57543383625E+03  0.47000000000E+01 0. -1.
        -11    1    6    6    0    0 -0.47316564310E+02  0.15754588057E+02  0.90867630908E+02  0.10365322306E+03  0.00000000000E+00 0.  1.
         12    1    6    6    0    0  0.34335277666E+01 -0.44419744732E+02  0.76111427429E+02  0.88192132417E+02  0.00000000000E+00 0. -1.
         -5    1    3    3    0  503  0.90293787066E+02  0.34763993812E+02  0.61974921117E+02  0.11499775692E+03  0.47000000000E+01 0.  1.
         13    1    4    4    0    0 -0.51978173261E+01  0.96151271473E+02  0.13053087891E+03  0.16220479234E+03  0.00000000000E+00 0. -1.
        -14    1    4    4    0    0 -0.10308011258E+02  0.80210399229E+01 -0.10576475192E+02  0.16806367991E+02  0.00000000000E+00 0.  1.
</event>
<event>
12    1  0.1594973E-001  0.2118573E+03  0.7818608E-02  0.1140537E+00
         21   -1    0    0  501  502  0.00000000000E+00  0.00000000000E+00  0.81694370691E+02  0.81694370691E+02  0.00000000000E+00 0. -1.
         21   -1    0    0  502  503 -0.00000000000E+00 -0.00000000000E+00 -0.93575639224E+03  0.93575639224E+03  0.00000000000E+00 0. -1.
         -6    2    1    2    0  503  0.12038754410E+03 -0.16821493085E+02 -0.75760429829E+03  0.78666879296E+03  0.17351482252E+03 0.  0.
        -24    2    3    3    0    0  0.22031095001E+02  0.46693157389E+01 -0.15960668907E+03  0.18023736521E+03  0.80647634580E+02 0.  0.
          6    2    1    2  501    0 -0.12038754410E+03  0.16821493085E+02 -0.96457723264E+02  0.23078196997E+03  0.17082184252E+03 0.  0.
         24    2    5    5    0    0 -0.77377579291E+02  0.71654826159E+02 -0.35123124788E+02  0.13782727961E+03  0.81492461138E+02 0.  0.
          5    1    5    5  501    0 -0.43009964809E+02 -0.54833333073E+02 -0.61334598477E+02  0.92954690356E+02  0.47000000000E+01 0. -1.
        -13    1    6    6    0    0 -0.44952089359E+02 -0.41750301852E+01 -0.31925937930E+02  0.55293640932E+02  0.00000000000E+00 0.  1.
         14    1    6    6    0    0 -0.32425489933E+02  0.75829856344E+02 -0.31971868575E+01  0.82533638683E+02  0.00000000000E+00 0. -1.
         -5    1    3    3    0  503  0.98356449099E+02 -0.21490808824E+02 -0.59799760922E+03  0.60643142776E+03  0.47000000000E+01 0.  1.
         11    1    4    4    0    0 -0.53048144656E+00  0.17694538664E+02 -0.15209887485E+03  0.15312558846E+03  0.00000000000E+00 0. -1.
        -12    1    4    4    0    0  0.22561576448E+02 -0.13025222925E+02 -0.75078142191E+01  0.27111776748E+02  0.00000000000E+00 0.  1.
</event>
<event>
12    1  0.1594973E-001  0.2161328E+03  0.7818608E-02  0.1138685E+00
         21   -1    0    0  501  502  0.00000000000E+00  0.00000000000E+00  0.20001737791E+04  0.20001737791E+04  0.00000000000E+00 0. -1.
         21   -1    0    0  502  503 -0.00000000000E+00 -0.00000000000E+00 -0.28730260669E+02  0.28730260669E+02  0.00000000000E+00 0. -1.
         -6    2    1    2    0  503 -0.12783451883E+03  0.26062812152E+02  0.48930034919E+03  0.53108503561E+03  0.16004858309E+03 0.  0.
        -24    2    3    3    0    0 -0.14903451301E+03  0.47127218968E+02  0.42878396640E+03  0.46342802138E+03  0.80483416480E+02 0.  0.
          6    2    1    2  501    0  0.12783451883E+03 -0.26062812152E+02  0.14821431692E+04  0.14978190041E+04  0.17231500430E+03 0.  0.
         24    2    5    5    0    0  0.51837899808E+02  0.49285159163E+02  0.64223791039E+03  0.65111023680E+03  0.79742160410E+02 0.  0.
          5    1    5    5  501    0  0.75996619022E+02 -0.75347971316E+02  0.83990525883E+03  0.84670876734E+03  0.47000000000E+01 0. -1.
        -13    1    6    6    0    0  0.18256500429E+02  0.32619693473E+02  0.55372592611E+03  0.55498625700E+03  0.00000000000E+00 0.  1.
         14    1    6    6    0    0  0.33581399378E+02  0.16665465691E+02  0.88511984285E+02  0.96123979802E+02  0.00000000000E+00 0. -1.
         -5    1    3    3    0  503  0.21199994181E+02 -0.21064406816E+02  0.60516382790E+02  0.67657014224E+02  0.47000000000E+01 0.  1.
         11    1    4    4    0    0 -0.28296686084E+02 -0.13323428476E+02  0.34028754747E+02  0.46218744459E+02  0.00000000000E+00 0. -1.
        -12    1    4    4    0    0 -0.12073782693E+03  0.60450647444E+02  0.39475521165E+03  0.41720927693E+03  0.00000000000E+00 0.  1.
</event>
<event>
12    1  0.1594973E-001  0.1796633E+03  0.7818608E-02  0.1168420E+00
         21   -1    0    0  503  502  0.00000000000E+00  0.00000000000E+00  0.33922585349E+03  0.33922585349E+03  0.00000000000E+00 0.  1.
         21   -1    0    0  501  503 -0.00000000000E+00 -0.00000000000E+00 -0.10381570588E+03  0.10381570588E+03  0.00000000000E+00 0.  1.
          6    2    1    2  501    0 -0.36675555251E+02 -0.31104765038E+02  0.51072449306E+02  0.18563278880E+03  0.17186778185E+03 0.  0.
         24    2    3    3    0    0 -0.87619827115E+02 -0.44147618253E+02  0.30788177605E+02  0.12907329328E+03  0.78011261083E+02 0.  0.
         -6    2    1    2    0  502  0.36675555251E+02  0.31104765038E+02  0.18433769831E+03  0.25740877057E+03  0.17310772769E+03 0.  0.
        -24    2    5    5    0    0  0.49220827248E+02 -0.87078606329E+00  0.29395406939E+02  0.98635273493E+02  0.80258202850E+02 0.  0.
          5    1    3    3  501    0  0.50944271864E+02  0.13042853215E+02  0.20284271701E+02  0.56559495526E+02  0.47000000000E+01 0. -1.
        -13    1    4    4    0    0 -0.44553481083E+02  0.18619395604E+02  0.43140685322E+01  0.48479952110E+02  0.00000000000E+00 0.  1.
         14    1    4    4    0    0 -0.43066346033E+02 -0.62767013857E+02  0.26474109073E+02  0.80593341166E+02  0.00000000000E+00 0. -1.
         -5    1    5    5    0  502 -0.12545271997E+02  0.31975551102E+02  0.15494229137E+03  0.15877349707E+03  0.47000000000E+01 0.  1.
         11    1    6    6    0    0  0.25216493232E+02  0.39679736315E+02  0.13769448933E+02  0.48989291982E+02  0.00000000000E+00 0. -1.
        -12    1    6    6    0    0  0.24004334016E+02 -0.40550522378E+02  0.15625958006E+02  0.49645981512E+02  0.00000000000E+00 0.  1.
</event>
<event>
12    1  0.1594973E-001  0.1774670E+03  0.7818608E-02  0.1170567E+00
         21   -1    0    0  503  502  0.00000000000E+00  0.00000000000E+00  0.79931978521E+02  0.79931978521E+02  0.00000000000E+00 0.  1.
         21   -1    0    0  501  503 -0.00000000000E+00 -0.00000000000E+00 -0.45497328531E+03  0.45497328531E+03  0.00000000000E+00 0.  1.
          6    2    1    2  501    0  0.17759516217E+02 -0.34383942715E+02 -0.87029816165E+02  0.19660780960E+03  0.17199647078E+03 0.  0.
         24    2    3    3    0    0  0.16537142688E+02 -0.56930106756E+02  0.71477090658E+01  0.99647405475E+02  0.79774692287E+02 0.  0.
         -6    2    1    2    0  502 -0.17759516217E+02  0.34383942715E+02 -0.28801149063E+03  0.33829745423E+03  0.17319611102E+03 0.  0.
        -24    2    5    5    0    0 -0.28973051444E+01  0.12999510372E+02 -0.42153099646E+02  0.91019032850E+02  0.79562546994E+02 0.  0.
          5    1    3    3  501    0  0.12223735298E+01  0.22546164042E+02 -0.94177525231E+02  0.96960404128E+02  0.47000000000E+01 0. -1.
        -13    1    4    4    0    0  0.29500369824E+02 -0.72123586996E+02  0.12620548372E+02  0.78938975558E+02  0.00000000000E+00 0.  1.
         14    1    4    4    0    0 -0.12963227136E+02  0.15193480240E+02 -0.54728393057E+01  0.20708429917E+02  0.00000000000E+00 0. -1.
         -5    1    5    5    0  502 -0.14862211073E+02  0.21384432343E+02 -0.24585839098E+03  0.24727842138E+03  0.47000000000E+01 0.  1.
         11    1    6    6    0    0  0.35027884806E+02 -0.13657142861E+01 -0.39017390104E+01  0.35270971872E+02  0.00000000000E+00 0. -1.
        -12    1    6    6    0    0 -0.37925189951E+02  0.14365224658E+02 -0.38251360635E+02  0.55748060977E+02  0.00000000000E+00 0.  1.
</event>
<event>
12    1  0.1594973E-001  0.2446317E+03  0.7818608E-02  0.1116846E+00
         21   -1    0    0  501  502  0.00000000000E+00  0.00000000000E+00  0.84249132460E+03  0.84249132460E+03  0.00000000000E+00 0.  1.
         21   -1    0    0  502  503 -0.00000000000E+00 -0.00000000000E+00 -0.72575712315E+02  0.72575712315E+02  0.00000000000E+00 0.  1.
         -6    2    1    2    0  503  0.16842914648E+03 -0.42845139264E+02  0.45496325151E+03  0.51626929390E+03  0.17128438414E+03 0.  0.
        -24    2    3    3    0    0  0.14568783400E+03  0.13091948117E+02  0.23566096973E+03  0.28875730337E+03  0.80301578524E+02 0.  0.
          6    2    1    2  501    0 -0.16842914648E+03  0.42845139264E+02  0.31495236077E+03  0.39879774302E+03  0.17216436024E+03 0.  0.
         24    2    5    5    0    0 -0.42134177300E+02 -0.86165534412E+01  0.94351584461E+02  0.13940322194E+03  0.93174582946E+02 0.  0.
          5    1    5    5  501    0 -0.12629496918E+03  0.51461692705E+02  0.22060077631E+03  0.25939452108E+03  0.47000000000E+01 0. -1.
        -13    1    6    6    0    0 -0.41860680211E+02  0.19757115012E+02  0.10025089410E+03  0.11042147395E+03  0.00000000000E+00 0.  1.
         14    1    6    6    0    0 -0.27349708891E+00 -0.28373668453E+02 -0.58993096434E+01  0.28981747987E+02  0.00000000000E+00 0. -1.
         -5    1    3    3    0  503  0.22741312476E+02 -0.55937087381E+02  0.21930228179E+03  0.22751199053E+03  0.47000000000E+01 0.  1.
         11    1    4    4    0    0  0.26516812425E+01 -0.17220476901E+02  0.10670632288E+02  0.20431314973E+02  0.00000000000E+00 0. -1.
        -12    1    4    4    0    0  0.14303615276E+03  0.30312425018E+02  0.22499033744E+03  0.26832598839E+03  0.00000000000E+00 0.  1.
</event>
<event>
12    1  0.1594973E-001  0.3837655E+03  0.7818608E-02  0.1049602E+00
         21   -1    0    0  501  502  0.00000000000E+00  0.00000000000E+00  0.12540431425E+04  0.12540431425E+04  0.00000000000E+00 0.  1.
         21   -1    0    0  502  503 -0.00000000000E+00 -0.00000000000E+00 -0.13675463629E+03  0.13675463629E+03  0.00000000000E+00 0. -1.
         -6    2    1    2    0  503 -0.11324997213E+02 -0.34222982365E+03  0.82078242423E+03  0.90583199055E+03  0.17204156307E+03 0.  0.
        -24    2    3    3    0    0  0.54570769551E+02 -0.14248649515E+03  0.35185860859E+03  0.39187549022E+03  0.80508069207E+02 0.  0.
          6    2    1    2  501    0  0.11324997213E+02  0.34222982365E+03  0.29650608201E+03  0.48496578826E+03  0.17328142241E+03 0.  0.
         24    2    5    5    0    0 -0.59927149314E+02  0.21847740625E+03  0.17159518220E+03  0.29518604200E+03  0.79788799787E+02 0.  0.
          5    1    5    5  501    0  0.71252146527E+02  0.12375241741E+03  0.12491089981E+03  0.18977974626E+03  0.47000000000E+01 0. -1.
        -13    1    6    6    0    0 -0.50211801137E+02  0.17610829813E+03  0.17268295697E+03  0.25170371723E+03  0.00000000000E+00 0.  1.
         14    1    6    6    0    0 -0.97153481767E+01  0.42369108119E+02 -0.10877747665E+01  0.43482324764E+02  0.00000000000E+00 0. -1.
         -5    1    3    3    0  503 -0.65895766765E+02 -0.19974332851E+03  0.46892381563E+03  0.51395650033E+03  0.47000000000E+01 0.  1.
         11    1    4    4    0    0 -0.83694731054E+01 -0.17297513207E+02  0.84719041102E+01  0.21000600050E+02  0.00000000000E+00 0. -1.
        -12    1    4    4    0    0  0.62940242657E+02 -0.12518898194E+03  0.34338670448E+03  0.37087489017E+03  0.00000000000E+00 0.  1.
</event>
<event>
12    1  0.1594973E-001  0.2374194E+03  0.7818608E-02  0.1121932E+00
         21   -1    0    0  503  502  0.00000000000E+00  0.00000000000E+00  0.11865672535E+03  0.11865672535E+03  0.00000000000E+00 0. -1.
         21   -1    0    0  501  503 -0.00000000000E+00 -0.00000000000E+00 -0.93162891327E+03  0.93162891327E+03  0.00000000000E+00 0. -1.
          6    2    1    2  501    0 -0.16077731938E+03  0.54018820991E+01 -0.77708216558E+03  0.81254208840E+03  0.17461221781E+03 0.  0.
         24    2    3    3    0    0 -0.15870522718E+03 -0.29634781002E+02 -0.46643529781E+03  0.49988344423E+03  0.79094888491E+02 0.  0.
         -6    2    1    2    0  502  0.16077731938E+03 -0.54018820991E+01 -0.35890022338E+02  0.23774355022E+03  0.17133410405E+03 0.  0.
        -24    2    5    5    0    0  0.13625941651E+03 -0.56808649786E+01  0.34468703654E+02  0.16308669711E+03  0.82524411119E+02 0.  0.
          5    1    3    3  501    0 -0.20720922009E+01  0.35036663101E+02 -0.31064686776E+03  0.31265864418E+03  0.47000000000E+01 0. -1.
        -11    1    4    4    0    0 -0.49385502325E+02 -0.20399730797E+02 -0.67230394447E+02  0.85877836454E+02  0.00000000000E+00 0.  1.
         12    1    4    4    0    0 -0.10931972485E+03 -0.92350502045E+01 -0.39920490337E+03  0.41400560777E+03  0.00000000000E+00 0. -1.
         -5    1    5    5    0  502  0.24517902872E+02  0.27898287951E+00 -0.70358725992E+02  0.74656853107E+02  0.47000000000E+01 0.  1.
         13    1    6    6    0    0  0.13685859789E+03  0.75731006790E+01  0.12780911743E+02  0.13766255619E+03  0.00000000000E+00 0. -1.
        -14    1    6    6    0    0 -0.59918138496E+00 -0.13253965658E+02  0.21687791911E+02  0.25424140929E+02  0.00000000000E+00 0.  1.
</event>
<event>
12    1  0.1594973E-001  0.1851098E+03  0.7818608E-02  0.1163509E+00
         21   -1    0    0  503  502  0.00000000000E+00  0.00000000000E+00  0.19037038198E+04  0.19037038198E+04  0.00000000000E+00 0. -1.
         21   -1    0    0  501  503 -0.00000000000E+00 -0.00000000000E+00 -0.18231286946E+02  0.18231286946E+02  0.00000000000E+00 0. -1.
          6    2    1    2  501    0  0.73827829767E+01  0.70979207151E+02  0.79550849128E+03  0.81676152636E+03  0.17080128194E+03 0.  0.
         24    2    3    3    0    0  0.22373042587E+02  0.83122547765E+02  0.78698604164E+03  0.79515387141E+03  0.74247818222E+02 0.  0.
         -6    2    1    2    0  502 -0.73827829767E+01 -0.70979207151E+02  0.10899640416E+04  0.11051735804E+04  0.16820962376E+03 0.  0.
        -24    2    5    5    0    0 -0.37178194794E+02  0.13214811402E+02  0.72904438887E+03  0.73333828750E+03  0.68720255862E+02 0.  0.
          5    1    3    3  501    0 -0.14990259610E+02 -0.12143340614E+02  0.85224496455E+01  0.21607654949E+02  0.47000000000E+01 0. -1.
        -11    1    4    4    0    0 -0.25885529569E+02  0.29385543820E+02  0.35733411959E+03  0.35947356488E+03  0.00000000000E+00 0.  1.
         12    1    4    4    0    0  0.48258572156E+02  0.53737003946E+02  0.42965192205E+03  0.43568030653E+03  0.00000000000E+00 0. -1.
         -5    1    5    5    0  502  0.29795411817E+02 -0.84194018553E+02  0.36091965273E+03  0.37183529291E+03  0.47000000000E+01 0.  1.
         13    1    6    6    0    0  0.61813440226E+00  0.20083340912E+01  0.55004838396E+03  0.55005239768E+03  0.00000000000E+00 0. -1.
        -14    1    6    6    0    0 -0.37796329196E+02  0.11206477311E+02  0.17899600491E+03  0.18328588982E+03  0.00000000000E+00 0.  1.
</event>
<event>
12    1  0.1594973E-001  0.2061235E+03  0.7818608E-02  0.1145082E+00
         21   -1    0    0  503  502  0.00000000000E+00  0.00000000000E+00  0.51692124415E+03  0.51692124415E+03  0.00000000000E+00 0.  1.
         21   -1    0    0  501  503 -0.00000000000E+00 -0.00000000000E+00 -0.26987751431E+03  0.26987751431E+03  0.00000000000E+00 0. -1.
          6    2    1    2  501    0 -0.10487208162E+03  0.30268241292E+02 -0.20542493823E+03  0.28959175380E+03  0.17248089370E+03 0.  0.
         24    2    3    3    0    0 -0.55344522402E+02 -0.48277243896E+02 -0.13040881991E+03  0.17012677830E+03  0.80888515539E+02 0.  0.
         -6    2    1    2    0  502  0.10487208162E+03 -0.30268241292E+02  0.45246866807E+03  0.49720700465E+03  0.17485019291E+03 0.  0.
        -24    2    5    5    0    0  0.69428303009E+02  0.41250319547E+02  0.19602806280E+03  0.22859010270E+03  0.85466692491E+02 0.  0.
          5    1    3    3  501    0 -0.49527559215E+02  0.78545485188E+02 -0.75016118312E+02  0.11946497550E+03  0.47000000000E+01 0. -1.
        -13    1    4    4    0    0  0.47678831637E+01 -0.48615737406E+02 -0.64688837804E+02  0.81060892975E+02  0.00000000000E+00 0.  1.
         14    1    4    4    0    0 -0.60112405565E+02  0.33849350984E+00 -0.65719982110E+02  0.89065885328E+02  0.00000000000E+00 0. -1.
         -5    1    5    5    0  502  0.35443778608E+02 -0.71518560839E+02  0.25644060527E+03  0.26861690196E+03  0.47000000000E+01 0.  1.
         13    1    6    6    0    0  0.14776134258E+01 -0.16377261315E+02  0.40358862461E+01  0.16931816424E+02  0.00000000000E+00 0. -1.
        -14    1    6    6    0    0  0.67950689583E+02  0.57627580862E+02  0.19199217655E+03  0.21165828627E+03  0.00000000000E+00 0.  1.
</event>
<event>
12    1  0.1594973E-001  0.2917898E+03  0.7818608E-02  0.1089471E+00
         21   -1    0    0  501  502  0.00000000000E+00  0.00000000000E+00  0.74863651399E+03  0.74863651399E+03  0.00000000000E+00 0. -1.
         21   -1    0    0  502  503 -0.00000000000E+00 -0.00000000000E+00 -0.12279350974E+03  0.12279350974E+03  0.00000000000E+00 0.  1.
         -6    2    1    2    0  503  0.56629647018E+02  0.22920276680E+03  0.43253836582E+03  0.52175736647E+03  0.17146570017E+03 0.  0.
        -24    2    3    3    0    0  0.33430629140E+02  0.92839735283E+02  0.31365859290E+03  0.33930857584E+03  0.83736332170E+02 0.  0.
          6    2    1    2  501    0 -0.56629647018E+02 -0.22920276680E+03  0.19330463843E+03  0.34967265726E+03  0.17077312074E+03 0.  0.
         24    2    5    5    0    0  0.24749492462E+02 -0.14720852950E+03  0.15872091964E+03  0.22899232374E+03  0.70443349343E+02 0.  0.
          5    1    5    5  501    0 -0.81379139480E+02 -0.81994237303E+02  0.34583718790E+02  0.12068033352E+03  0.47000000000E+01 0. -1.
        -13    1    6    6    0    0 -0.16384017083E+02 -0.74094281966E+02  0.46923856848E+02  0.89220216192E+02  0.00000000000E+00 0.  1.
         14    1    6    6    0    0  0.41133509545E+02 -0.73114247530E+02  0.11179706279E+03  0.13977210755E+03  0.00000000000E+00 0. -1.
         -5    1    3    3    0  503  0.23199017879E+02  0.13636303152E+03  0.11887977292E+03  0.18244879063E+03  0.47000000000E+01 0.  1.
         13    1    4    4    0    0  0.31793307025E+02  0.18771446905E+02  0.20173665410E+03  0.20508744281E+03  0.00000000000E+00 0. -1.
        -14    1    4    4    0    0  0.16373221145E+01  0.74068288379E+02  0.11192193880E+03  0.13422113303E+03  0.00000000000E+00 0.  1.
</event>
<event>
12    1  0.1594973E-001  0.2242592E+03  0.7818608E-02  0.1130822E+00
         21   -1    0    0  503  502  0.00000000000E+00  0.00000000000E+00  0.15725299254E+03  0.15725299254E+03  0.00000000000E+00 0.  1.
         21   -1    0    0  501  503 -0.00000000000E+00 -0.00000000000E+00 -0.44697331507E+03  0.44697331507E+03  0.00000000000E+00 0. -1.
          6    2    1    2  501    0 -0.42874595998E+02  0.13673442539E+03 -0.30646563846E+03  0.37975434142E+03  0.17250402371E+03 0.  0.
         24    2    3    3    0    0 -0.55672492089E+01  0.12927414428E+03 -0.10268708301E+03  0.17240130049E+03  0.49343416493E+02 0.  0.
         -6    2    1    2    0  502  0.42874595998E+02 -0.13673442539E+03  0.16745315942E+02  0.22447196619E+03  0.17196721761E+03 0.  0.
        -24    2    5    5    0    0 -0.85225205021E+01 -0.45660852068E+02 -0.44031552828E+02  0.10342661469E+03  0.81244939627E+02 0.  0.
          5    1    3    3  501    0 -0.37307346789E+02  0.74602811134E+01 -0.20377855546E+03  0.20735304093E+03  0.47000000000E+01 0. -1.
        -11    1    4    4    0    0  0.21163485819E+02  0.57443671614E+02 -0.37540936641E+02  0.71812188829E+02  0.00000000000E+00 0.  1.
         12    1    4    4    0    0 -0.26730735027E+02  0.71830472662E+02 -0.65146146365E+02  0.10058911166E+03  0.00000000000E+00 0. -1.
         -5    1    5    5    0  502  0.51397116500E+02 -0.91073573321E+02  0.60776868771E+02  0.12104535150E+03  0.47000000000E+01 0.  1.
         11    1    6    6    0    0 -0.29663966806E+02 -0.60509641062E+02 -0.27687463235E+02  0.72855769905E+02  0.00000000000E+00 0. -1.
        -12    1    6    6    0    0  0.21141446304E+02  0.14848788994E+02 -0.16344089593E+02  0.30570844788E+02  0.00000000000E+00 0.  1.
</event>
<event>
12    1  0.1594973E-001  0.1880736E+03  0.7818608E-02  0.1160626E+00
         21   -1    0    0  501  502  0.00000000000E+00  0.00000000000E+00  0.28321264980E+03  0.28321264980E+03  0.00000000000E+00 0.  1.
         21   -1    0    0  502  503 -0.00000000000E+00 -0.00000000000E+00 -0.16357787230E+03  0.16357787230E+03  0.00000000000E+00 0.  1.
         -6    2    1    2    0  503  0.63416263988E+02 -0.31776967996E+02 -0.50270767781E+02  0.19467623681E+03  0.17418464012E+03 0.  0.
        -24    2    3    3    0    0  0.11505417321E+02 -0.63513903248E+02 -0.79236296283E+02  0.12712580452E+03  0.75605482562E+02 0.  0.
          6    2    1    2  501    0 -0.63416263988E+02  0.31776967996E+02  0.16990554528E+03  0.25211428528E+03  0.17222752479E+03 0.  0.
         24    2    5    5    0    0 -0.10902743584E+03  0.20809507693E+02  0.14092473290E+03  0.19677314625E+03  0.80869483526E+02 0.  0.
          5    1    5    5  501    0  0.45611171853E+02  0.10967460303E+02  0.28980812376E+02  0.55341139031E+02  0.47000000000E+01 0. -1.
        -13    1    6    6    0    0 -0.42186410291E+02  0.43555328257E+02  0.94471267697E+02  0.11225676039E+03  0.00000000000E+00 0.  1.
         14    1    6    6    0    0 -0.66841025550E+02 -0.22745820564E+02  0.46453465207E+02  0.84516385863E+02  0.00000000000E+00 0. -1.
         -5    1    3    3    0  503  0.51910846667E+02  0.31736935252E+02  0.28965528502E+02  0.67550432288E+02  0.47000000000E+01 0.  1.
         11    1    4    4    0    0  0.20032401250E+02 -0.67709503035E+02 -0.29559662579E+02  0.76548334750E+02  0.00000000000E+00 0. -1.
        -12    1    4    4    0    0 -0.85269839297E+01  0.41955997873E+01 -0.49676633704E+02  0.50577469773E+02  0.00000000000E+00 0.  1.
</event>
<event>
12    1  0.1594973E-001  0.2211038E+03  0.7818608E-02  0.1133526E+00
         21   -1    0    0  503  502  0.00000000000E+00  0.00000000000E+00  0.29647341860E+03  0.29647341860E+03  0.00000000000E+00 0.  1.
         21   -1    0    0  501  503 -0.00000000000E+00 -0.00000000000E+00 -0.16343959683E+03  0.16343959683E+03  0.00000000000E+00 0. -1.
          6    2    1    2  501    0  0.22084434146E+02  0.13222727977E+03  0.77455060271E+02  0.23193081088E+03  0.17268711280E+03 0.  0.
         24    2    3    3    0    0  0.12294855557E+02  0.13628230564E+03  0.44373876043E+01  0.15799875014E+03  0.78866243302E+02 0.  0.
         -6    2    1    2    0  502 -0.22084434146E+02 -0.13222727977E+03  0.55578761493E+02  0.22798220455E+03  0.17582693513E+03 0.  0.
        -24    2    5    5    0    0 -0.56824920633E+02 -0.11109780225E+03  0.92666097944E+02  0.17274710026E+03  0.75384094273E+02 0.  0.
          5    1    3    3  501    0  0.97895785884E+01 -0.40550258712E+01  0.73017672667E+02  0.73932060741E+02  0.47000000000E+01 0. -1.
        -13    1    4    4    0    0  0.31099927518E+02  0.60107320924E+02  0.31968376929E+02  0.74846994888E+02  0.00000000000E+00 0.  1.
         14    1    4    4    0    0 -0.18805071961E+02  0.76174984713E+02 -0.27530989324E+02  0.83151755247E+02  0.00000000000E+00 0. -1.
         -5    1    5    5    0  502  0.34740486487E+02 -0.21129477513E+02 -0.37087336450E+02  0.55235104293E+02  0.47000000000E+01 0.  1.
         13    1    6    6    0    0 -0.71275669495E+02 -0.10943946339E+03  0.78160219410E+02  0.15220458964E+03  0.00000000000E+00 0. -1.
        -14    1    6    6    0    0  0.14450748863E+02 -0.16583388613E+01  0.14505878533E+02  0.20542510618E+02  0.00000000000E+00 0.  1.
</event>
<event>
12    1  0.1594973E-001  0.2116220E+03  0.7818608E-02  0.1140596E+00
         21   -1    0    0  503  502  0.00000000000E+00  0.00000000000E+00  0.48885219786E+02  0.48885219786E+02  0.00000000000E+00 0.  1.
         21   -1    0    0  501  503 -0.00000000000E+00 -0.00000000000E+00 -0.96745365570E+03  0.96745365570E+03  0.00000000000E+00 0. -1.
          6    2    1    2  501    0  0.77561996850E+02  0.93462419122E+02 -0.58543089835E+03  0.62250560528E+03  0.17329975397E+03 0.  0.
         24    2    3    3    0    0  0.51427640317E+02 -0.24077313362E+01 -0.16174419068E+03  0.18729691213E+03  0.79172916564E+02 0.  0.
         -6    2    1    2    0  502 -0.77561996850E+02 -0.93462419122E+02 -0.33313753756E+03  0.39383327020E+03  0.17138535129E+03 0.  0.
        -24    2    5    5    0    0 -0.11358119533E+03 -0.93116364245E+02 -0.30511062521E+03  0.34795189893E+03  0.80041771171E+02 0.  0.
          5    1    3    3  501    0  0.26134356533E+02  0.95870150458E+02 -0.42368670767E+03  0.43520869315E+03  0.47000000000E+01 0. -1.
        -13    1    4    4    0    0  0.34917864160E+02  0.36219523300E+02 -0.68155975115E+02  0.84713328641E+02  0.00000000000E+00 0.  1.
         14    1    4    4    0    0  0.16509776157E+02 -0.38627254636E+02 -0.93588215565E+02  0.10258358349E+03  0.00000000000E+00 0. -1.
         -5    1    5    5    0  502  0.36019198480E+02 -0.34605487699E+00 -0.28026912353E+02  0.45881371265E+02  0.47000000000E+01 0.  1.
         13    1    6    6    0    0 -0.10671814759E+03 -0.92742337973E+02 -0.21341930010E+03  0.25600332407E+03  0.00000000000E+00 0. -1.
        -14    1    6    6    0    0 -0.68630477444E+01 -0.37402627193E+00 -0.91691325107E+02  0.91948574866E+02  0.00000000000E+00 0.  1.
</event>
<event>
12    1  0.1594973E-001  0.4784190E+03  0.7818608E-02  0.1019586E+00
         21   -1    0    0  503  502  0.00000000000E+00  0.00000000000E+00  0.73422227094E+03  0.73422227094E+03  0.00000000000E+00 0. -1.
         21   -1    0    0  501  503 -0.00000000000E+00 -0.00000000000E+00 -0.49489861683E+03  0.49489861683E+03  0.00000000000E+00 0.  1.
          6    2    1    2  501    0  0.36331616434E+03 -0.25942832260E+03 -0.25437593975E+03  0.54164430888E+03  0.17137604495E+03 0.  0.
         24    2    3    3    0    0  0.11893718677E+03 -0.14539327548E+03 -0.71397925685E+02  0.21571775230E+03  0.78429751478E+02 0.  0.
         -6    2    1    2    0  502 -0.36331616434E+03  0.25942832260E+03  0.49369959386E+03  0.68747657888E+03  0.17199728980E+03 0.  0.
        -24    2    5    5    0    0 -0.32163830588E+03  0.24879502262E+03  0.49334788266E+03  0.64420621194E+03  0.79116035623E+02 0.  0.
          5    1    3    3  501    0  0.24437897758E+03 -0.11403504712E+03 -0.18297801406E+03  0.32592655658E+03  0.47000000000E+01 0. -1.
        -11    1    4    4    0    0  0.98840369356E+02 -0.60176445742E+02 -0.46303290196E+02  0.12463794735E+03  0.00000000000E+00 0.  1.
         12    1    4    4    0    0  0.20096817410E+02 -0.85216829734E+02 -0.25094635489E+02  0.91079804953E+02  0.00000000000E+00 0. -1.
         -5    1    5    5    0  502 -0.41677858464E+02  0.10633299974E+02  0.35171120187E+00  0.43270366941E+02  0.47000000000E+01 0.  1.
         13    1    6    6    0    0 -0.16690075882E+03  0.90878461968E+02  0.18892807527E+03  0.26797122190E+03  0.00000000000E+00 0. -1.
        -14    1    6    6    0    0 -0.15473754706E+03  0.15791656065E+03  0.30441980739E+03  0.37623499004E+03  0.00000000000E+00 0.  1.
</event>
<event>
12    1  0.1594973E-001  0.1726361E+03  0.7818608E-02  0.1175196E+00
         21   -1    0    0  503  502  0.00000000000E+00  0.00000000000E+00  0.79077531443E+02  0.79077531443E+02  0.00000000000E+00 0. -1.
         21   -1    0    0  501  503 -0.00000000000E+00 -0.00000000000E+00 -0.44356374147E+03  0.44356374147E+03  0.00000000000E+00 0. -1.
          6    2    1    2  501    0  0.14155156599E+02  0.13862526713E+01 -0.28413709179E+03  0.33247120392E+03  0.17204919166E+03 0.  0.
         24    2    3    3    0    0  0.61082714393E+02  0.40739632710E+02 -0.14575082489E+03  0.18106534846E+03  0.78425389936E+02 0.  0.
         -6    2    1    2    0  502 -0.14155156599E+02 -0.13862526713E+01 -0.80349118238E+02  0.19017006899E+03  0.17177422445E+03 0.  0.
        -24    2    5    5    0    0  0.51388042052E+02 -0.23753136498E+02 -0.24429046995E+02  0.10103347298E+03  0.80037753373E+02 0.  0.
          5    1    3    3  501    0 -0.46927557794E+02 -0.39353380039E+02 -0.13838626690E+03  0.15140585546E+03  0.47000000000E+01 0. -1.
        -13    1    4    4    0    0  0.75297638691E+01  0.37765812279E+01  0.95194607572E+01  0.12711413879E+02  0.00000000000E+00 0.  1.
         14    1    4    4    0    0  0.53552950524E+02  0.36963051482E+02 -0.15527028565E+03  0.16835393458E+03  0.00000000000E+00 0. -1.
         -5    1    5    5    0  502 -0.65543198651E+02  0.22366883826E+02 -0.55920071244E+02  0.89136596017E+02  0.47000000000E+01 0.  1.
         13    1    6    6    0    0  0.32147731562E+02 -0.14580770601E+02  0.27599201159E+02  0.44808385605E+02  0.00000000000E+00 0. -1.
        -14    1    6    6    0    0  0.19240310490E+02 -0.91723658970E+01 -0.52028248154E+02  0.56225087371E+02  0.00000000000E+00 0.  1.
</event>
<event>
12    1  0.1594973E-001  0.2000689E+03  0.7818608E-02  0.1150332E+00
         21   -1    0    0  501  502  0.00000000000E+00  0.00000000000E+00  0.10193776039E+03  0.10193776039E+03  0.00000000000E+00 0. -1.
         21   -1    0    0  502  503 -0.00000000000E+00 -0.00000000000E+00 -0.80296855763E+03  0.80296855763E+03  0.00000000000E+00 0. -1.
         -6    2    1    2    0  503 -0.48744050234E+02 -0.89190864021E+02 -0.67759299926E+03  0.70651244562E+03  0.17232692915E+03 0.  0.
        -24    2    3    3    0    0 -0.32571612902E+02 -0.67690987653E+02 -0.24147581915E+03  0.26954096234E+03  0.93267247026E+02 0.  0.
          6    2    1    2  501    0  0.48744050234E+02  0.89190864021E+02 -0.23437797977E+02  0.19839387240E+03  0.16875960883E+03 0.  0.
         24    2    5    5    0    0  0.78350300079E+02  0.92257087867E+01 -0.88866202639E+01  0.11176372260E+03  0.78665586149E+02 0.  0.
          5    1    5    5  501    0 -0.29606249845E+02  0.79965155234E+02 -0.14551177713E+02  0.86630149800E+02  0.47000000000E+01 0. -1.
        -11    1    6    6    0    0 -0.14592323774E+02  0.67906650724E+01 -0.96879034058E+01  0.18785753050E+02  0.00000000000E+00 0.  1.
         12    1    6    6    0    0  0.92942623853E+02  0.24350437144E+01  0.80128314184E+00  0.92977969548E+02  0.00000000000E+00 0. -1.
         -5    1    3    3    0  503 -0.16172437332E+02 -0.21499876367E+02 -0.43611718011E+03  0.43697148328E+03  0.47000000000E+01 0.  1.
         11    1    4    4    0    0 -0.38966655363E+02 -0.37269455878E+02 -0.23026636355E+03  0.23649526582E+03  0.00000000000E+00 0. -1.
        -12    1    4    4    0    0  0.63950424602E+01 -0.30421531775E+02 -0.11209455597E+02  0.33045696519E+02  0.00000000000E+00 0.  1.
</event>
<event>
12    1  0.1594973E-001  0.2126530E+03  0.7818608E-02  0.1140149E+00
         21   -1    0    0  503  502  0.00000000000E+00  0.00000000000E+00  0.12373912717E+04  0.12373912717E+04  0.00000000000E+00 0. -1.
         21   -1    0    0  501  503 -0.00000000000E+00 -0.00000000000E+00 -0.37094305487E+02  0.37094305487E+02  0.00000000000E+00 0. -1.
          6    2    1    2  501    0  0.57361653130E+02  0.11169637234E+03  0.49361866294E+03  0.53747622692E+03  0.17162421524E+03 0.  0.
         24    2    3    3    0    0  0.18558093517E+02  0.12071552647E+03  0.46878919219E+03  0.49029938941E+03  0.75587984321E+02 0.  0.
         -6    2    1    2    0  502 -0.57361653130E+02 -0.11169637234E+03  0.70667830331E+03  0.73700935031E+03  0.16739808608E+03 0.  0.
        -24    2    5    5    0    0  0.20372410219E+02 -0.99330568886E+02  0.47010834433E+03  0.48764429022E+03  0.80706265935E+02 0.  0.
          5    1    3    3  501    0  0.38803559613E+02 -0.90191541289E+01  0.24829470751E+02  0.47176837512E+02  0.47000000000E+01 0. -1.
        -13    1    4    4    0    0  0.31729427240E+02  0.17464870680E+02  0.17243143675E+03  0.17619415042E+03  0.00000000000E+00 0.  1.
         14    1    4    4    0    0 -0.13171333724E+02  0.10325065579E+03  0.29635775544E+03  0.31410523900E+03  0.00000000000E+00 0. -1.
         -5    1    5    5    0  502 -0.77734063348E+02 -0.12365803457E+02  0.23656995899E+03  0.24936506009E+03  0.47000000000E+01 0.  1.
         13    1    6    6    0    0  0.32319444124E+01 -0.45150908485E+02  0.36812300850E+03  0.37089567184E+03  0.00000000000E+00 0. -1.
        -14    1    6    6    0    0  0.17140465806E+02 -0.54179660402E+02  0.10198533583E+03  0.11674861838E+03  0.00000000000E+00 0.  1.
</event>
<event>
12    1  0.1594973E-001  0.1858735E+03  0.7818608E-02  0.1163533E+00
         21   -1    0    0  501  502  0.00000000000E+00  0.00000000000E+00  0.57669939724E+02  0.57669939724E+02  0.00000000000E+00 0. -1.
         21   -1    0    0  502  503 -0.00000000000E+00 -0.00000000000E+00 -0.85744161035E+03  0.85744161035E+03  0.00000000000E+00 0. -1.
         -6    2    1    2    0  503  0.48372161238E+02 -0.40564023654E+02 -0.65536557775E+03  0.67973512530E+03  0.16896891453E+03 0.  0.
        -24    2    3    3    0    0 -0.16053555662E+02  0.23190947648E+02 -0.24289430757E+03  0.25739638912E+03  0.80372381934E+02 0.  0.
          6    2    1    2  501    0 -0.48372161238E+02  0.40564023654E+02 -0.14440609288E+03  0.23537642477E+03  0.17482458545E+03 0.  0.
         24    2    5    5    0    0  0.10931131957E+02  0.48450935582E+02 -0.14609658299E+03  0.17534283650E+03  0.83270138394E+02 0.  0.
          5    1    5    5  501    0 -0.59303293195E+02 -0.78869119282E+01  0.16904901044E+01  0.60033588268E+02  0.47000000000E+01 0. -1.
        -13    1    6    6    0    0  0.19699411288E+01 -0.69280652512E+01 -0.10634178923E+03  0.10658543471E+03  0.00000000000E+00 0.  1.
         14    1    6    6    0    0  0.89611908279E+01  0.55379000833E+02 -0.39754793754E+02  0.68757401789E+02  0.00000000000E+00 0. -1.
         -5    1    3    3    0  503  0.64425716900E+02 -0.63754971302E+02 -0.41247127017E+03  0.42233873619E+03  0.47000000000E+01 0.  1.
         11    1    4    4    0    0 -0.27191519701E+02 -0.10332466200E+02 -0.19870488614E+03  0.20082273372E+03  0.00000000000E+00 0. -1.
        -12    1    4    4    0    0  0.11137964039E+02  0.33523413847E+02 -0.44189421429E+02  0.56573655399E+02  0.00000000000E+00 0.  1.
</event>
<event>
12    1  0.1594973E-001  0.2038834E+03  0.7818608E-02  0.1146618E+00
         21   -1    0    0  503  502  0.00000000000E+00  0.00000000000E+00  0.45733314442E+03  0.45733314442E+03  0.00000000000E+00 0.  1.
         21   -1    0    0  501  503 -0.00000000000E+00 -0.00000000000E+00 -0.15110298754E+03  0.15110298754E+03  0.00000000000E+00 0. -1.
          6    2    1    2  501    0  0.10022444128E+03  0.43137376295E+02 -0.39191006894E+02  0.20761590107E+03  0.17222849790E+03 0.  0.
         24    2    3    3    0    0 -0.35105337920E+01  0.55446604820E+02 -0.15980338169E+02  0.10050246912E+03  0.82211466701E+02 0.  0.
         -6    2    1    2    0  502 -0.10022444128E+03 -0.43137376295E+02  0.34542116378E+03  0.40082023089E+03  0.17156720328E+03 0.  0.
        -24    2    5    5    0    0 -0.85903620259E+02  0.12214153378E+02  0.28966011406E+03  0.32081859080E+03  0.10720526576E+03 0.  0.
          5    1    3    3  501    0  0.10373497508E+03 -0.12309228525E+02 -0.23210668725E+02  0.10711343195E+03  0.47000000000E+01 0. -1.
        -13    1    4    4    0    0 -0.29836442287E+02 -0.13973418098E+00  0.12958504037E+02  0.32529304341E+02  0.00000000000E+00 0.  1.
         14    1    4    4    0    0  0.26325908495E+02  0.55586339001E+02 -0.28938842206E+02  0.67973164777E+02  0.00000000000E+00 0. -1.
         -5    1    5    5    0  502 -0.14320821026E+02 -0.55351529673E+02  0.55761049721E+02  0.80001640096E+02  0.47000000000E+01 0.  1.
         11    1    6    6    0    0 -0.80461912864E+02 -0.31148553786E+02  0.13596238314E+03  0.16102832500E+03  0.00000000000E+00 0. -1.
        -12    1    6    6    0    0 -0.54417073947E+01  0.43362707164E+02  0.15369773092E+03  0.15979026579E+03  0.00000000000E+00 0.  1.
</event>
<event>
12    1  0.1594973E-001  0.1855349E+03  0.7818608E-02  0.1162695E+00
         21   -1    0    0  503  502  0.00000000000E+00  0.00000000000E+00  0.81999676139E+03  0.81999676139E+03  0.00000000000E+00 0. -1.
         21   -1    0    0  501  503 -0.00000000000E+00 -0.00000000000E+00 -0.13291040414E+03  0.13291040414E+03  0.00000000000E+00 0. -1.
          6    2    1    2  501    0  0.11293243273E+01 -0.66267168084E+02 -0.50669205060E+02  0.19232927296E+03  0.17329330038E+03 0.  0.
         24    2    3    3    0    0 -0.20938575716E+01  0.17387062437E+02 -0.69172375961E+02  0.10646381705E+03  0.79012863282E+02 0.  0.
         -6    2    1    2    0  502 -0.11293243273E+01  0.66267168084E+02  0.73775556231E+03  0.76057789256E+03  0.17263501382E+03 0.  0.
        -24    2    5    5    0    0  0.36589671152E+02 -0.13833015699E+02  0.27898125084E+03  0.29331488212E+03  0.81687975833E+02 0.  0.
          5    1    3    3  501    0  0.32231818989E+01 -0.83654230522E+02  0.18503170901E+02  0.85865455913E+02  0.47000000000E+01 0. -1.
        -13    1    4    4    0    0  0.29031802434E+02  0.18500934743E+02 -0.45468812138E+01  0.34724692478E+02  0.00000000000E+00 0.  1.
         14    1    4    4    0    0 -0.31125660006E+02 -0.11138723060E+01 -0.64625494747E+02  0.71739124567E+02  0.00000000000E+00 0. -1.
         -5    1    5    5    0  502 -0.37718995479E+02  0.80100183783E+02  0.45877431147E+03  0.46726301044E+03  0.47000000000E+01 0.  1.
         13    1    6    6    0    0  0.10937731122E+02 -0.87868381582E+01  0.26147544866E+03  0.26185158533E+03  0.00000000000E+00 0. -1.
        -14    1    6    6    0    0  0.25651940030E+02 -0.50461775405E+01  0.17505802175E+02  0.31463296790E+02  0.00000000000E+00 0.  1.
</event>
<event>
12    1  0.1594973E-001  0.1797742E+03  0.7818608E-02  0.1168087E+00
         21   -1    0    0  501  502  0.00000000000E+00  0.00000000000E+00  0.81597926926E+03  0.81597926926E+03  0.00000000000E+00 0.  1.
         21   -1    0    0  502  503 -0.00000000000E+00 -0.00000000000E+00 -0.59262340426E+02  0.59262340426E+02  0.00000000000E+00 0.  1.
         -6    2    1    2    0  503 -0.37605174278E+02 -0.39355100234E+02  0.12614147600E+03  0.21961432091E+03  0.17133535810E+03 0.  0.
        -24    2    3    3    0    0 -0.45129650632E+02  0.15527296791E+02  0.15845172644E+02  0.96098897660E+02  0.81891063759E+02 0.  0.
          6    2    1    2  501    0  0.37605174278E+02  0.39355100234E+02  0.63057545284E+03  0.65562728878E+03  0.17105194246E+03 0.  0.
         24    2    5    5    0    0  0.62198672882E+02  0.79322376588E+02  0.51442257348E+03  0.53026459601E+03  0.79932742645E+02 0.  0.
          5    1    5    5  501    0 -0.24593498604E+02 -0.39967276354E+02  0.11615287936E+03  0.12536269276E+03  0.47000000000E+01 0. -1.
        -13    1    6    6    0    0  0.32645785007E+02  0.35949523712E+02  0.41507298471E+03  0.41790393414E+03  0.00000000000E+00 0.  1.
         14    1    6    6    0    0  0.29552887875E+02  0.43372852875E+02  0.99349588763E+02  0.11236066187E+03  0.00000000000E+00 0. -1.
         -5    1    3    3    0  503  0.75244763544E+01 -0.54882397025E+02  0.11029630336E+03  0.12351542325E+03  0.47000000000E+01 0.  1.
         13    1    4    4    0    0 -0.17778404185E+02  0.16152786515E+02  0.48124003513E+02  0.53785721913E+02  0.00000000000E+00 0. -1.
        -14    1    4    4    0    0 -0.27351246447E+02 -0.62548972402E+00 -0.32278830869E+02  0.42313175748E+02  0.00000000000E+00 0.  1.
</event>
<event>
12    1  0.1594973E-001  0.1846269E+03  0.7818608E-02  0.1166064E+00
         21   -1    0    0  503  502  0.00000000000E+00  0.00000000000E+00  0.67481969053E+03  0.67481969053E+03  0.00000000000E+00 0. -1.
         21   -1    0    0  501  503 -0.00000000000E+00 -0.00000000000E+00 -0.12213138020E+03  0.12213138020E+03  0.00000000000E+00 0. -1.
          6    2    1    2  501    0 -0.33313642997E+01 -0.25104499433E+02 -0.38309217455E+02  0.17778618344E+03  0.17175272050E+03 0.  0.
         24    2    3    3    0    0  0.30900117192E+02  0.11059075518E+02  0.31383730189E+02  0.92002761793E+02  0.80015306431E+02 0.  0.
         -6    2    1    2    0  502  0.33313642997E+01  0.25104499433E+02  0.59099752779E+03  0.61916488729E+03  0.18288178125E+03 0.  0.
        -24    2    5    5    0    0 -0.27818618888E+02  0.75570372038E+02  0.47943272471E+03  0.49272944511E+03  0.80260898787E+02 0.  0.
          5    1    3    3  501    0 -0.34231481492E+02 -0.36163574951E+02 -0.69692947644E+02  0.85783421648E+02  0.47000000000E+01 0. -1.
        -11    1    4    4    0    0  0.39623383269E+02  0.16253054239E+02 -0.14340936430E+02  0.45164551713E+02  0.00000000000E+00 0.  1.
         12    1    4    4    0    0 -0.87232660772E+01 -0.51939787209E+01  0.45724666619E+02  0.46838210080E+02  0.00000000000E+00 0. -1.
         -5    1    5    5    0  502  0.31149983188E+02 -0.50465872605E+02  0.11156480308E+03  0.12643544217E+03  0.47000000000E+01 0.  1.
         13    1    6    6    0    0  0.17513402681E+02 -0.75062498598E+01  0.81091824966E+02  0.83300342957E+02  0.00000000000E+00 0. -1.
        -14    1    6    6    0    0 -0.45332021569E+02  0.83076621898E+02  0.39834089974E+03  0.40942910215E+03  0.00000000000E+00 0.  1.
</event>
<event>
12    1  0.1594973E-001  0.2143887E+03  0.7818608E-02  0.1138315E+00
         21   -1    0    0  503  502  0.00000000000E+00  0.00000000000E+00  0.44935545692E+02  0.44935545692E+02  0.00000000000E+00 0. -1.
         21   -1    0    0  501  503 -0.00000000000E+00 -0.00000000000E+00 -0.12495407828E+04  0.12495407828E+04  0.00000000000E+00 0.  1.
          6    2    1    2  501    0 -0.42604424844E+02  0.12311810956E+03 -0.87957757612E+03  0.90511085032E+03  0.16910272925E+03 0.  0.
         24    2    3    3    0    0 -0.45026110358E+00  0.14398225196E+03 -0.64895675215E+03  0.66969559932E+03  0.81340260403E+02 0.  0.
         -6    2    1    2    0  502  0.42604424844E+02 -0.12311810956E+03 -0.32502766098E+03  0.38936547816E+03  0.17026241295E+03 0.  0.
        -24    2    5    5    0    0  0.46861633348E+02 -0.14299406494E+03 -0.19273595803E+03  0.25543877397E+03  0.73881678651E+02 0.  0.
          5    1    3    3  501    0 -0.42154163741E+02 -0.20864142403E+02 -0.23062082397E+03  0.23541525101E+03  0.47000000000E+01 0. -1.
        -11    1    4    4    0    0 -0.24482706601E+02  0.74086215406E+02 -0.46404269453E+03  0.47055689623E+03  0.00000000000E+00 0.  1.
         12    1    4    4    0    0  0.24032445498E+02  0.69896036557E+02 -0.18491405762E+03  0.19913870309E+03  0.00000000000E+00 0. -1.
         -5    1    5    5    0  502 -0.42572085041E+01  0.19875955383E+02 -0.13229170295E+03  0.13392670419E+03  0.47000000000E+01 0.  1.
         13    1    6    6    0    0  0.45029524750E+02 -0.29778609724E+02 -0.53940514594E+02  0.76315154530E+02  0.00000000000E+00 0. -1.
        -14    1    6    6    0    0  0.18321085983E+01 -0.11321545522E+03 -0.13879544344E+03  0.17912361944E+03  0.00000000000E+00 0.  1.
</event>
<event>
12    1  0.1594973E-001  0.2010565E+03  0.7818608E-02  0.1149144E+00
         21   -1    0    0  501  502  0.00000000000E+00  0.00000000000E+00  0.43909568334E+02  0.43909568334E+02  0.00000000000E+00 0. -1.
         21   -1    0    0  502  503 -0.00000000000E+00 -0.00000000000E+00 -0.91703977026E+03  0.91703977026E+03  0.00000000000E+00 0. -1.
         -6    2    1    2    0  503  0.21642846314E+01  0.10286770583E+03 -0.46163707540E+03  0.50296428500E+03  0.17110766660E+03 0.  0.
        -24    2    3    3    0    0 -0.54205009638E+02  0.73824876757E+02 -0.15571604582E+03  0.19050508831E+03  0.60468225106E+02 0.  0.
          6    2    1    2  501    0 -0.21642846314E+01 -0.10286770583E+03 -0.41149312652E+03  0.45798505359E+03  0.17273467258E+03 0.  0.
         24    2    5    5    0    0 -0.41038191584E+02 -0.12491008603E+03 -0.30421120092E+03  0.34167276393E+03  0.83121357564E+02 0.  0.
          5    1    5    5  501    0  0.38873906953E+02  0.22042380202E+02 -0.10728192560E+03  0.11631228967E+03  0.47000000000E+01 0. -1.
        -13    1    6    6    0    0  0.79372784446E+01  0.94107373475E+01 -0.29999296373E+02  0.32427151423E+02  0.00000000000E+00 0.  1.
         14    1    6    6    0    0 -0.48975470029E+02 -0.13432082338E+03 -0.27421190455E+03  0.30924561251E+03  0.00000000000E+00 0. -1.
         -5    1    3    3    0  503  0.56369294269E+02  0.29042829071E+02 -0.30592102958E+03  0.31245919669E+03  0.47000000000E+01 0.  1.
         11    1    4    4    0    0 -0.42182262242E+01  0.42126142525E+02 -0.10254039453E+03  0.11093663880E+03  0.00000000000E+00 0. -1.
        -12    1    4    4    0    0 -0.49986783414E+02  0.31698734232E+02 -0.53175651290E+02  0.79568449514E+02  0.00000000000E+00 0.  1.
</event>
<event>
12    1  0.1594973E-001  0.1805583E+03  0.7818608E-02  0.1167726E+00
         21   -1    0    0  503  502  0.00000000000E+00  0.00000000000E+00  0.53123794869E+02  0.53123794869E+02  0.00000000000E+00 0. -1.
         21   -1    0    0  501  503 -0.00000000000E+00 -0.00000000000E+00 -0.76871251175E+03  0.76871251175E+03  0.00000000000E+00 0. -1.
          6    2    1    2  501    0  0.17579542142E+02 -0.42145432100E+02 -0.54763068035E+03  0.57662871095E+03  0.17468838107E+03 0.  0.
         24    2    3    3    0    0 -0.40121059149E+02 -0.60441798763E+02 -0.44188018422E+03  0.45468866890E+03  0.78871908787E+02 0.  0.
         -6    2    1    2    0  502 -0.17579542142E+02  0.42145432100E+02 -0.16795803654E+03  0.24520759568E+03  0.17271822484E+03 0.  0.
        -24    2    5    5    0    0 -0.75974932527E+02  0.45870420714E+02 -0.10076949170E+03  0.15598715118E+03  0.79380192794E+02 0.  0.
          5    1    3    3  501    0  0.57700601292E+02  0.18296366663E+02 -0.10575049613E+03  0.12194004205E+03  0.47000000000E+01 0. -1.
        -13    1    4    4    0    0 -0.50904424633E+01  0.17732635848E+02 -0.12823644087E+03  0.12955672018E+03  0.00000000000E+00 0.  1.
         14    1    4    4    0    0 -0.35030616686E+02 -0.78174434611E+02 -0.31364374335E+03  0.32513194872E+03  0.00000000000E+00 0. -1.
         -5    1    5    5    0  502  0.58395390385E+02 -0.37249886142E+01 -0.67188544835E+02  0.89220444492E+02  0.47000000000E+01 0.  1.
         11    1    6    6    0    0 -0.59576100762E+02  0.18609648650E+02 -0.10671110648E+03  0.12362399060E+03  0.00000000000E+00 0. -1.
        -12    1    6    6    0    0 -0.16398831765E+02  0.27260772063E+02  0.59416147833E+01  0.32363160584E+02  0.00000000000E+00 0.  1.
</event>
<event>
12    1  0.1594973E-001  0.1952786E+03  0.7818608E-02  0.1154073E+00
         21   -1    0    0  501  502  0.00000000000E+00  0.00000000000E+00  0.19278807359E+03  0.19278807359E+03  0.00000000000E+00 0. -1.
         21   -1    0    0  502  503 -0.00000000000E+00 -0.00000000000E+00 -0.21825114610E+03  0.21825114610E+03  0.00000000000E+00 0. -1.
         -6    2    1    2    0  503  0.78979015388E+02 -0.42619481632E+02 -0.77698149190E+02  0.21016838678E+03  0.17343483886E+03 0.  0.
        -24    2    3    3    0    0  0.91663867150E+02  0.46150517475E+01 -0.98268424357E+02  0.15690270526E+03  0.80859213751E+02 0.  0.
          6    2    1    2  501    0 -0.78979015388E+02  0.42619481632E+02  0.52235076680E+02  0.20087083291E+03  0.17194907151E+03 0.  0.
         24    2    5    5    0    0  0.20428608784E+02  0.36415304592E+02  0.49972083951E+01  0.90535554072E+02  0.80176754699E+02 0.  0.
          5    1    5    5  501    0 -0.99407624173E+02  0.62041770396E+01  0.47237868285E+02  0.11033527884E+03  0.47000000000E+01 0. -1.
        -13    1    6    6    0    0  0.38677236491E+02 -0.10269501385E+02 -0.11595006136E+01  0.40034181931E+02  0.00000000000E+00 0.  1.
         14    1    6    6    0    0 -0.18248627706E+02  0.46684805977E+02  0.61567090087E+01  0.50501372141E+02  0.00000000000E+00 0. -1.
         -5    1    3    3    0  503 -0.12684851762E+02 -0.47234533379E+02  0.20570275166E+02  0.53265681524E+02  0.47000000000E+01 0.  1.
         13    1    4    4    0    0  0.69518121838E+02 -0.30480903281E+02 -0.41279368053E+02  0.86405097972E+02  0.00000000000E+00 0. -1.
        -14    1    4    4    0    0  0.22145745313E+02  0.35095955028E+02 -0.56989056304E+02  0.70497607287E+02  0.00000000000E+00 0.  1.
</event>
<event>
12    1  0.1594973E-001  0.1863822E+03  0.7818608E-02  0.1161860E+00
         21   -1    0    0  503  502  0.00000000000E+00  0.00000000000E+00  0.13900319910E+03  0.13900319910E+03  0.00000000000E+00 0. -1.
         21   -1    0    0  501  503 -0.00000000000E+00 -0.00000000000E+00 -0.28147012960E+03  0.28147012960E+03  0.00000000000E+00 0. -1.
          6    2    1    2  501    0 -0.67888740937E+02 -0.17531552520E+02 -0.14217184865E+03  0.23409091418E+03  0.17224832387E+03 0.  0.
         24    2    3    3    0    0 -0.10084601231E+02 -0.68376454119E+02 -0.10724601217E+03  0.14942435266E+03  0.77774619142E+02 0.  0.
         -6    2    1    2    0  502  0.67888740937E+02  0.17531552520E+02 -0.29508184721E+00  0.18638241452E+03  0.17269070875E+03 0.  0.
        -24    2    5    5    0    0  0.39784362169E+01 -0.28635452920E+02 -0.35003047538E+02  0.10011160646E+03  0.89226135700E+02 0.  0.
          5    1    3    3  501    0 -0.57804139706E+02  0.50844901599E+02 -0.34925836479E+02  0.84666561519E+02  0.47000000000E+01 0. -1.
        -13    1    4    4    0    0  0.19467729525E+02  0.26421036864E+01 -0.49448389848E+02  0.53208236799E+02  0.00000000000E+00 0.  1.
         14    1    4    4    0    0 -0.29552330756E+02 -0.71018557805E+02 -0.57797622324E+02  0.96216115865E+02  0.00000000000E+00 0. -1.
         -5    1    5    5    0  502  0.63910304720E+02  0.46167005441E+02  0.34707965691E+02  0.86270808059E+02  0.47000000000E+01 0.  1.
         13    1    6    6    0    0  0.40365014263E+02 -0.31212404379E+02 -0.37838260906E+02  0.63523873874E+02  0.00000000000E+00 0. -1.
        -14    1    6    6    0    0 -0.36386578047E+02  0.25769514583E+01  0.28352133682E+01  0.36587732583E+02  0.00000000000E+00 0.  1.
</event>
<event>
12    1  0.1594973E-001  0.1840556E+03  0.7818608E-02  0.1164297E+00
         21   -1    0    0  501  502  0.00000000000E+00  0.00000000000E+00  0.10313380079E+03  0.10313380079E+03  0.00000000000E+00 0. -1.
         21   -1    0    0  502  503 -0.00000000000E+00 -0.00000000000E+00 -0.38730947886E+03  0.38730947886E+03  0.00000000000E+00 0. -1.
         -6    2    1    2    0  503  0.35028338025E+02  0.54632964053E+02 -0.23936131443E+03  0.30101045572E+03  0.17059223424E+03 0.  0.
        -24    2    3    3    0    0  0.63227923190E+02 -0.21611286366E+02 -0.13574785120E+03  0.16922941730E+03  0.75804344230E+02 0.  0.
          6    2    1    2  501    0 -0.35028338025E+02 -0.54632964053E+02 -0.44814363645E+02  0.18943282393E+03  0.17223449819E+03 0.  0.
         24    2    5    5    0    0 -0.63956186288E+02 -0.60893765390E+02 -0.79098069413E+02  0.14389733755E+03  0.81556696491E+02 0.  0.
          5    1    5    5  501    0  0.28927848263E+02  0.62608013369E+01  0.34283705768E+02  0.45535486378E+02  0.47000000000E+01 0. -1.
        -11    1    6    6    0    0 -0.48778779390E+02  0.22860412945E+00 -0.61519374707E+02  0.78511496247E+02  0.00000000000E+00 0.  1.
         12    1    6    6    0    0 -0.15177406898E+02 -0.61122369520E+02 -0.17578694706E+02  0.65385841307E+02  0.00000000000E+00 0. -1.
         -5    1    3    3    0  503 -0.28199585165E+02  0.76244250419E+02 -0.10361346323E+03  0.13178103842E+03  0.47000000000E+01 0.  1.
         13    1    4    4    0    0  0.20461601901E+02  0.24223844804E+02 -0.77175744365E+02  0.83436007381E+02  0.00000000000E+00 0. -1.
        -14    1    4    4    0    0  0.42766321288E+02 -0.45835131170E+02 -0.58572106836E+02  0.85793409917E+02  0.00000000000E+00 0.  1.
</event>
<event>
12    1  0.1594973E-001  0.2388093E+03  0.7818608E-02  0.1120904E+00
         21   -1    0    0  503  502  0.00000000000E+00  0.00000000000E+00  0.10375086524E+03  0.10375086524E+03  0.00000000000E+00 0.  1.
         21   -1    0    0  501  503 -0.00000000000E+00 -0.00000000000E+00 -0.58212252686E+03  0.58212252686E+03  0.00000000000E+00 0.  1.
          6    2    1    2  501    0  0.87774751305E+02 -0.13680009645E+03 -0.15391104404E+03  0.28411000287E+03  0.17496059812E+03 0.  0.
         24    2    3    3    0    0  0.89303771153E+02 -0.75171987384E+02 -0.16856150849E+03  0.22057192107E+03  0.81320347959E+02 0.  0.
         -6    2    1    2    0  502 -0.87774751305E+02  0.13680009645E+03 -0.32446061758E+03  0.40176338923E+03  0.17239621576E+03 0.  0.
        -24    2    5    5    0    0 -0.75635349819E+02  0.14906741802E+03 -0.19296464060E+03  0.26905644062E+03  0.84936531953E+02 0.  0.
          5    1    3    3  501    0 -0.15290198481E+01 -0.61628109070E+02  0.14650464451E+02  0.63538081792E+02  0.47000000000E+01 0. -1.
        -13    1    4    4    0    0  0.64783781665E+02 -0.39531300475E+02 -0.41822910148E+02  0.86653435577E+02  0.00000000000E+00 0.  1.
         14    1    4    4    0    0  0.24519989488E+02 -0.35640686909E+02 -0.12673859834E+03  0.13391848550E+03  0.00000000000E+00 0. -1.
         -5    1    5    5    0  502 -0.12139401486E+02 -0.12267321569E+02 -0.13149597699E+03  0.13270694861E+03  0.47000000000E+01 0.  1.
         11    1    6    6    0    0 -0.45342247991E+01 -0.92190137638E+00  0.74866102350E+01  0.88010470677E+01  0.00000000000E+00 0. -1.
        -12    1    6    6    0    0 -0.71101125020E+02  0.14998931940E+03 -0.20045125083E+03  0.26025539355E+03  0.00000000000E+00 0.  1.
</event>
<event>
12    1  0.1594973E-001  0.1840923E+03  0.7818608E-02  0.1164005E+00
         21   -1    0    0  503  502  0.00000000000E+00  0.00000000000E+00  0.33842804261E+03  0.33842804261E+03  0.00000000000E+00 0.  1.
         21   -1    0    0  501  503 -0.00000000000E+00 -0.00000000000E+00 -0.10438676025E+03  0.10438676025E+03  0.00000000000E+00 0.  1.
          6    2    1    2  501    0 -0.63737882572E+02 -0.19218055107E+01  0.71243217441E+02  0.19739697713E+03  0.17269556896E+03 0.  0.
         24    2    3    3    0    0 -0.32968103124E+02 -0.39458571598E+02 -0.17486114726E+02  0.96150878333E+02  0.79343257432E+02 0.  0.
         -6    2    1    2    0  502  0.63737882572E+02  0.19218055107E+01  0.16279806491E+03  0.24541782573E+03  0.17222220599E+03 0.  0.
        -24    2    5    5    0    0  0.71239659819E+02  0.51679381286E+02  0.15113065314E+03  0.19354961286E+03  0.82916408125E+02 0.  0.
          5    1    3    3  501    0 -0.30769779448E+02  0.37536766087E+02  0.88729332167E+02  0.10124609880E+03  0.47000000000E+01 0. -1.
        -11    1    4    4    0    0 -0.43579653053E+02  0.69328116663E+01 -0.20099580096E+02  0.48489619073E+02  0.00000000000E+00 0.  1.
         12    1    4    4    0    0  0.10611549929E+02 -0.46391383264E+02  0.26134653701E+01  0.47661259260E+02  0.00000000000E+00 0. -1.
         -5    1    5    5    0  502 -0.75017772472E+01 -0.49757575775E+02  0.11667411768E+02  0.51868212869E+02  0.47000000000E+01 0.  1.
         13    1    6    6    0    0 -0.83720903429E+01  0.19206896320E+02  0.15382243827E+01  0.21008638633E+02  0.00000000000E+00 0. -1.
        -14    1    6    6    0    0  0.79611750162E+02  0.32472484966E+02  0.14959242876E+03  0.17254097423E+03  0.00000000000E+00 0.  1.
</event>
<event>
12    1  0.1594973E-001  0.1762790E+03  0.7818608E-02  0.1171700E+00
         21   -1    0    0  503  502  0.00000000000E+00  0.00000000000E+00  0.59303652023E+03  0.59303652023E+03  0.00000000000E+00 0. -1.
         21   -1    0    0  501  503 -0.00000000000E+00 -0.00000000000E+00 -0.14906508956E+03  0.14906508956E+03  0.00000000000E+00 0. -1.
          6    2    1    2  501    0  0.13472383376E+02 -0.50866246722E+01 -0.77488021367E+02  0.19165246747E+03  0.17469658259E+03 0.  0.
         24    2    3    3    0    0  0.31713870844E+02 -0.39417929061E+02  0.10449566427E+02  0.95389807664E+02  0.80190268938E+02 0.  0.
         -6    2    1    2    0  502 -0.13472383376E+02  0.50866246722E+01  0.52145945203E+03  0.55044914233E+03  0.17568983837E+03 0.  0.
        -24    2    5    5    0    0 -0.74648554860E+02 -0.94691805078E+00  0.37049676646E+03  0.38738243809E+03  0.84994093823E+02 0.  0.
          5    1    3    3  501    0 -0.18241487467E+02  0.34331304389E+02 -0.87937587794E+02  0.96262659807E+02  0.47000000000E+01 0. -1.
        -13    1    4    4    0    0  0.25280061506E-01 -0.26254508304E+02 -0.31621226406E+02  0.41099900302E+02  0.00000000000E+00 0.  1.
         14    1    4    4    0    0  0.31688590782E+02 -0.13163420757E+02  0.42070792834E+02  0.54289907363E+02  0.00000000000E+00 0. -1.
         -5    1    5    5    0  502  0.61176171484E+02  0.60335427229E+01  0.15096268558E+03  0.16306670424E+03  0.47000000000E+01 0.  1.
         11    1    6    6    0    0 -0.75466034857E+02  0.77249998186E+01  0.37098183398E+03  0.37865857864E+03  0.00000000000E+00 0. -1.
        -12    1    6    6    0    0  0.81747999659E+00 -0.86719178693E+01 -0.48506751867E+00  0.87238594427E+01  0.00000000000E+00 0.  1.
</event>
<event>
12    1  0.1594973E-001  0.1854991E+03  0.7818608E-02  0.1163480E+00
         21   -1    0    0  501  502  0.00000000000E+00  0.00000000000E+00  0.16660867394E+03  0.16660867394E+03  0.00000000000E+00 0. -1.
         21   -1    0    0  502  503 -0.00000000000E+00 -0.00000000000E+00 -0.35676647723E+03  0.35676647723E+03  0.00000000000E+00 0. -1.
         -6    2    1    2    0  503 -0.15855338291E+02 -0.54539778605E+02 -0.26781292719E+03  0.32578162410E+03  0.17658970364E+03 0.  0.
        -24    2    3    3    0    0 -0.66602550991E+02  0.16192774671E+01 -0.11357533533E+03  0.15390828725E+03  0.79686148313E+02 0.  0.
          6    2    1    2  501    0  0.15855338291E+02  0.54539778605E+02  0.77655123902E+02  0.19759352707E+03  0.17258883066E+03 0.  0.
         24    2    5    5    0    0  0.68560453098E+02  0.48309803143E+02  0.86081859238E+02  0.14365150644E+03  0.78684788907E+02 0.  0.
          5    1    5    5  501    0 -0.52705114806E+02  0.62299754623E+01 -0.84267353364E+01  0.53942020628E+02  0.47000000000E+01 0. -1.
        -13    1    6    6    0    0  0.27230703021E+02 -0.12298187365E+02  0.57731666649E+02  0.65005399264E+02  0.00000000000E+00 0.  1.
         14    1    6    6    0    0  0.41329750077E+02  0.60607990508E+02  0.28350192590E+02  0.78646107181E+02  0.00000000000E+00 0. -1.
         -5    1    3    3    0  503  0.50747212700E+02 -0.56159056073E+02 -0.15423759186E+03  0.17187333685E+03  0.47000000000E+01 0.  1.
         13    1    4    4    0    0 -0.60326430202E+02 -0.24406226824E+02 -0.10870785819E+03  0.12669783155E+03  0.00000000000E+00 0. -1.
        -14    1    4    4    0    0 -0.62761207892E+01  0.26025504291E+02 -0.48674771405E+01  0.27210455702E+02  0.00000000000E+00 0.  1.
</event>
<event>
12    1  0.1594973E-001  0.1859783E+03  0.7818608E-02  0.1162385E+00
         21   -1    0    0  501  502  0.00000000000E+00  0.00000000000E+00  0.13350925296E+03  0.13350925296E+03  0.00000000000E+00 0.  1.
         21   -1    0    0  502  503 -0.00000000000E+00 -0.00000000000E+00 -0.28400700421E+03  0.28400700421E+03  0.00000000000E+00 0. -1.
         -6    2    1    2    0  503 -0.17790327142E+02 -0.67029712980E+02 -0.13871086172E+03  0.23116486394E+03  0.17142640694E+03 0.  0.
        -24    2    3    3    0    0 -0.76118710672E+02 -0.46759443269E+02 -0.73789793655E+02  0.14144352178E+03  0.81122330815E+02 0.  0.
          6    2    1    2  501    0  0.17790327142E+02  0.67029712980E+02 -0.11786889526E+02  0.18635139323E+03  0.17256428608E+03 0.  0.
         24    2    5    5    0    0  0.99521768939E-01 -0.16357132790E+02  0.35745431228E+02  0.88638844605E+02  0.79445221515E+02 0.  0.
          5    1    5    5  501    0  0.17690805373E+02  0.83386845771E+02 -0.47532320754E+02  0.97712548624E+02  0.47000000000E+01 0. -1.
        -11    1    6    6    0    0  0.24721879230E+01  0.30534969720E+02  0.17747919909E+01  0.30686250594E+02  0.00000000000E+00 0.  1.
         12    1    6    6    0    0 -0.23726661541E+01 -0.46892102510E+02  0.33970639237E+02  0.57952594011E+02  0.00000000000E+00 0. -1.
         -5    1    3    3    0  503  0.58328383530E+02 -0.20270269712E+02 -0.64921068067E+02  0.89721342157E+02  0.47000000000E+01 0.  1.
         11    1    4    4    0    0 -0.35592948183E+02 -0.65351957200E+02 -0.34537253847E+02  0.82039979117E+02  0.00000000000E+00 0. -1.
        -12    1    4    4    0    0 -0.40525762489E+02  0.18592513932E+02 -0.39252539807E+02  0.59403542663E+02  0.00000000000E+00 0.  1.
</event>
<event>
12    1  0.1594973E-001  0.2410021E+03  0.7818608E-02  0.1119494E+00
         21   -1    0    0  503  502  0.00000000000E+00  0.00000000000E+00  0.23585944893E+03  0.23585944893E+03  0.00000000000E+00 0.  1.
         21   -1    0    0  501  503 -0.00000000000E+00 -0.00000000000E+00 -0.25170521352E+03  0.25170521352E+03  0.00000000000E+00 0.  1.
          6    2    1    2  501    0  0.10797125791E+03  0.12854639375E+03  0.34740360915E+02  0.24131077983E+03  0.16982942002E+03 0.  0.
         24    2    3    3    0    0  0.11072377328E+03  0.11787808918E+03 -0.23557946517E+02  0.18179463317E+03  0.79619808645E+02 0.  0.
         -6    2    1    2    0  502 -0.10797125791E+03 -0.12854639375E+03 -0.50586125508E+02  0.24625388263E+03  0.17291631135E+03 0.  0.
        -24    2    5    5    0    0 -0.39050294331E+02 -0.46090269858E+02 -0.86631962014E+02  0.13280563928E+03  0.80517094579E+02 0.  0.
          5    1    3    3  501    0 -0.27525153661E+01  0.10668304574E+02  0.58298307432E+02  0.59516146656E+02  0.47000000000E+01 0. -1.
        -11    1    4    4    0    0  0.55688783340E+02  0.10196670254E+03  0.78742465200E+01  0.11644935713E+03  0.00000000000E+00 0.  1.
         12    1    4    4    0    0  0.55034989938E+02  0.15911386637E+02 -0.31432193037E+02  0.65345276045E+02  0.00000000000E+00 0. -1.
         -5    1    5    5    0  502 -0.68920963581E+02 -0.82456123894E+02  0.36045836506E+02  0.11344824334E+03  0.47000000000E+01 0.  1.
         11    1    6    6    0    0  0.24431732198E+02 -0.10594854277E+02 -0.14286490680E+02  0.30220262925E+02  0.00000000000E+00 0. -1.
        -12    1    6    6    0    0 -0.63482026528E+02 -0.35495415581E+02 -0.72345471334E+02  0.10258537636E+03  0.00000000000E+00 0.  1.
</event>
<event>
12    1  0.1594973E-001  0.1768605E+03  0.7818608E-02  0.1171311E+00
         21   -1    0    0  503  502  0.00000000000E+00  0.00000000000E+00  0.34296249365E+03  0.34296249365E+03  0.00000000000E+00 0.  1.
         21   -1    0    0  501  503 -0.00000000000E+00 -0.00000000000E+00 -0.10301028750E+03  0.10301028750E+03  0.00000000000E+00 0.  1.
          6    2    1    2  501    0 -0.33593545474E+02 -0.21654179999E+02  0.41143533686E+02  0.17988155214E+03  0.17049091655E+03 0.  0.
         24    2    3    3    0    0 -0.54090363431E+02 -0.38138861688E+02  0.80834005966E+02  0.13203504896E+03  0.80738946276E+02 0.  0.
         -6    2    1    2    0  502  0.33593545474E+02  0.21654179999E+02  0.19880867247E+03  0.26609122902E+03  0.17228529857E+03 0.  0.
        -24    2    5    5    0    0 -0.34035406255E+02  0.38451138852E+02  0.16013491428E+03  0.18625663431E+03  0.80071493664E+02 0.  0.
          5    1    3    3  501    0  0.20496817958E+02  0.16484681690E+02 -0.39690472280E+02  0.47846503180E+02  0.47000000000E+01 0. -1.
        -11    1    4    4    0    0 -0.48064493233E+02 -0.22484448781E+02  0.95826399742E+02  0.10953741294E+03  0.00000000000E+00 0.  1.
         12    1    4    4    0    0 -0.60258701984E+01 -0.15654412907E+02 -0.14992393776E+02  0.22497636015E+02  0.00000000000E+00 0. -1.
         -5    1    5    5    0  502  0.67628951729E+02 -0.16796958854E+02  0.38673758192E+02  0.79834594703E+02  0.47000000000E+01 0.  1.
         11    1    6    6    0    0 -0.39921235885E+02 -0.91806445194E+01  0.41640779754E+02  0.58411846803E+02  0.00000000000E+00 0. -1.
        -12    1    6    6    0    0  0.58858296296E+01  0.47631783372E+02  0.11849413452E+03  0.12784478751E+03  0.00000000000E+00 0.  1.
</event>
<event>
12    1  0.1594973E-001  0.2203717E+03  0.7818608E-02  0.1133817E+00
         21   -1    0    0  501  502  0.00000000000E+00  0.00000000000E+00  0.24990904816E+03  0.24990904816E+03  0.00000000000E+00 0. -1.
         21   -1    0    0  502  503 -0.00000000000E+00 -0.00000000000E+00 -0.21985510764E+03  0.21985510764E+03  0.00000000000E+00 0.  1.
         -6    2    1    2    0  503 -0.13207921844E+03 -0.32062132310E+02 -0.66522938945E+02  0.23019337073E+03  0.17346696012E+03 0.  0.
        -24    2    3    3    0    0 -0.61717638844E+02 -0.32006505108E+02 -0.10585921996E+03  0.14944568976E+03  0.79336980183E+02 0.  0.
          6    2    1    2  501    0  0.13207921844E+03  0.32062132310E+02  0.96576879470E+02  0.23957078506E+03  0.17202955309E+03 0.  0.
         24    2    5    5    0    0  0.12680470015E+03  0.20222911182E+02  0.10332568794E+02  0.15223145358E+03  0.81112609150E+02 0.  0.
          5    1    5    5  501    0  0.52745182856E+01  0.11839221127E+02  0.86244310676E+02  0.87339331484E+02  0.47000000000E+01 0. -1.
        -11    1    6    6    0    0  0.35001872658E+02  0.61573893162E+01 -0.34120380740E+02  0.49267077391E+02  0.00000000000E+00 0.  1.
         12    1    6    6    0    0  0.91802827496E+02  0.14065521866E+02  0.44452949534E+02  0.10296437619E+03  0.00000000000E+00 0. -1.
         -5    1    3    3    0  503 -0.70361579596E+02 -0.55627201231E-01  0.39336281016E+02  0.80747680969E+02  0.47000000000E+01 0.  1.
         13    1    4    4    0    0 -0.10280946138E+02 -0.36089945296E+02 -0.73467467321E+01  0.38238157546E+02  0.00000000000E+00 0. -1.
        -14    1    4    4    0    0 -0.51436692706E+02  0.40834401876E+01 -0.98512473230E+02  0.11120753222E+03  0.00000000000E+00 0.  1.
</event>
<event>
12    1  0.1594973E-001  0.1777104E+03  0.7818608E-02  0.1170708E+00
         21   -1    0    0  501  502  0.00000000000E+00  0.00000000000E+00  0.13482742676E+03  0.13482742676E+03  0.00000000000E+00 0.  1.
         21   -1    0    0  502  503 -0.00000000000E+00 -0.00000000000E+00 -0.23292170131E+03  0.23292170131E+03  0.00000000000E+00 0. -1.
         -6    2    1    2    0  503  0.35567920913E+02  0.22515371178E+02 -0.31389692605E+02  0.18046131737E+03  0.17265270148E+03 0.  0.
        -24    2    3    3    0    0  0.10659122841E+02  0.23170875249E+01 -0.85314271597E+02  0.11754574614E+03  0.80121730526E+02 0.  0.
          6    2    1    2  501    0 -0.35567920913E+02 -0.22515371178E+02 -0.66704581949E+02  0.18728781070E+03  0.16986819551E+03 0.  0.
         24    2    5    5    0    0  0.31296877057E+02 -0.46625398137E+02 -0.22069141883E+02  0.10322469680E+03  0.83754813245E+02 0.  0.
          5    1    5    5  501    0 -0.66864797970E+02  0.24110026959E+02 -0.44635440066E+02  0.84063113893E+02  0.47000000000E+01 0. -1.
        -13    1    6    6    0    0 -0.84640637910E+01 -0.43280879562E+02  0.17110419967E+02  0.47303714262E+02  0.00000000000E+00 0.  1.
         14    1    6    6    0    0  0.39760940848E+02 -0.33445185754E+01 -0.39179561850E+02  0.55920982541E+02  0.00000000000E+00 0. -1.
         -5    1    3    3    0  503  0.24908798072E+02  0.20198283653E+02  0.53924578992E+02  0.62915571232E+02  0.47000000000E+01 0.  1.
         13    1    4    4    0    0  0.10790518516E+02 -0.37786436308E+02 -0.53357365775E+02  0.66266571823E+02  0.00000000000E+00 0. -1.
        -14    1    4    4    0    0 -0.13139567485E+00  0.40103523833E+02 -0.31956905823E+02  0.51279174315E+02  0.00000000000E+00 0.  1.
</event>
<event>
12    1  0.1594973E-001  0.1879227E+03  0.7818608E-02  0.1160693E+00
         21   -1    0    0  503  502  0.00000000000E+00  0.00000000000E+00  0.42691432248E+03  0.42691432248E+03  0.00000000000E+00 0. -1.
         21   -1    0    0  501  503 -0.00000000000E+00 -0.00000000000E+00 -0.23364768672E+03  0.23364768672E+03  0.00000000000E+00 0. -1.
          6    2    1    2  501    0  0.63969285521E+02 -0.31893270125E+02 -0.16953245031E+03  0.25198139898E+03  0.17217468906E+03 0.  0.
         24    2    3    3    0    0  0.53584352781E+02  0.14540305102E+02 -0.17887235054E+03  0.20326541112E+03  0.78986114193E+02 0.  0.
         -6    2    1    2    0  502 -0.63969285521E+02  0.31893270125E+02  0.36279908608E+03  0.40858061022E+03  0.17379783664E+03 0.  0.
        -24    2    5    5    0    0 -0.20855756991E+02 -0.46040902357E+02  0.22480692906E+03  0.24427468525E+03  0.81100180086E+02 0.  0.
          5    1    3    3  501    0  0.10384932740E+02 -0.46433575227E+02  0.93399002299E+01  0.48715987855E+02  0.47000000000E+01 0. -1.
        -11    1    4    4    0    0 -0.17818659362E+02 -0.86061535015E+00 -0.13159796878E+02  0.22168119770E+02  0.00000000000E+00 0.  1.
         12    1    4    4    0    0  0.71403012143E+02  0.15400920453E+02 -0.16571255366E+03  0.18109729135E+03  0.00000000000E+00 0. -1.
         -5    1    5    5    0  502 -0.43113528530E+02  0.77934172482E+02  0.13799215702E+03  0.16430592497E+03  0.47000000000E+01 0.  1.
         13    1    6    6    0    0 -0.92825819301E+01  0.12549055711E+02  0.13816410773E+03  0.13904303575E+03  0.00000000000E+00 0. -1.
        -14    1    6    6    0    0 -0.11573175061E+02 -0.58589958068E+02  0.86642821331E+02  0.10523164950E+03  0.00000000000E+00 0.  1.
</event>
<event>
12    1  0.1594973E-001  0.2518278E+03  0.7818608E-02  0.1112232E+00
         21   -1    0    0  501  502  0.00000000000E+00  0.00000000000E+00  0.67943870378E+03  0.67943870378E+03  0.00000000000E+00 0. -1.
         21   -1    0    0  502  503 -0.00000000000E+00 -0.00000000000E+00 -0.21328357214E+03  0.21328357214E+03  0.00000000000E+00 0.  1.
         -6    2    1    2    0  503 -0.17925914809E+03  0.42641009823E+02 -0.10181095856E+03  0.27162969665E+03  0.17165407926E+03 0.  0.
        -24    2    3    3    0    0 -0.13221640765E+03  0.12243258995E+02  0.27811982290E+00  0.15509080783E+03  0.80137416221E+02 0.  0.
          6    2    1    2  501    0  0.17925914809E+03 -0.42641009823E+02  0.56796609020E+03  0.62109257927E+03  0.17093394781E+03 0.  0.
         24    2    5    5    0    0  0.64377925655E+02  0.42772897096E+01  0.12638588814E+03  0.16238331737E+03  0.78943882100E+02 0.  0.
          5    1    5    5  501    0  0.11488122243E+03 -0.46918299533E+02  0.44158020206E+03  0.45870926190E+03  0.47000000000E+01 0. -1.
        -11    1    6    6    0    0  0.12282099172E+02  0.37088482799E+02  0.62125296729E+02  0.73389086450E+02  0.00000000000E+00 0.  1.
         12    1    6    6    0    0  0.52095826483E+02 -0.32811193089E+02  0.64260591411E+02  0.88994230922E+02  0.00000000000E+00 0. -1.
         -5    1    3    3    0  503 -0.47042740433E+02  0.30397750829E+02 -0.10208907838E+03  0.11653888882E+03  0.47000000000E+01 0.  1.
         13    1    4    4    0    0 -0.14073933165E+03  0.17531783197E+02 -0.80476057698E+01  0.14205522466E+03  0.00000000000E+00 0. -1.
        -14    1    4    4    0    0  0.85229239997E+01 -0.52885242025E+01  0.83257255927E+01  0.13035583163E+02  0.00000000000E+00 0.  1.
</event>
<event>
12    1  0.1594973E-001  0.1768231E+03  0.7818608E-02  0.1171125E+00
         21   -1    0    0  501  502  0.00000000000E+00  0.00000000000E+00  0.40503468083E+03  0.40503468083E+03  0.00000000000E+00 0. -1.
         21   -1    0    0  502  503 -0.00000000000E+00 -0.00000000000E+00 -0.77564437399E+02  0.77564437399E+02  0.00000000000E+00 0. -1.
         -6    2    1    2    0  503  0.24341003038E+02  0.29006423368E+02  0.18692795931E+03  0.25672630094E+03  0.17185015158E+03 0.  0.
        -24    2    3    3    0    0  0.59062104936E+02  0.49315959608E+02  0.18162187097E+03  0.21588175721E+03  0.87738434963E+02 0.  0.
          6    2    1    2  501    0 -0.24341003038E+02 -0.29006423368E+02  0.14054228412E+03  0.22587281728E+03  0.17272098580E+03 0.  0.
         24    2    5    5    0    0 -0.16411000427E+02 -0.81916672856E+02  0.12308355404E+03  0.16939913582E+03  0.81036064282E+02 0.  0.
          5    1    5    5  501    0 -0.79300026107E+01  0.52910249488E+02  0.17458730083E+02  0.56473681467E+02  0.47000000000E+01 0. -1.
        -13    1    6    6    0    0 -0.78264146156E+01 -0.91135610140E+02  0.70941059611E+02  0.11575658141E+03  0.00000000000E+00 0.  1.
         14    1    6    6    0    0 -0.85845858114E+01  0.92189372834E+01  0.52142494427E+02  0.53642554406E+02  0.00000000000E+00 0. -1.
         -5    1    3    3    0  503 -0.34721101898E+02 -0.20309536239E+02  0.53060883369E+01  0.40844543733E+02  0.47000000000E+01 0.  1.
         11    1    4    4    0    0 -0.10411335549E+02  0.15716733254E+02  0.10659908283E+03  0.10825329590E+03  0.00000000000E+00 0. -1.
        -12    1    4    4    0    0  0.69473440485E+02  0.33599226354E+02  0.75022788139E+02  0.10762846131E+03  0.00000000000E+00 0.  1.
</event>
<event>
12    1  0.1594973E-001  0.2398305E+03  0.7818608E-02  0.1120137E+00
         21   -1    0    0  501  502  0.00000000000E+00  0.00000000000E+00  0.32533689982E+03  0.32533689982E+03  0.00000000000E+00 0. -1.
         21   -1    0    0  502  503 -0.00000000000E+00 -0.00000000000E+00 -0.21022208760E+03  0.21022208760E+03  0.00000000000E+00 0. -1.
         -6    2    1    2    0  503 -0.16065640404E+03  0.46897539026E+02  0.16608786473E+03  0.29172560355E+03  0.17178122608E+03 0.  0.
        -24    2    3    3    0    0 -0.17516207671E+03  0.19010530715E+02  0.88935927977E+02  0.20828334138E+03  0.66552217206E+02 0.  0.
          6    2    1    2  501    0  0.16065640404E+03 -0.46897539026E+02 -0.50973052513E+02  0.24383338386E+03  0.16984289116E+03 0.  0.
         24    2    5    5    0    0  0.18738554637E+03 -0.52498383612E+02 -0.46981566631E+02  0.21583626849E+03  0.80675919103E+02 0.  0.
          5    1    5    5  501    0 -0.26729142330E+02  0.56008445863E+01 -0.39914858814E+01  0.27997115375E+02  0.47000000000E+01 0. -1.
        -13    1    6    6    0    0  0.27717701147E+02 -0.81094831914E+01 -0.40814154281E+02  0.49998298613E+02  0.00000000000E+00 0.  1.
         14    1    6    6    0    0  0.15966784522E+03 -0.44388900420E+02 -0.61674123505E+01  0.16583796988E+03  0.00000000000E+00 0. -1.
         -5    1    3    3    0  503  0.14505672670E+02  0.27887008311E+02  0.77151936756E+02  0.83442262177E+02  0.47000000000E+01 0.  1.
         13    1    4    4    0    0 -0.12658099219E+03 -0.49715957768E+01  0.87731654899E+02  0.15409188045E+03  0.00000000000E+00 0. -1.
        -14    1    4    4    0    0 -0.48581084516E+02  0.23982126492E+02  0.12042730775E+01  0.54191460928E+02  0.00000000000E+00 0.  1.
</event>
<event>
12    1  0.1594973E-001  0.1848164E+03  0.7818608E-02  0.1164297E+00
         21   -1    0    0  501  502  0.00000000000E+00  0.00000000000E+00  0.77390998468E+02  0.77390998468E+02  0.00000000000E+00 0. -1.
         21   -1    0    0  502  503 -0.00000000000E+00 -0.00000000000E+00 -0.65123996642E+03  0.65123996642E+03  0.00000000000E+00 0. -1.
         -6    2    1    2    0  503 -0.38394695735E+02 -0.38801820470E+02 -0.50133914284E+03  0.53432017162E+03  0.17657116332E+03 0.  0.
        -24    2    3    3    0    0 -0.24561557661E+01 -0.91153260710E+02 -0.33432228991E+03  0.35557742039E+03  0.79680353443E+02 0.  0.
          6    2    1    2  501    0  0.38394695735E+02  0.38801820470E+02 -0.72509825110E+02  0.19431079327E+03  0.17181174498E+03 0.  0.
         24    2    5    5    0    0 -0.20632145793E+02 -0.26408528855E+02 -0.57589724133E+02  0.10497291165E+03  0.81114980233E+02 0.  0.
          5    1    5    5  501    0  0.59026841528E+02  0.65210349325E+02 -0.14920100977E+02  0.89337881624E+02  0.47000000000E+01 0. -1.
        -13    1    6    6    0    0 -0.23553938763E+02 -0.54097918967E+02 -0.45993020834E+02  0.74811301507E+02  0.00000000000E+00 0.  1.
         14    1    6    6    0    0  0.29217929708E+01  0.27689390112E+02 -0.11596703300E+02  0.30161610142E+02  0.00000000000E+00 0. -1.
         -5    1    3    3    0  503 -0.35938539969E+02  0.52351440239E+02 -0.16701685293E+03  0.17874275122E+03  0.47000000000E+01 0.  1.
         11    1    4    4    0    0 -0.76399494813E+01 -0.27026826658E+02 -0.23857880532E+03  0.24022627778E+03  0.00000000000E+00 0. -1.
        -12    1    4    4    0    0  0.51837937152E+01 -0.64126434052E+02 -0.95743484590E+02  0.11535114262E+03  0.00000000000E+00 0.  1.
</event>
<event>
12    1  0.1594973E-001  0.2234939E+03  0.7818608E-02  0.1132229E+00
         21   -1    0    0  503  502  0.00000000000E+00  0.00000000000E+00  0.63513762914E+03  0.63513762914E+03  0.00000000000E+00 0. -1.
         21   -1    0    0  501  503 -0.00000000000E+00 -0.00000000000E+00 -0.22515407268E+03  0.22515407268E+03  0.00000000000E+00 0.  1.
          6    2    1    2  501    0  0.13177386289E+03  0.30662583225E+02 -0.14325884691E+03  0.26546678023E+03  0.17789032923E+03 0.  0.
         24    2    3    3    0    0  0.45398935504E+02 -0.23147133317E+02 -0.13085223648E+03  0.16284062538E+03  0.82449429095E+02 0.  0.
         -6    2    1    2    0  502 -0.13177386289E+03 -0.30662583225E+02  0.55324240338E+03  0.59482492160E+03  0.17156627147E+03 0.  0.
        -24    2    5    5    0    0 -0.16106523886E+03 -0.28262765608E+02  0.41168524352E+03  0.45017270648E+03  0.80186849542E+02 0.  0.
          5    1    3    3  501    0  0.86374927389E+02  0.53809716542E+02 -0.12406610437E+02  0.10262615485E+03  0.47000000000E+01 0. -1.
        -11    1    4    4    0    0 -0.19135450969E+02 -0.24682456630E+02 -0.54904844468E+02  0.63165901364E+02  0.00000000000E+00 0.  1.
         12    1    4    4    0    0  0.64534386473E+02  0.15353233127E+01 -0.75947392010E+02  0.99674724019E+02  0.00000000000E+00 0. -1.
         -5    1    5    5    0  502  0.29291375970E+02 -0.23998176170E+01  0.14155715986E+03  0.14465221511E+03  0.47000000000E+01 0.  1.
         11    1    6    6    0    0 -0.57118724355E+02  0.47018218000E+01  0.24027072655E+03  0.24701149333E+03  0.00000000000E+00 0. -1.
        -12    1    6    6    0    0 -0.10394651451E+03 -0.32964587408E+02  0.17141451697E+03  0.20316121315E+03  0.00000000000E+00 0.  1.
</event>
<event>
12    1  0.1594973E-001  0.2067384E+03  0.7818608E-02  0.1144195E+00
         21   -1    0    0  503  502  0.00000000000E+00  0.00000000000E+00  0.39709775825E+03  0.39709775825E+03  0.00000000000E+00 0.  1.
         21   -1    0    0  501  503 -0.00000000000E+00 -0.00000000000E+00 -0.10838293955E+03  0.10838293955E+03  0.00000000000E+00 0.  1.
          6    2    1    2  501    0  0.42745146405E+02 -0.10166521845E+03  0.16613732010E+03  0.26522136158E+03  0.17486508321E+03 0.  0.
         24    2    3    3    0    0  0.18893258840E+02 -0.36297564549E+02 -0.18158880301E+01  0.83363689660E+02  0.72606741303E+02 0.  0.
         -6    2    1    2    0  502 -0.42745146405E+02  0.10166521845E+03  0.12257749861E+03  0.24025933622E+03  0.17474650581E+03 0.  0.
        -24    2    5    5    0    0 -0.53399726699E+02  0.59267171213E+01  0.10416564450E+03  0.14207345593E+03  0.80297749637E+02 0.  0.
          5    1    3    3  501    0  0.23851887565E+02 -0.65367653898E+02  0.16795320813E+03  0.18185767192E+03  0.47000000000E+01 0. -1.
        -13    1    4    4    0    0 -0.62153656792E+01 -0.51701166298E+02 -0.94723310996E+01  0.52927936136E+02  0.00000000000E+00 0.  1.
         14    1    4    4    0    0  0.25108624520E+02  0.15403601750E+02  0.76564430694E+01  0.30435753525E+02  0.00000000000E+00 0. -1.
         -5    1    5    5    0  502  0.10654580294E+02  0.95738501325E+02  0.18411854104E+02  0.98185880292E+02  0.47000000000E+01 0.  1.
         13    1    6    6    0    0 -0.12870206120E+02 -0.36023121909E+02  0.39501369805E+02  0.54987868972E+02  0.00000000000E+00 0. -1.
        -14    1    6    6    0    0 -0.40529520580E+02  0.41949839030E+02  0.64664274695E+02  0.87085586953E+02  0.00000000000E+00 0.  1.
</event>
<event>
12    1  0.1594973E-001  0.2131180E+03  0.7818608E-02  0.1139124E+00
         21   -1    0    0  503  502  0.00000000000E+00  0.00000000000E+00  0.21593938260E+03  0.21593938260E+03  0.00000000000E+00 0.  1.
         21   -1    0    0  501  503 -0.00000000000E+00 -0.00000000000E+00 -0.10211923289E+04  0.10211923289E+04  0.00000000000E+00 0.  1.
          6    2    1    2  501    0 -0.17898034348E+02 -0.12438276335E+03 -0.95383208509E+03  0.97735097950E+03  0.17212750833E+03 0.  0.
         24    2    3    3    0    0 -0.70295374259E+02 -0.64854601113E+02 -0.43561458094E+03  0.45307952793E+03  0.79833805916E+02 0.  0.
         -6    2    1    2    0  502  0.17898034348E+02  0.12438276335E+03  0.14857913884E+03  0.25978073196E+03  0.17210129793E+03 0.  0.
        -24    2    5    5    0    0  0.75755670095E+01  0.97910168506E+02  0.17752146132E+03  0.21895060044E+03  0.82351113491E+02 0.  0.
          5    1    3    3  501    0  0.52397339912E+02 -0.59528162238E+02 -0.51821750415E+03  0.52427145157E+03  0.47000000000E+01 0. -1.
        -13    1    4    4    0    0 -0.92065243301E+00 -0.51848894422E+02 -0.14427016921E+03  0.15330700303E+03  0.00000000000E+00 0.  1.
         14    1    4    4    0    0 -0.69374721826E+02 -0.13005706691E+02 -0.29134441173E+03  0.29977252489E+03  0.00000000000E+00 0. -1.
         -5    1    5    5    0  502  0.10322467338E+02  0.26472594845E+02 -0.28942322477E+02  0.40830131523E+02  0.47000000000E+01 0.  1.
         11    1    6    6    0    0  0.34385722897E+02  0.35785283005E+02  0.12101433864E+03  0.13079539203E+03  0.00000000000E+00 0. -1.
        -12    1    6    6    0    0 -0.26810155888E+02  0.62124885501E+02  0.56507122672E+02  0.88155208410E+02  0.00000000000E+00 0.  1.
</event>
<event>
12    1  0.1594973E-001  0.1813587E+03  0.7818608E-02  0.1166687E+00
         21   -1    0    0  501  502  0.00000000000E+00  0.00000000000E+00  0.62843310679E+03  0.62843310679E+03  0.00000000000E+00 0.  1.
         21   -1    0    0  502  503 -0.00000000000E+00 -0.00000000000E+00 -0.52362058062E+02  0.52362058062E+02  0.00000000000E+00 0.  1.
         -6    2    1    2    0  503 -0.37723884969E+02 -0.40657779876E+02  0.26493104041E+03  0.32105985590E+03  0.17266970879E+03 0.  0.
        -24    2    3    3    0    0 -0.64955492425E+02 -0.54366881916E+02  0.10054553308E+03  0.15380500561E+03  0.79822313197E+02 0.  0.
          6    2    1    2  501    0  0.37723884969E+02  0.40657779876E+02  0.31114000832E+03  0.35973530895E+03  0.17182910455E+03 0.  0.
         24    2    5    5    0    0 -0.11778478984E+02  0.58775855947E+02  0.99225501715E+02  0.14131233208E+03  0.80809289057E+02 0.  0.
          5    1    5    5  501    0  0.49502363953E+02 -0.18118076071E+02  0.21191450660E+03  0.21842297687E+03  0.47000000000E+01 0. -1.
        -13    1    6    6    0    0 -0.12180966763E+02 -0.15665010536E+02  0.45102615385E+02  0.49274886311E+02  0.00000000000E+00 0.  1.
         14    1    6    6    0    0  0.40248777920E+00  0.74440866483E+02  0.54122886330E+02  0.92037445770E+02  0.00000000000E+00 0. -1.
         -5    1    3    3    0  503  0.27231607456E+02  0.13709102040E+02  0.16438550733E+03  0.16725485028E+03  0.47000000000E+01 0.  1.
         11    1    4    4    0    0 -0.49847859299E+02 -0.60567356614E+02  0.10987096500E+03  0.13499941746E+03  0.00000000000E+00 0. -1.
        -12    1    4    4    0    0 -0.15107633126E+02  0.62004746984E+01 -0.93254319255E+01  0.18805588152E+02  0.00000000000E+00 0.  1.
</event>
<event>
12    1  0.1594973E-001  0.2024094E+03  0.7818608E-02  0.1150476E+00
         21   -1    0    0  501  502  0.00000000000E+00  0.00000000000E+00  0.38860206434E+02  0.38860206434E+02  0.00000000000E+00 0.  1.
         21   -1    0    0  502  503 -0.00000000000E+00 -0.00000000000E+00 -0.20729831872E+04  0.20729831872E+04  0.00000000000E+00 0.  1.
         -6    2    1    2    0  503  0.73066518165E+02 -0.26750021696E+02 -0.17647153037E+04  0.17748715168E+04  0.17290031331E+03 0.  0.
        -24    2    3    3    0    0  0.17902052123E+02  0.47206162758E+02 -0.10235118175E+04  0.10279328757E+04  0.80750549520E+02 0.  0.
          6    2    1    2  501    0 -0.73066518165E+02  0.26750021696E+02 -0.26940767708E+03  0.33697187684E+03  0.18685628053E+03 0.  0.
         24    2    5    5    0    0 -0.95688420685E+02 -0.37719442856E+02 -0.14586881430E+03  0.19572031773E+03  0.80310034021E+02 0.  0.
          5    1    5    5  501    0  0.22621902519E+02  0.64469464552E+02 -0.12353886279E+03  0.14125155911E+03  0.47000000000E+01 0. -1.
        -11    1    6    6    0    0 -0.71489721429E+02 -0.33628257293E+02 -0.42966763760E+02  0.89932100757E+02  0.00000000000E+00 0.  1.
         12    1    6    6    0    0 -0.24198699255E+02 -0.40911855635E+01 -0.10290205054E+03  0.10578821697E+03  0.00000000000E+00 0. -1.
         -5    1    3    3    0  503  0.55164466043E+02 -0.73956184453E+02 -0.74120348626E+03  0.74693864110E+03  0.47000000000E+01 0.  1.
         11    1    4    4    0    0  0.29526059321E+01  0.23184270378E+02 -0.66225493402E+02  0.70228514516E+02  0.00000000000E+00 0. -1.
        -12    1    4    4    0    0  0.14949446190E+02  0.24021892380E+02 -0.95728632406E+03  0.95770436122E+03  0.00000000000E+00 0.  1.
</event>
<event>
12    1  0.1594973E-001  0.1755758E+03  0.7818608E-02  0.1172878E+00
         21   -1    0    0  503  502  0.00000000000E+00  0.00000000000E+00  0.47598708340E+03  0.47598708340E+03  0.00000000000E+00 0. -1.
         21   -1    0    0  501  503 -0.00000000000E+00 -0.00000000000E+00 -0.79454582609E+02  0.79454582609E+02  0.00000000000E+00 0. -1.
          6    2    1    2  501    0  0.10329864394E+02 -0.35973505792E+02  0.73336324126E+02  0.18763378624E+03  0.16860433590E+03 0.  0.
         24    2    3    3    0    0  0.42964037645E+02 -0.31427712101E+02  0.10502489465E+03  0.14167827508E+03  0.78796545071E+02 0.  0.
         -6    2    1    2    0  502 -0.10329864394E+02  0.35973505792E+02  0.32319617667E+03  0.36780787978E+03  0.17154028272E+03 0.  0.
        -24    2    5    5    0    0 -0.20268022253E+02  0.62163418794E+02  0.10323281279E+03  0.14601822724E+03  0.79932632181E+02 0.  0.
          5    1    3    3  501    0 -0.32634173252E+02 -0.45457936904E+01 -0.31688570520E+02  0.45955511157E+02  0.47000000000E+01 0. -1.
        -11    1    4    4    0    0 -0.16320537923E+01  0.40255418654E+01  0.78870767654E+02  0.78990294197E+02  0.00000000000E+00 0.  1.
         12    1    4    4    0    0  0.44596091438E+02 -0.35453253967E+02  0.26154126992E+02  0.62687980882E+02  0.00000000000E+00 0. -1.
         -5    1    5    5    0  502  0.99381578598E+01 -0.26189913003E+02  0.21996336387E+03  0.22178965254E+03  0.47000000000E+01 0.  1.
         13    1    6    6    0    0 -0.44870667167E+02  0.27534610634E+02  0.84577146932E+02  0.99623417618E+02  0.00000000000E+00 0. -1.
        -14    1    6    6    0    0  0.24602644913E+02  0.34628808161E+02  0.18655665862E+02  0.46394809625E+02  0.00000000000E+00 0.  1.
</event>
<event>
12    1  0.1594973E-001  0.2295276E+03  0.7818608E-02  0.1127079E+00
         21   -1    0    0  501  502  0.00000000000E+00  0.00000000000E+00  0.10568370176E+04  0.10568370176E+04  0.00000000000E+00 0.  1.
         21   -1    0    0  502  503 -0.00000000000E+00 -0.00000000000E+00 -0.11233795592E+03  0.11233795592E+03  0.00000000000E+00 0. -1.
         -6    2    1    2    0  503 -0.12827927376E+03  0.80447431350E+02  0.35524045800E+02  0.23166845132E+03  0.17170018119E+03 0.  0.
        -24    2    3    3    0    0 -0.26857793342E+02  0.11709999728E+02 -0.34086237221E+02  0.90676136998E+02  0.78751667260E+02 0.  0.
          6    2    1    2  501    0  0.12827927376E+03 -0.80447431350E+02  0.90897501589E+03  0.93750652221E+03  0.17249793736E+03 0.  0.
         24    2    5    5    0    0  0.12696883345E+03 -0.11580466777E+03  0.68332945087E+03  0.70905551557E+03  0.79301828427E+02 0.  0.
          5    1    5    5  501    0  0.13104403019E+01  0.35357236423E+02  0.22564556502E+03  0.22845100664E+03  0.47000000000E+01 0. -1.
        -11    1    6    6    0    0  0.33813999779E+02 -0.84104033017E+02  0.31079109299E+03  0.32374060362E+03  0.00000000000E+00 0.  1.
         12    1    6    6    0    0  0.93154833675E+02 -0.31700634755E+02  0.37253835788E+03  0.38531491195E+03  0.00000000000E+00 0. -1.
         -5    1    3    3    0  503 -0.10142148041E+03  0.68737431622E+02  0.69610283021E+02  0.14099231432E+03  0.47000000000E+01 0.  1.
         11    1    4    4    0    0 -0.33542476099E+02  0.29892482438E+02  0.67919397506E+01  0.45439945585E+02  0.00000000000E+00 0. -1.
        -12    1    4    4    0    0  0.66846827574E+01 -0.18182482710E+02 -0.40878176972E+02  0.45236191413E+02  0.00000000000E+00 0.  1.
</event>
<event>
12    1  0.1594973E-001  0.2929433E+03  0.7818608E-02  0.1088825E+00
         21   -1    0    0  501  502  0.00000000000E+00  0.00000000000E+00  0.43680399294E+02  0.43680399294E+02  0.00000000000E+00 0.  1.
         21   -1    0    0  502  503 -0.00000000000E+00 -0.00000000000E+00 -0.19647585585E+04  0.19647585585E+04  0.00000000000E+00 0.  1.
         -6    2    1    2    0  503 -0.19032172362E+03  0.14194705933E+03 -0.97224177650E+03  0.10154101160E+04  0.17155846095E+03 0.  0.
        -24    2    3    3    0    0 -0.98829184790E+02  0.37145174992E+02 -0.28544222773E+03  0.31464622577E+03  0.79862445682E+02 0.  0.
          6    2    1    2  501    0  0.19032172362E+03 -0.14194705933E+03 -0.94883638267E+03  0.99302884178E+03  0.17159392004E+03 0.  0.
         24    2    5    5    0    0  0.18918081769E+03 -0.86141752516E+02 -0.61046533998E+03  0.65005276905E+03  0.81797847904E+02 0.  0.
          5    1    5    5  501    0  0.11409059253E+01 -0.55805306819E+02 -0.33837104269E+03  0.34297607273E+03  0.47000000000E+01 0. -1.
        -13    1    6    6    0    0  0.52863977582E+02 -0.61540755191E+02 -0.17091076500E+03  0.18918867373E+03  0.00000000000E+00 0.  1.
         14    1    6    6    0    0  0.13631684011E+03 -0.24600997325E+02 -0.43955457498E+03  0.46086409532E+03  0.00000000000E+00 0. -1.
         -5    1    3    3    0  503 -0.91492538829E+02  0.10480188434E+03 -0.68679954877E+03  0.70076389021E+03  0.47000000000E+01 0.  1.
         13    1    4    4    0    0  0.59115320304E+01  0.47949035526E+01  0.12470837402E+01  0.77131400143E+01  0.00000000000E+00 0. -1.
        -14    1    4    4    0    0 -0.10474071682E+03  0.32350271440E+02 -0.28668931147E+03  0.30693308576E+03  0.00000000000E+00 0.  1.
</event>
<event>
12    1  0.1594973E-001  0.2149945E+03  0.7818608E-02  0.1138259E+00
         21   -1    0    0  501  502  0.00000000000E+00  0.00000000000E+00  0.41752227491E+02  0.41752227491E+02  0.00000000000E+00 0. -1.
         21   -1    0    0  502  503 -0.00000000000E+00 -0.00000000000E+00 -0.13969121899E+04  0.13969121899E+04  0.00000000000E+00 0. -1.
         -6    2    1    2    0  503  0.10506903656E+02  0.12868235555E+03 -0.10101652652E+04  0.10321623025E+04  0.16809405659E+03 0.  0.
        -24    2    3    3    0    0  0.44511320147E+02  0.12078562738E+03 -0.95319906311E+03  0.96518546435E+03  0.80150491536E+02 0.  0.
          6    2    1    2  501    0 -0.10506903656E+02 -0.12868235555E+03 -0.34499469720E+03  0.40650211496E+03  0.17191010650E+03 0.  0.
         24    2    5    5    0    0  0.39053696281E+01 -0.15546452749E+03 -0.23850934459E+03  0.29565889832E+03  0.79642987629E+02 0.  0.
          5    1    5    5  501    0 -0.14412273284E+02  0.26782171940E+02 -0.10648535261E+03  0.11084321665E+03  0.47000000000E+01 0. -1.
        -11    1    6    6    0    0 -0.15535851149E+00  0.95987206648E+01 -0.13758796215E+02  0.16776890295E+02  0.00000000000E+00 0.  1.
         12    1    6    6    0    0  0.40607281396E+01 -0.16506324816E+03 -0.22475054837E+03  0.27888200802E+03  0.00000000000E+00 0. -1.
         -5    1    3    3    0  503 -0.34004416491E+02  0.78967281776E+01 -0.56966202141E+02  0.66976838110E+02  0.47000000000E+01 0.  1.
         13    1    4    4    0    0 -0.19369237423E+02  0.29505974718E+02 -0.13956461085E+03  0.14395850272E+03  0.00000000000E+00 0. -1.
        -14    1    4    4    0    0  0.63880557570E+02  0.91279652659E+02 -0.81363445225E+03  0.82122696164E+03  0.00000000000E+00 0.  1.
</event>
<event>
12    1  0.1594973E-001  0.1995217E+03  0.7818608E-02  0.1152811E+00
         21   -1    0    0  503  502  0.00000000000E+00  0.00000000000E+00  0.15244946006E+03  0.15244946006E+03  0.00000000000E+00 0.  1.
         21   -1    0    0  501  503 -0.00000000000E+00 -0.00000000000E+00 -0.28712505649E+03  0.28712505649E+03  0.00000000000E+00 0.  1.
          6    2    1    2  501    0 -0.10035355367E+03 -0.20029659125E+02 -0.15288556754E+03  0.25136211933E+03  0.17128016608E+03 0.  0.
         24    2    3    3    0    0  0.10512689070E+02 -0.66894291094E+01 -0.36456507932E+02  0.89970975095E+02  0.81304577335E+02 0.  0.
         -6    2    1    2    0  502  0.10035355367E+03  0.20029659125E+02  0.18209971101E+02  0.18821239722E+03  0.15690850978E+03 0.  0.
        -24    2    5    5    0    0  0.32348057450E+01  0.31496439833E+02  0.30473917328E+02  0.89541060778E+02  0.78015717888E+02 0.  0.
          5    1    3    3  501    0 -0.11086624274E+03 -0.13340230015E+02 -0.11642905960E+03  0.16139114423E+03  0.47000000000E+01 0. -1.
        -11    1    4    4    0    0 -0.17287394264E+02  0.30952707310E+02 -0.15189786724E+02  0.38570114221E+02  0.00000000000E+00 0.  1.
         12    1    4    4    0    0  0.27800083335E+02 -0.37642136420E+02 -0.21266721208E+02  0.51400860874E+02  0.00000000000E+00 0. -1.
         -5    1    5    5    0  502  0.97118747925E+02 -0.11466780708E+02 -0.12263946227E+02  0.98671336443E+02  0.47000000000E+01 0.  1.
         13    1    6    6    0    0  0.35395070818E+02  0.36400998078E+02  0.24845767069E+02  0.56525709554E+02  0.00000000000E+00 0. -1.
        -14    1    6    6    0    0 -0.32160265073E+02 -0.49045582456E+01  0.56281502593E+01  0.33015351225E+02  0.00000000000E+00 0.  1.
</event>
<event>
12    1  0.1594973E-001  0.2091698E+03  0.7818608E-02  0.1142352E+00
         21   -1    0    0  501  502  0.00000000000E+00  0.00000000000E+00  0.11309428919E+03  0.11309428919E+03  0.00000000000E+00 0.  1.
         21   -1    0    0  502  503 -0.00000000000E+00 -0.00000000000E+00 -0.41069191003E+03  0.41069191003E+03  0.00000000000E+00 0.  1.
         -6    2    1    2    0  503 -0.76612505449E+02 -0.92423150558E+02 -0.84392536541E+02  0.22555288258E+03  0.17129065318E+03 0.  0.
        -24    2    3    3    0    0 -0.30829744723E+02 -0.17535154654E+02 -0.10377609892E+03  0.13554129666E+03  0.79649291174E+02 0.  0.
          6    2    1    2  501    0  0.76612505449E+02  0.92423150558E+02 -0.21320508430E+03  0.29823331664E+03  0.17051448159E+03 0.  0.
         24    2    5    5    0    0  0.10192785360E+03  0.42612032479E+02 -0.19784243226E+03  0.24009455664E+03  0.79364321172E+02 0.  0.
          5    1    5    5  501    0 -0.25315348151E+02  0.49811118079E+02 -0.15362652034E+02  0.58138759996E+02  0.47000000000E+01 0. -1.
        -13    1    6    6    0    0  0.10469135955E+03  0.58482016862E+02 -0.17475612837E+03  0.21194369881E+03  0.00000000000E+00 0.  1.
         14    1    6    6    0    0 -0.27635059536E+01 -0.15869984384E+02 -0.23086303890E+02  0.28150857834E+02  0.00000000000E+00 0. -1.
         -5    1    3    3    0  503 -0.45782760726E+02 -0.74887995904E+02  0.19383562379E+02  0.90011585924E+02  0.47000000000E+01 0.  1.
         11    1    4    4    0    0 -0.96004132674E+01 -0.10796368153E+01  0.12728982472E+02  0.15980004547E+02  0.00000000000E+00 0. -1.
        -12    1    4    4    0    0 -0.21229331455E+02 -0.16455517839E+02 -0.11650508139E+03  0.11956129211E+03  0.00000000000E+00 0.  1.
</event>
<event>
12    1  0.1594973E-001  0.1798396E+03  0.7818608E-02  0.1168049E+00
         21   -1    0    0  501  502  0.00000000000E+00  0.00000000000E+00  0.15722461200E+03  0.15722461200E+03  0.00000000000E+00 0. -1.
         21   -1    0    0  502  503 -0.00000000000E+00 -0.00000000000E+00 -0.21030913861E+03  0.21030913861E+03  0.00000000000E+00 0. -1.
         -6    2    1    2    0  503 -0.43949361220E+02  0.26437945091E+02 -0.54937561115E+02  0.18768457452E+03  0.17197922142E+03 0.  0.
        -24    2    3    3    0    0 -0.71467809909E+02  0.69207355946E+02 -0.48199333568E+02  0.13616776917E+03  0.79505846538E+02 0.  0.
          6    2    1    2  501    0  0.43949361220E+02 -0.26437945091E+02  0.18530345047E+01  0.17984917609E+03  0.17237105647E+03 0.  0.
         24    2    5    5    0    0  0.53166014634E+02 -0.78306069868E+02 -0.18983257335E+02  0.12300297898E+03  0.76229279728E+02 0.  0.
          5    1    5    5  501    0 -0.92166534141E+01  0.51868124778E+02  0.20836291840E+02  0.56846197109E+02  0.47000000000E+01 0. -1.
        -13    1    6    6    0    0  0.31237668270E+02 -0.88866522352E+02 -0.25914452030E+02  0.97696517533E+02  0.00000000000E+00 0.  1.
         14    1    6    6    0    0  0.21928346364E+02  0.10560452484E+02  0.69311946952E+01  0.25306461444E+02  0.00000000000E+00 0. -1.
         -5    1    3    3    0  503  0.27518448689E+02 -0.42769410856E+02 -0.67382275477E+01  0.51516805352E+02  0.47000000000E+01 0.  1.
         11    1    4    4    0    0 -0.71551353095E+02  0.19699539334E+02 -0.12808072837E+02  0.75310787471E+02  0.00000000000E+00 0. -1.
        -12    1    4    4    0    0  0.83543186638E-01  0.49507816613E+02 -0.35391260731E+02  0.60856981698E+02  0.00000000000E+00 0.  1.
</event>
<event>
12    1  0.1594973E-001  0.1834686E+03  0.7818608E-02  0.1164561E+00
         21   -1    0    0  503  502  0.00000000000E+00  0.00000000000E+00  0.81223586958E+02  0.81223586958E+02  0.00000000000E+00 0.  1.
         21   -1    0    0  501  503 -0.00000000000E+00 -0.00000000000E+00 -0.62245026059E+03  0.62245026059E+03  0.00000000000E+00 0.  1.
          6    2    1    2  501    0  0.41245226363E+02 -0.49291853102E+02 -0.47420330810E+03  0.50834627461E+03  0.17151181306E+03 0.  0.
         24    2    3    3    0    0  0.67024024509E+02 -0.55252881833E+02 -0.46529758219E+03  0.48003581274E+03  0.79921465921E+02 0.  0.
         -6    2    1    2    0  502 -0.41245226363E+02  0.49291853102E+02 -0.67023365530E+02  0.19532757293E+03  0.17184258419E+03 0.  0.
        -24    2    5    5    0    0 -0.63960856995E+02 -0.74247495803E+01 -0.85265712445E+02  0.13139287096E+03  0.76470430152E+02 0.  0.
          5    1    3    3  501    0 -0.25778798146E+02  0.59610287306E+01 -0.89057259165E+01  0.28310461873E+02  0.47000000000E+01 0. -1.
        -11    1    4    4    0    0  0.38214804091E+02  0.85673587382E+01 -0.88367649772E+02  0.96657190181E+02  0.00000000000E+00 0.  1.
         12    1    4    4    0    0  0.28809220418E+02 -0.63820240571E+02 -0.37692993241E+03  0.38337862256E+03  0.00000000000E+00 0. -1.
         -5    1    5    5    0  502  0.22715630632E+02  0.56716602682E+02  0.18242346915E+02  0.63934701969E+02  0.47000000000E+01 0.  1.
         11    1    6    6    0    0 -0.37350326383E+02 -0.45603329624E+01 -0.95572281614E+02  0.10271272818E+03  0.00000000000E+00 0. -1.
        -12    1    6    6    0    0 -0.26610530612E+02 -0.28644166179E+01  0.10306569169E+02  0.28680142783E+02  0.00000000000E+00 0.  1.
</event>
<event>
12    1  0.1594973E-001  0.2438150E+03  0.7818608E-02  0.1117354E+00
         21   -1    0    0  501  502  0.00000000000E+00  0.00000000000E+00  0.31121334049E+03  0.31121334049E+03  0.00000000000E+00 0. -1.
         21   -1    0    0  502  503 -0.00000000000E+00 -0.00000000000E+00 -0.20834374562E+03  0.20834374562E+03  0.00000000000E+00 0.  1.
         -6    2    1    2    0  503  0.17209167068E+03  0.14544640481E+02  0.12710295011E+03  0.27454074903E+03  0.17143620757E+03 0.  0.
        -24    2    3    3    0    0  0.11017830444E+02 -0.56902881310E+01  0.35584250601E+02  0.88121874701E+02  0.79658357649E+02 0.  0.
          6    2    1    2  501    0 -0.17209167068E+03 -0.14544640481E+02 -0.24233355238E+02  0.24501633708E+03  0.17210072703E+03 0.  0.
         24    2    5    5    0    0 -0.18201038048E+03 -0.45115385265E+02  0.16331456665E+01  0.20349384787E+03  0.79018367279E+02 0.  0.
          5    1    5    5  501    0  0.99187097984E+01  0.30570744784E+02 -0.25866500905E+02  0.41522489205E+02  0.47000000000E+01 0. -1.
        -11    1    6    6    0    0 -0.13236630833E+03  0.20626578607E+01 -0.14379426975E+02  0.13316103807E+03  0.00000000000E+00 0.  1.
         12    1    6    6    0    0 -0.49644072146E+02 -0.47178043125E+02  0.16012572641E+02  0.70332809804E+02  0.00000000000E+00 0. -1.
         -5    1    3    3    0  503  0.16107384024E+03  0.20234928612E+02  0.91518699511E+02  0.18641887433E+03  0.47000000000E+01 0.  1.
         13    1    4    4    0    0  0.15641866968E+02 -0.41457903210E+02  0.16213252562E+02  0.47183633810E+02  0.00000000000E+00 0. -1.
        -14    1    4    4    0    0 -0.46240365242E+01  0.35767615079E+02  0.19370998039E+02  0.40938240891E+02  0.00000000000E+00 0.  1.
</event>
<event>
12    1  0.1594973E-001  0.1778955E+03  0.7818608E-02  0.1169952E+00
         21   -1    0    0  503  502  0.00000000000E+00  0.00000000000E+00  0.72992138632E+02  0.72992138632E+02  0.00000000000E+00 0. -1.
         21   -1    0    0  501  503 -0.00000000000E+00 -0.00000000000E+00 -0.47114465482E+03  0.47114465482E+03  0.00000000000E+00 0.  1.
          6    2    1    2  501    0 -0.45175308259E+02 -0.49713218891E+01 -0.27709107782E+03  0.32928145372E+03  0.17199211563E+03 0.  0.
         24    2    3    3    0    0 -0.65635543946E+02 -0.18314649815E+02 -0.28473731370E+03  0.30325799186E+03  0.79035566593E+02 0.  0.
         -6    2    1    2    0  502  0.45175308259E+02  0.49713218891E+01 -0.12106143837E+03  0.21485533973E+03  0.17158503033E+03 0.  0.
        -24    2    5    5    0    0 -0.14972285691E+02  0.35268180612E+02 -0.11742561211E+03  0.14724659814E+03  0.80154677864E+02 0.  0.
          5    1    3    3  501    0  0.20460235687E+02  0.13343327926E+02  0.76462358743E+01  0.26023461867E+02  0.47000000000E+01 0. -1.
        -13    1    4    4    0    0 -0.13265136630E+01  0.24745069762E+02 -0.45457789959E+02  0.51773437050E+02  0.00000000000E+00 0.  1.
         14    1    4    4    0    0 -0.64309030283E+02 -0.43059719577E+02 -0.23927952374E+03  0.25148455481E+03  0.00000000000E+00 0. -1.
         -5    1    5    5    0  502  0.60147593950E+02 -0.30296858723E+02 -0.36358262615E+01  0.67608741588E+02  0.47000000000E+01 0.  1.
         11    1    6    6    0    0  0.20365274463E+02  0.90338334677E+01 -0.46974475095E+00  0.22283967582E+02  0.00000000000E+00 0. -1.
        -12    1    6    6    0    0 -0.35337560154E+02  0.26234347145E+02 -0.11695586736E+03  0.12496263056E+03  0.00000000000E+00 0.  1.
</event>
<event>
12    1  0.1594973E-001  0.2365827E+03  0.7818608E-02  0.1122136E+00
         21   -1    0    0  501  502  0.00000000000E+00  0.00000000000E+00  0.21875411227E+03  0.21875411227E+03  0.00000000000E+00 0.  1.
         21   -1    0    0  502  503 -0.00000000000E+00 -0.00000000000E+00 -0.53485225296E+03  0.53485225296E+03  0.00000000000E+00 0. -1.
         -6    2    1    2    0  503 -0.15359287289E+03 -0.51223799193E+02 -0.43037260162E+03  0.49111297652E+03  0.17250139499E+03 0.  0.
        -24    2    3    3    0    0 -0.32128382879E+02 -0.67001715745E+01 -0.28793484740E+03  0.29863809614E+03  0.72118727334E+02 0.  0.
          6    2    1    2  501    0  0.15359287289E+03  0.51223799193E+02  0.11427446093E+03  0.26249338871E+03  0.17213215414E+03 0.  0.
         24    2    5    5    0    0  0.14447570260E+03  0.82157522431E+02  0.51100506760E+02  0.19140853439E+03  0.80017986188E+02 0.  0.
          5    1    5    5  501    0  0.91171702888E+01 -0.30933723238E+02  0.63173954170E+02  0.71084854315E+02  0.47000000000E+01 0. -1.
        -13    1    6    6    0    0  0.75392424819E+02  0.44010080318E+02  0.68056643121E+02  0.11069151531E+03  0.00000000000E+00 0.  1.
         14    1    6    6    0    0  0.69083277778E+02  0.38147442113E+02 -0.16956136361E+02  0.80717019077E+02  0.00000000000E+00 0. -1.
         -5    1    3    3    0  503 -0.12146449001E+03 -0.44523627619E+02 -0.14243775422E+03  0.19247488038E+03  0.47000000000E+01 0.  1.
         13    1    4    4    0    0 -0.25177712844E+02  0.31535210632E+02 -0.14331953171E+03  0.14889215864E+03  0.00000000000E+00 0. -1.
        -14    1    4    4    0    0 -0.69506700358E+01 -0.38235382207E+02 -0.14461531569E+03  0.14974593751E+03  0.00000000000E+00 0.  1.
</event>
<event>
12    1  0.1594973E-001  0.2029784E+03  0.7818608E-02  0.1147379E+00
         21   -1    0    0  503  502  0.00000000000E+00  0.00000000000E+00  0.28965572740E+03  0.28965572740E+03  0.00000000000E+00 0.  1.
         21   -1    0    0  501  503 -0.00000000000E+00 -0.00000000000E+00 -0.33972150314E+03  0.33972150314E+03  0.00000000000E+00 0.  1.
          6    2    1    2  501    0  0.10685293411E+03  0.41968331297E+01 -0.26521116013E+03  0.33359390274E+03  0.17179280995E+03 0.  0.
         24    2    3    3    0    0 -0.88286493007E+01 -0.91822924146E+01 -0.14468105123E+03  0.16593106580E+03  0.80238721749E+02 0.  0.
         -6    2    1    2    0  502 -0.10685293411E+03 -0.41968331297E+01  0.21514538439E+03  0.29578332780E+03  0.17252558548E+03 0.  0.
        -24    2    5    5    0    0 -0.91639039563E+02  0.19840763810E+02  0.63934013875E+02  0.14184750602E+03  0.85098691846E+02 0.  0.
          5    1    3    3  501    0  0.11568158341E+03  0.13379125544E+02 -0.12053010889E+03  0.16766283694E+03  0.47000000000E+01 0. -1.
        -11    1    4    4    0    0 -0.24956673149E+02 -0.74927320422E+01 -0.14722791402E+03  0.14951600328E+03  0.00000000000E+00 0.  1.
         12    1    4    4    0    0  0.16128023848E+02 -0.16895603724E+01  0.25468627895E+01  0.16415062521E+02  0.00000000000E+00 0. -1.
         -5    1    5    5    0  502 -0.15213894543E+02 -0.24037596939E+02  0.15121137052E+03  0.15393582178E+03  0.47000000000E+01 0.  1.
         13    1    6    6    0    0 -0.66625914978E+02  0.46415884069E+02  0.17983713279E+02  0.83167666697E+02  0.00000000000E+00 0. -1.
        -14    1    6    6    0    0 -0.25013124585E+02 -0.26575120259E+02  0.45950300596E+02  0.58679839325E+02  0.00000000000E+00 0.  1.
</event>
<event>
12    1  0.1594973E-001  0.1926949E+03  0.7818608E-02  0.1156284E+00
         21   -1    0    0  501  502  0.00000000000E+00  0.00000000000E+00  0.39526913245E+02  0.39526913245E+02  0.00000000000E+00 0.  1.
         21   -1    0    0  502  503 -0.00000000000E+00 -0.00000000000E+00 -0.10847220717E+04  0.10847220717E+04  0.00000000000E+00 0.  1.
         -6    2    1    2    0  503 -0.19486177528E+02  0.81461380150E+02 -0.73068889964E+03  0.75540552162E+03  0.17238203639E+03 0.  0.
        -24    2    3    3    0    0  0.55311288661E+02  0.61628314736E+02 -0.52607582203E+03  0.53659827092E+03  0.65761280383E+02 0.  0.
          6    2    1    2  501    0  0.19486177528E+02 -0.81461380150E+02 -0.31450625884E+03  0.36884346335E+03  0.17353860099E+03 0.  0.
         24    2    5    5    0    0  0.66277060684E+02 -0.94269631661E+02 -0.26064499515E+03  0.29620350341E+03  0.80754502720E+02 0.  0.
          5    1    5    5  501    0 -0.46790883157E+02  0.12808251512E+02 -0.53861263696E+02  0.72639959942E+02  0.47000000000E+01 0. -1.
        -11    1    6    6    0    0  0.75970438092E+02 -0.52462479158E+02 -0.21260438613E+03  0.23178534075E+03  0.00000000000E+00 0.  1.
         12    1    6    6    0    0 -0.96933774076E+01 -0.41807152504E+02 -0.48040609020E+02  0.64418162664E+02  0.00000000000E+00 0. -1.
         -5    1    3    3    0  503 -0.74797466189E+02  0.19833065414E+02 -0.20461307761E+03  0.21880725070E+03  0.47000000000E+01 0.  1.
         11    1    4    4    0    0  0.57164884454E+02  0.15255369617E+02 -0.27965358725E+03  0.28584380207E+03  0.00000000000E+00 0. -1.
        -12    1    4    4    0    0 -0.18535957930E+01  0.46372945118E+02 -0.24642223478E+03  0.25075446885E+03  0.00000000000E+00 0.  1.
</event>
<event>
12    1  0.1594973E-001  0.1864073E+03  0.7818608E-02  0.1161829E+00
         21   -1    0    0  503  502  0.00000000000E+00  0.00000000000E+00  0.48288474888E+03  0.48288474888E+03  0.00000000000E+00 0. -1.
         21   -1    0    0  501  503 -0.00000000000E+00 -0.00000000000E+00 -0.80830466073E+02  0.80830466073E+02  0.00000000000E+00 0.  1.
          6    2    1    2  501    0 -0.59008680695E+02  0.43871719859E+02  0.10670942270E+03  0.21446419892E+03  0.17088370175E+03 0.  0.
         24    2    3    3    0    0  0.22585297676E+02  0.58268837379E+02  0.68803080127E+02  0.12322914476E+03  0.80908622555E+02 0.  0.
         -6    2    1    2    0  502  0.59008680695E+02 -0.43871719859E+02  0.29534486011E+03  0.34925101603E+03  0.17129195430E+03 0.  0.
        -24    2    5    5    0    0  0.14227087507E+02  0.39725105225E+02  0.14745165730E+03  0.17350031280E+03  0.81116418158E+02 0.  0.
          5    1    3    3  501    0 -0.81593978371E+02 -0.14397117520E+02  0.37906342570E+02  0.91235054153E+02  0.47000000000E+01 0. -1.
        -13    1    4    4    0    0  0.19386870543E+02  0.33396913691E+02 -0.10530855327E+02  0.40026285207E+02  0.00000000000E+00 0.  1.
         14    1    4    4    0    0  0.31984271331E+01  0.24871923688E+02  0.79333935454E+02  0.83202859558E+02  0.00000000000E+00 0. -1.
         -5    1    5    5    0  502  0.44781593189E+02 -0.83596825084E+02  0.14789320280E+03  0.17575070324E+03  0.47000000000E+01 0.  1.
         11    1    6    6    0    0  0.46791525916E+02  0.30471188741E+02  0.74752669010E+02  0.93305421948E+02  0.00000000000E+00 0. -1.
        -12    1    6    6    0    0 -0.32564438409E+02  0.92539164846E+01  0.72698988294E+02  0.80194890849E+02  0.00000000000E+00 0.  1.
</event>
<event>
12    1  0.1594973E-001  0.2214950E+03  0.7818608E-02  0.1135079E+00
         21   -1    0    0  503  502  0.00000000000E+00  0.00000000000E+00  0.94459967728E+02  0.94459967728E+02  0.00000000000E+00 0. -1.
         21   -1    0    0  501  503 -0.00000000000E+00 -0.00000000000E+00 -0.16185231900E+04  0.16185231900E+04  0.00000000000E+00 0. -1.
          6    2    1    2  501    0 -0.11914765761E+03  0.69596057069E+02 -0.14701965822E+04  0.14850321284E+04  0.15748859279E+03 0.  0.
         24    2    3    3    0    0 -0.10197605534E+02  0.60037325290E+02 -0.71004101079E+03  0.71703468972E+03  0.79196197384E+02 0.  0.
         -6    2    1    2    0  502  0.11914765761E+03 -0.69596057069E+02 -0.53866640084E+02  0.22795102925E+03  0.17326361807E+03 0.  0.
        -24    2    5    5    0    0  0.12441997180E+03  0.79843055984E+01 -0.38828494612E+02  0.14861159525E+03  0.70948401882E+02 0.  0.
          5    1    3    3  501    0 -0.10895005208E+03  0.95587317793E+01 -0.76015557137E+03  0.76799743872E+03  0.47000000000E+01 0. -1.
        -13    1    4    4    0    0 -0.13560331752E+02  0.65610616770E+02 -0.31994813668E+03  0.32688751245E+03  0.00000000000E+00 0.  1.
         14    1    4    4    0    0  0.33627262188E+01 -0.55732914807E+01 -0.39009287411E+03  0.39014717728E+03  0.00000000000E+00 0. -1.
         -5    1    5    5    0  502 -0.52723141885E+01 -0.77580362667E+02 -0.15038145472E+02  0.79339434002E+02  0.47000000000E+01 0.  1.
         11    1    6    6    0    0  0.63037313476E+02  0.25859925222E+02  0.90563062126E+01  0.68734673237E+02  0.00000000000E+00 0. -1.
        -12    1    6    6    0    0  0.61382658326E+02 -0.17875619624E+02 -0.47884800825E+02  0.79876922012E+02  0.00000000000E+00 0.  1.
</event>
<event>
12    1  0.1594973E-001  0.1870725E+03  0.7818608E-02  0.1161564E+00
         21   -1    0    0  503  502  0.00000000000E+00  0.00000000000E+00  0.70129129523E+02  0.70129129523E+02  0.00000000000E+00 0.  1.
         21   -1    0    0  501  503 -0.00000000000E+00 -0.00000000000E+00 -0.59176524027E+03  0.59176524027E+03  0.00000000000E+00 0. -1.
          6    2    1    2  501    0 -0.63094860751E+02  0.38201702136E+02 -0.39422307464E+03  0.43555348732E+03  0.16986664250E+03 0.  0.
         24    2    3    3    0    0 -0.52482454737E+02 -0.11500193962E+02 -0.10893917750E+03  0.14573993759E+03  0.80533983495E+02 0.  0.
         -6    2    1    2    0  502  0.63094860751E+02 -0.38201702136E+02 -0.12741303610E+03  0.22634088247E+03  0.17191795081E+03 0.  0.
        -24    2    5    5    0    0  0.99046458747E+02  0.95730734340E+01 -0.89625425232E+02  0.15545407048E+03  0.78939258015E+02 0.  0.
          5    1    3    3  501    0 -0.10612406014E+02  0.49701896098E+02 -0.28528389714E+03  0.28981354973E+03  0.47000000000E+01 0. -1.
        -13    1    4    4    0    0 -0.34678332803E+02 -0.46200393107E+02 -0.67143991491E+02  0.88574142291E+02  0.00000000000E+00 0.  1.
         14    1    4    4    0    0 -0.17804121934E+02  0.34700199145E+02 -0.41795186009E+02  0.57165795298E+02  0.00000000000E+00 0. -1.
         -5    1    5    5    0  502 -0.35951597996E+02 -0.47774775570E+02 -0.37787610871E+02  0.70886811993E+02  0.47000000000E+01 0.  1.
         13    1    6    6    0    0  0.37615581041E+02 -0.29640089079E+02 -0.60035477761E+02  0.76796649717E+02  0.00000000000E+00 0. -1.
        -14    1    6    6    0    0  0.61430877706E+02  0.39213162513E+02 -0.29589947471E+02  0.78657420765E+02  0.00000000000E+00 0.  1.
</event>
<event>
12    1  0.1594973E-001  0.1827553E+03  0.7818608E-02  0.1165504E+00
         21   -1    0    0  503  502  0.00000000000E+00  0.00000000000E+00  0.89294780338E+02  0.89294780338E+02  0.00000000000E+00 0.  1.
         21   -1    0    0  501  503 -0.00000000000E+00 -0.00000000000E+00 -0.44417680493E+03  0.44417680493E+03  0.00000000000E+00 0.  1.
          6    2    1    2  501    0 -0.32441251836E+02 -0.46978822616E+02 -0.28504235664E+03  0.33782630260E+03  0.17209887000E+03 0.  0.
         24    2    3    3    0    0  0.44211662876E+02 -0.20751069943E+02 -0.19195903656E+03  0.21433476920E+03  0.81889214998E+02 0.  0.
         -6    2    1    2    0  502  0.32441251836E+02  0.46978822616E+02 -0.69839667956E+02  0.19564528267E+03  0.17360890765E+03 0.  0.
        -24    2    5    5    0    0  0.44610898706E+02  0.42691059604E+01  0.15495301543E+02  0.99331383253E+02  0.87282654519E+02 0.  0.
          5    1    3    3  501    0 -0.76652914712E+02 -0.26227752673E+02 -0.93083320075E+02  0.12349153340E+03  0.47000000000E+01 0. -1.
        -13    1    4    4    0    0 -0.72155529690E+01 -0.37913570905E+02 -0.56443825265E+02  0.68376958648E+02  0.00000000000E+00 0.  1.
         14    1    4    4    0    0  0.51427215845E+02  0.17162500961E+02 -0.13551521130E+03  0.14595781055E+03  0.00000000000E+00 0. -1.
         -5    1    5    5    0  502 -0.12169646870E+02  0.42709716656E+02 -0.85334969499E+02  0.96313899418E+02  0.47000000000E+01 0.  1.
         11    1    6    6    0    0  0.46191361555E+02 -0.23621903314E+02 -0.18724666034E+02  0.55156589059E+02  0.00000000000E+00 0. -1.
        -12    1    6    6    0    0 -0.15804628491E+01  0.27891009275E+02  0.34219967576E+02  0.44174794194E+02  0.00000000000E+00 0.  1.
</event>
<event>
12    1  0.1594973E-001  0.2016519E+03  0.7818608E-02  0.1148749E+00
         21   -1    0    0  503  502  0.00000000000E+00  0.00000000000E+00  0.12614623288E+03  0.12614623288E+03  0.00000000000E+00 0.  1.
         21   -1    0    0  501  503 -0.00000000000E+00 -0.00000000000E+00 -0.35426314336E+03  0.35426314336E+03  0.00000000000E+00 0. -1.
          6    2    1    2  501    0 -0.70426180175E+02  0.78853567151E+02 -0.18899245091E+03  0.27499708694E+03  0.16949194500E+03 0.  0.
         24    2    3    3    0    0 -0.22003000936E+02  0.15269105930E+02 -0.17478319287E+03  0.19368422811E+03  0.79038838954E+02 0.  0.
         -6    2    1    2    0  502  0.70426180175E+02 -0.78853567151E+02 -0.39124459572E+02  0.20541228931E+03  0.17171416178E+03 0.  0.
        -24    2    5    5    0    0  0.45251249042E+02 -0.18747209338E+02  0.40363589958E+02  0.10251918252E+03  0.80509813016E+02 0.  0.
          5    1    3    3  501    0 -0.48423179239E+02  0.63584461221E+02 -0.14209258033E+02  0.81312858825E+02  0.47000000000E+01 0. -1.
        -11    1    4    4    0    0  0.14237951234E+02  0.21612562202E+01 -0.14301951021E+03  0.14374272358E+03  0.00000000000E+00 0.  1.
         12    1    4    4    0    0 -0.36240952170E+02  0.13107849709E+02 -0.31763682666E+02  0.49941504530E+02  0.00000000000E+00 0. -1.
         -5    1    5    5    0  502  0.25174931133E+02 -0.60106357813E+02 -0.79488049530E+02  0.10289310679E+03  0.47000000000E+01 0.  1.
         13    1    6    6    0    0  0.13456527365E+02 -0.90011984858E+01 -0.24651791989E+02  0.29492550774E+02  0.00000000000E+00 0. -1.
        -14    1    6    6    0    0  0.31794721677E+02 -0.97460108521E+01  0.65015381947E+02  0.73026631743E+02  0.00000000000E+00 0.  1.
</event>
<event>
12    1  0.1594973E-001  0.2066830E+03  0.7818608E-02  0.1144365E+00
         21   -1    0    0  501  502  0.00000000000E+00  0.00000000000E+00  0.57063782011E+03  0.57063782011E+03  0.00000000000E+00 0. -1.
         21   -1    0    0  502  503 -0.00000000000E+00 -0.00000000000E+00 -0.15555522470E+03  0.15555522470E+03  0.00000000000E+00 0. -1.
         -6    2    1    2    0  503 -0.99714957854E+01 -0.11402632015E+03 -0.54569981073E+02  0.21307375091E+03  0.17123407395E+03 0.  0.
        -24    2    3    3    0    0 -0.48539940033E+02 -0.13118806297E+03 -0.37440768481E+02  0.16727473092E+03  0.83741213357E+02 0.  0.
          6    2    1    2  501    0  0.99714957854E+01  0.11402632015E+03  0.46965257649E+03  0.51311929389E+03  0.17209426123E+03 0.  0.
         24    2    5    5    0    0 -0.25392359197E+02  0.79982353117E+02  0.44111875845E+03  0.45614682069E+03  0.80263405485E+02 0.  0.
          5    1    5    5  501    0  0.35363854983E+02  0.34043967028E+02  0.28533818042E+02  0.56972473198E+02  0.47000000000E+01 0. -1.
        -11    1    6    6    0    0  0.25476276349E+02  0.11094040775E+02  0.15563802353E+03  0.15809905998E+03  0.00000000000E+00 0.  1.
         12    1    6    6    0    0 -0.50868635546E+02  0.68888312342E+02  0.28548073491E+03  0.29804776071E+03  0.00000000000E+00 0. -1.
         -5    1    3    3    0  503  0.38568444248E+02  0.17161742826E+02 -0.17129212592E+02  0.45799019996E+02  0.47000000000E+01 0.  1.
         11    1    4    4    0    0 -0.61231664631E+00 -0.10810612729E+03 -0.13527809371E+02  0.10895095831E+03  0.00000000000E+00 0. -1.
        -12    1    4    4    0    0 -0.47927623387E+02 -0.23081935682E+02 -0.23912959111E+02  0.58323772613E+02  0.00000000000E+00 0.  1.
</event>
<event>
12    1  0.1594973E-001  0.2802240E+03  0.7818608E-02  0.1096626E+00
         21   -1    0    0  501  502  0.00000000000E+00  0.00000000000E+00  0.41202268870E+02  0.41202268870E+02  0.00000000000E+00 0.  1.
         21   -1    0    0  502  503 -0.00000000000E+00 -0.00000000000E+00 -0.20280711858E+04  0.20280711858E+04  0.00000000000E+00 0. -1.
         -6    2    1    2    0  503 -0.13034226948E+03 -0.16568254800E+03 -0.12838135626E+04  0.13124297978E+04  0.17278569546E+03 0.  0.
        -24    2    3    3    0    0 -0.45705664944E+01 -0.94590148937E+02 -0.72516060635E+03  0.73537878960E+03  0.77174301610E+02 0.  0.
          6    2    1    2  501    0  0.13034226948E+03  0.16568254800E+03 -0.70305535427E+03  0.75684365687E+03  0.18462306425E+03 0.  0.
         24    2    5    5    0    0  0.27950562453E+02  0.11714164547E+03 -0.24355019604E+03  0.28354949747E+03  0.81118558157E+02 0.  0.
          5    1    5    5  501    0  0.10239170703E+03  0.48540902531E+02 -0.45950515823E+03  0.47329415940E+03  0.47000000000E+01 0. -1.
        -11    1    6    6    0    0  0.34887859896E+02  0.45854200477E+02 -0.46999701109E+02  0.74355513406E+02  0.00000000000E+00 0.  1.
         12    1    6    6    0    0 -0.69372974432E+01  0.71287444992E+02 -0.19655049493E+03  0.20919398406E+03  0.00000000000E+00 0. -1.
         -5    1    3    3    0  503 -0.12577170298E+03 -0.71092399063E+02 -0.55865295628E+03  0.57705100818E+03  0.47000000000E+01 0.  1.
         13    1    4    4    0    0  0.30724606701E+02 -0.14206293918E+02 -0.23365691291E+03  0.23609611008E+03  0.00000000000E+00 0. -1.
        -14    1    4    4    0    0 -0.35295173195E+02 -0.80383855019E+02 -0.49150369344E+03  0.49928267952E+03  0.00000000000E+00 0.  1.
</event>
<event>
12    1  0.1594973E-001  0.2178936E+03  0.7818608E-02  0.1135685E+00
         21   -1    0    0  503  502  0.00000000000E+00  0.00000000000E+00  0.52455136591E+03  0.52455136591E+03  0.00000000000E+00 0. -1.
         21   -1    0    0  501  503 -0.00000000000E+00 -0.00000000000E+00 -0.99047413489E+02  0.99047413489E+02  0.00000000000E+00 0. -1.
          6    2    1    2  501    0  0.13303327737E+03 -0.15544124029E+02  0.30633936874E+03  0.37524856249E+03  0.17037664784E+03 0.  0.
         24    2    3    3    0    0  0.96472243811E+02 -0.73677485231E+02  0.17916914663E+03  0.23064374843E+03  0.79747664085E+02 0.  0.
         -6    2    1    2    0  502 -0.13303327737E+03  0.15544124029E+02  0.11916458367E+03  0.24835021690E+03  0.17186669123E+03 0.  0.
        -24    2    5    5    0    0 -0.51883678992E+02 -0.29333061461E+01 -0.10177603039E+02  0.94473110072E+02  0.78237232136E+02 0.  0.
          5    1    3    3  501    0  0.36561033559E+02  0.58133361202E+02  0.12717022211E+03  0.14460481407E+03  0.47000000000E+01 0. -1.
        -11    1    4    4    0    0  0.90111518465E+01  0.94345632034E+01  0.58746318697E+02  0.60177585535E+02  0.00000000000E+00 0.  1.
         12    1    4    4    0    0  0.87461091965E+02 -0.83112048434E+02  0.12042282794E+03  0.17046616289E+03  0.00000000000E+00 0. -1.
         -5    1    5    5    0  502 -0.81149598379E+02  0.18477430175E+02  0.12934218671E+03  0.15387710683E+03  0.47000000000E+01 0.  1.
         13    1    6    6    0    0 -0.64320568188E+02  0.18312210691E+02  0.22120994313E+01  0.66913122303E+02  0.00000000000E+00 0. -1.
        -14    1    6    6    0    0  0.12436889196E+02 -0.21245516837E+02 -0.12389702470E+02  0.27559987769E+02  0.00000000000E+00 0.  1.
</event>
<event>
12    1  0.1594973E-001  0.2058957E+03  0.7818608E-02  0.1147227E+00
         21   -1    0    0  503  502  0.00000000000E+00  0.00000000000E+00  0.53473623499E+03  0.53473623499E+03  0.00000000000E+00 0.  1.
         21   -1    0    0  501  503 -0.00000000000E+00 -0.00000000000E+00 -0.95832685985E+02  0.95832685985E+02  0.00000000000E+00 0.  1.
          6    2    1    2  501    0 -0.20970370375E+02 -0.89129714942E+02  0.67580994519E+02  0.20598267795E+03  0.17169103143E+03 0.  0.
         24    2    3    3    0    0 -0.51383220912E+02 -0.60149192735E+02 -0.15246443959E+02  0.11299188964E+03  0.79224694967E+02 0.  0.
         -6    2    1    2    0  502  0.20970370375E+02  0.89129714942E+02  0.37132255449E+03  0.42458624303E+03  0.18441576880E+03 0.  0.
        -24    2    5    5    0    0  0.29318043866E+02 -0.26297806234E+02  0.17769286429E+03  0.19895879962E+03  0.80366209409E+02 0.  0.
          5    1    3    3  501    0  0.30412850537E+02 -0.28980522207E+02  0.82827438479E+02  0.92990788308E+02  0.47000000000E+01 0. -1.
        -13    1    4    4    0    0 -0.34594127227E+02  0.10162900360E+01  0.20459799065E+02  0.40204351280E+02  0.00000000000E+00 0.  1.
         14    1    4    4    0    0 -0.16789093685E+02 -0.61165482771E+02 -0.35706243024E+02  0.72787538359E+02  0.00000000000E+00 0. -1.
         -5    1    5    5    0  502 -0.83476734908E+01  0.11542752118E+03  0.19362969019E+03  0.22562744341E+03  0.47000000000E+01 0.  1.
         13    1    6    6    0    0 -0.23249761683E+02 -0.22401639236E+02  0.39264119105E+02  0.50833610022E+02  0.00000000000E+00 0. -1.
        -14    1    6    6    0    0  0.52567805549E+02 -0.38961669984E+01  0.13842874519E+03  0.14812518959E+03  0.00000000000E+00 0.  1.
</event>
<event>
12    1  0.1594973E-001  0.1946799E+03  0.7818608E-02  0.1155781E+00
         21   -1    0    0  503  502  0.00000000000E+00  0.00000000000E+00  0.89952208089E+02  0.89952208089E+02  0.00000000000E+00 0. -1.
         21   -1    0    0  501  503 -0.00000000000E+00 -0.00000000000E+00 -0.68496338939E+03  0.68496338939E+03  0.00000000000E+00 0. -1.
          6    2    1    2  501    0  0.22833819268E+02  0.71770608523E+02 -0.54731432579E+03  0.58090725879E+03  0.17952122034E+03 0.  0.
         24    2    3    3    0    0 -0.48713651059E+02  0.25473980100E+02 -0.28428645628E+03  0.30437847466E+03  0.93837749079E+02 0.  0.
         -6    2    1    2    0  502 -0.22833819268E+02 -0.71770608523E+02 -0.47696855512E+02  0.19400833869E+03  0.17231320873E+03 0.  0.
        -24    2    5    5    0    0 -0.64962169005E+02 -0.83950190270E+02 -0.46354741656E+01  0.13236815191E+03  0.78943791207E+02 0.  0.
          5    1    3    3  501    0  0.71547470327E+02  0.46296628423E+02 -0.26302786951E+03  0.27652878413E+03  0.47000000000E+01 0. -1.
        -13    1    4    4    0    0 -0.18172893479E+02 -0.32625855072E+02 -0.59895626644E+02  0.70584605741E+02  0.00000000000E+00 0.  1.
         14    1    4    4    0    0 -0.30540757580E+02  0.58099835172E+02 -0.22439082964E+03  0.23379386892E+03  0.00000000000E+00 0. -1.
         -5    1    5    5    0  502  0.42128349737E+02  0.12179581747E+02 -0.43061381346E+02  0.61640186782E+02  0.47000000000E+01 0.  1.
         11    1    6    6    0    0  0.11752063247E+02 -0.43307404135E+02  0.43752068345E+01  0.45086413456E+02  0.00000000000E+00 0. -1.
        -12    1    6    6    0    0 -0.76714232252E+02 -0.40642786134E+02 -0.90106810001E+01  0.87281738450E+02  0.00000000000E+00 0.  1.
</event>
<event>
12    1  0.1594973E-001  0.1939425E+03  0.7818608E-02  0.1155459E+00
         21   -1    0    0  503  502  0.00000000000E+00  0.00000000000E+00  0.12223969746E+04  0.12223969746E+04  0.00000000000E+00 0.  1.
         21   -1    0    0  501  503 -0.00000000000E+00 -0.00000000000E+00 -0.53831318693E+02  0.53831318693E+02  0.00000000000E+00 0.  1.
          6    2    1    2  501    0 -0.87739605542E+02 -0.91928098153E+01  0.16139736558E+03  0.25055697859E+03  0.17013801389E+03 0.  0.
         24    2    3    3    0    0 -0.15532329026E+02 -0.14460886413E+02  0.12061478000E+02  0.84530050859E+02  0.80928856200E+02 0.  0.
         -6    2    1    2    0  502  0.87739605542E+02  0.91928098153E+01  0.10071682903E+04  0.10256713147E+04  0.17271634153E+03 0.  0.
        -24    2    5    5    0    0 -0.21366674317E+02  0.14099839361E+02  0.48784563375E+03  0.49496765834E+03  0.79650989892E+02 0.  0.
          5    1    3    3  501    0 -0.72207276516E+02  0.52680765978E+01  0.14933588758E+03  0.16602692773E+03  0.47000000000E+01 0. -1.
        -13    1    4    4    0    0 -0.30365046789E+02  0.26373696613E+02  0.59523505560E+01  0.40657575145E+02  0.00000000000E+00 0.  1.
         14    1    4    4    0    0  0.14832717763E+02 -0.40834583026E+02  0.61091274444E+01  0.43872475714E+02  0.00000000000E+00 0. -1.
         -5    1    5    5    0  502  0.10910627986E+03 -0.49070295457E+01  0.51932265655E+03  0.53070365634E+03  0.47000000000E+01 0.  1.
         11    1    6    6    0    0  0.19057611134E+02  0.10110137813E+02  0.41453576507E+02  0.46731214771E+02  0.00000000000E+00 0. -1.
        -12    1    6    6    0    0 -0.40424285451E+02  0.39897015484E+01  0.44639205724E+03  0.44823644357E+03  0.00000000000E+00 0.  1.
</event>
<event>
12    1  0.1594973E-001  0.2809366E+03  0.7818608E-02  0.1095478E+00
         21   -1    0    0  503  502  0.00000000000E+00  0.00000000000E+00  0.44616180494E+03  0.44616180494E+03  0.00000000000E+00 0. -1.
         21   -1    0    0  501  503 -0.00000000000E+00 -0.00000000000E+00 -0.17708286049E+03  0.17708286049E+03  0.00000000000E+00 0. -1.
          6    2    1    2  501    0 -0.21360620530E+03  0.51113799272E+02  0.16329971487E+03  0.32305367437E+03  0.17162939209E+03 0.  0.
         24    2    3    3    0    0 -0.11955532037E+03 -0.71780456961E+01  0.14529123762E+03  0.21084893562E+03  0.94882722100E+02 0.  0.
         -6    2    1    2    0  502  0.21360620530E+03 -0.51113799272E+02  0.10577922957E+03  0.30019099105E+03  0.17517178506E+03 0.  0.
        -24    2    5    5    0    0  0.68898167857E+02 -0.58259623246E+02 -0.57278747785E+00  0.12040133497E+03  0.79718330033E+02 0.  0.
          5    1    3    3  501    0 -0.94050884929E+02  0.58291844968E+02  0.18008477248E+02  0.11220473875E+03  0.47000000000E+01 0. -1.
        -13    1    4    4    0    0  0.12314782878E+02 -0.53660654847E+01 -0.14981471892E+01  0.13516396750E+02  0.00000000000E+00 0.  1.
         14    1    4    4    0    0 -0.13187010325E+03 -0.18119802114E+01  0.14678938481E+03  0.19733253887E+03  0.00000000000E+00 0. -1.
         -5    1    5    5    0  502  0.14470803744E+03  0.71458239738E+01  0.10635201705E+03  0.17978965608E+03  0.47000000000E+01 0.  1.
         13    1    6    6    0    0  0.55199571610E+02 -0.25228320770E+02  0.34918138730E+02  0.70019549322E+02  0.00000000000E+00 0. -1.
        -14    1    6    6    0    0  0.13698596247E+02 -0.33031302476E+02 -0.35490926208E+02  0.50381785652E+02  0.00000000000E+00 0.  1.
</event>
<event>
12    1  0.1594973E-001  0.2306499E+03  0.7818608E-02  0.1126451E+00
         21   -1    0    0  503  502  0.00000000000E+00  0.00000000000E+00  0.10772112842E+04  0.10772112842E+04  0.00000000000E+00 0.  1.
         21   -1    0    0  501  503 -0.00000000000E+00 -0.00000000000E+00 -0.81141610008E+02  0.81141610008E+02  0.00000000000E+00 0.  1.
          6    2    1    2  501    0  0.10904970477E+03  0.10667658225E+03  0.13485752082E+03  0.26718147177E+03  0.17299611736E+03 0.  0.
         24    2    3    3    0    0  0.55237448847E+02 -0.79759816032E+01  0.27903168904E+02  0.10134331970E+03  0.79856681475E+02 0.  0.
         -6    2    1    2    0  502 -0.10904970477E+03 -0.10667658225E+03  0.86121215338E+03  0.89117142245E+03  0.17096315321E+03 0.  0.
        -24    2    5    5    0    0 -0.10614699396E+03 -0.11751709248E+03  0.51208246765E+03  0.54182979904E+03  0.79206225125E+02 0.  0.
          5    1    3    3  501    0  0.53812255927E+02  0.11465256385E+03  0.10695435192E+03  0.16583815206E+03  0.47000000000E+01 0. -1.
        -11    1    4    4    0    0  0.74632536276E+02  0.12872237608E+01  0.14576822690E+02  0.76053640121E+02  0.00000000000E+00 0.  1.
         12    1    4    4    0    0 -0.19395087429E+02 -0.92632053641E+01  0.13326346214E+02  0.25289679583E+02  0.00000000000E+00 0. -1.
         -5    1    5    5    0  502 -0.29027108102E+01  0.10840510233E+02  0.34912968573E+03  0.34934162341E+03  0.47000000000E+01 0.  1.
         11    1    6    6    0    0  0.11056165298E+02 -0.97849992472E+01  0.21634215314E+02  0.26192065089E+02  0.00000000000E+00 0. -1.
        -12    1    6    6    0    0 -0.11720315926E+03 -0.10773209323E+03  0.49044825234E+03  0.51563773395E+03  0.00000000000E+00 0.  1.
</event>
<event>
12    1  0.1594973E-001  0.2029332E+03  0.7818608E-02  0.1147360E+00
         21   -1    0    0  501  502  0.00000000000E+00  0.00000000000E+00  0.12206694912E+03  0.12206694912E+03  0.00000000000E+00 0.  1.
         21   -1    0    0  502  503 -0.00000000000E+00 -0.00000000000E+00 -0.41274783089E+03  0.41274783089E+03  0.00000000000E+00 0. -1.
         -6    2    1    2    0  503  0.96768963893E+02 -0.46272286108E+02 -0.26015676950E+03  0.32994458471E+03  0.17226876509E+03 0.  0.
        -24    2    3    3    0    0  0.91289758922E+02 -0.70627829535E+02 -0.26869085400E+03  0.30314654782E+03  0.79880811500E+02 0.  0.
          6    2    1    2  501    0 -0.96768963893E+02  0.46272286108E+02 -0.30524112276E+02  0.20487019531E+03  0.17185668058E+03 0.  0.
         24    2    5    5    0    0 -0.41096265869E+01  0.18814987217E+02 -0.58759787581E+02  0.10407833347E+03  0.83717943640E+02 0.  0.
          5    1    5    5  501    0 -0.92659337306E+02  0.27457298891E+02  0.28235675306E+02  0.10079186184E+03  0.47000000000E+01 0. -1.
        -13    1    6    6    0    0 -0.33406840571E+02 -0.16435563670E+02 -0.13336041538E+02  0.39547373542E+02  0.00000000000E+00 0.  1.
         14    1    6    6    0    0  0.29297213985E+02  0.35250550887E+02 -0.45423746043E+02  0.64530959931E+02  0.00000000000E+00 0. -1.
         -5    1    3    3    0  503  0.54792049709E+01  0.24355543426E+02  0.85340844978E+01  0.26798036886E+02  0.47000000000E+01 0.  1.
         11    1    4    4    0    0  0.63477999918E+02 -0.51565421233E+02 -0.91271756780E+02  0.12255195929E+03  0.00000000000E+00 0. -1.
        -12    1    4    4    0    0  0.27811759004E+02 -0.19062408302E+02 -0.17741909722E+03  0.18059458853E+03  0.00000000000E+00 0.  1.
</event>
<event>
12    1  0.1594973E-001  0.1785601E+03  0.7818608E-02  0.1169355E+00
         21   -1    0    0  503  502  0.00000000000E+00  0.00000000000E+00  0.27619274358E+03  0.27619274358E+03  0.00000000000E+00 0. -1.
         21   -1    0    0  501  503 -0.00000000000E+00 -0.00000000000E+00 -0.22916672043E+03  0.22916672043E+03  0.00000000000E+00 0. -1.
          6    2    1    2  501    0 -0.69836970767E+01 -0.42676873589E+02 -0.15478081570E+03  0.23630663956E+03  0.17324444992E+03 0.  0.
         24    2    3    3    0    0 -0.58312986496E+02  0.12525828758E+01 -0.49591582977E+02  0.11120125287E+03  0.80649985621E+02 0.  0.
         -6    2    1    2    0  502  0.69836970767E+01  0.42676873589E+02  0.20180683885E+03  0.26905282445E+03  0.17260745805E+03 0.  0.
        -24    2    5    5    0    0  0.47639032781E+02 -0.27782925201E+02  0.10845973541E+03  0.14514474849E+03  0.79133529136E+02 0.  0.
          5    1    3    3  501    0  0.51329289419E+02 -0.43929456465E+02 -0.10518923272E+03  0.12510538669E+03  0.47000000000E+01 0. -1.
        -13    1    4    4    0    0 -0.51650270658E+02  0.34820106782E+02 -0.18541372805E+02  0.64992097988E+02  0.00000000000E+00 0.  1.
         14    1    4    4    0    0 -0.66627158376E+01 -0.33567523906E+02 -0.31050210172E+02  0.46209154886E+02  0.00000000000E+00 0. -1.
         -5    1    5    5    0  502 -0.40655335704E+02  0.70459798790E+02  0.93347103444E+02  0.12390807596E+03  0.47000000000E+01 0.  1.
         13    1    6    6    0    0 -0.65379694565E+01 -0.15092027064E+02  0.81813039810E+02  0.83449911974E+02  0.00000000000E+00 0. -1.
        -14    1    6    6    0    0  0.54177002237E+02 -0.12690898137E+02  0.26646695599E+02  0.61694836521E+02  0.00000000000E+00 0.  1.
</event>
<event>
12    1  0.1594973E-001  0.1764198E+03  0.7818608E-02  0.1172694E+00
         21   -1    0    0  503  502  0.00000000000E+00  0.00000000000E+00  0.38747675844E+03  0.38747675844E+03  0.00000000000E+00 0. -1.
         21   -1    0    0  501  503 -0.00000000000E+00 -0.00000000000E+00 -0.14723214979E+03  0.14723214979E+03  0.00000000000E+00 0. -1.
          6    2    1    2  501    0 -0.23603914105E+02  0.23552941037E+02 -0.62389328934E+02  0.18712659293E+03  0.17323985576E+03 0.  0.
         24    2    3    3    0    0 -0.18979129045E+02  0.12648915777E+02  0.33810649526E+02  0.90086331909E+02  0.80325492627E+02 0.  0.
         -6    2    1    2    0  502  0.23603914105E+02 -0.23552941037E+02  0.30263393759E+03  0.34758231530E+03  0.16767313421E+03 0.  0.
        -24    2    5    5    0    0  0.32416135089E+02  0.45714726861E+02  0.20740298409E+03  0.22940156577E+03  0.80426603200E+02 0.  0.
          5    1    3    3  501    0 -0.46247850603E+01  0.10904025260E+02 -0.96199978460E+02  0.97040261024E+02  0.47000000000E+01 0. -1.
        -11    1    4    4    0    0  0.97437156152E+01  0.39228304278E+02  0.34709745230E+01  0.40569046263E+02  0.00000000000E+00 0.  1.
         12    1    4    4    0    0 -0.28722844660E+02 -0.26579388501E+02  0.30339675003E+02  0.49517285646E+02  0.00000000000E+00 0. -1.
         -5    1    5    5    0  502 -0.88122209842E+01 -0.69267667898E+02  0.95230953503E+02  0.11818074953E+03  0.47000000000E+01 0.  1.
         13    1    6    6    0    0 -0.25868958653E+02  0.58944107516E+01  0.71414047397E+02  0.76183418573E+02  0.00000000000E+00 0. -1.
        -14    1    6    6    0    0  0.58285093742E+02  0.39820316110E+02  0.13598893669E+03  0.15321814719E+03  0.00000000000E+00 0.  1.
</event>
<event>
12    1  0.1594973E-001  0.1888853E+03  0.7818608E-02  0.1160503E+00
         21   -1    0    0  501  502  0.00000000000E+00  0.00000000000E+00  0.13784813104E+03  0.13784813104E+03  0.00000000000E+00 0.  1.
         21   -1    0    0  502  503 -0.00000000000E+00 -0.00000000000E+00 -0.47443812054E+03  0.47443812054E+03  0.00000000000E+00 0.  1.
         -6    2    1    2    0  503 -0.78379878246E+02 -0.10541370371E+02 -0.37865459970E+03  0.42315121684E+03  0.17153168989E+03 0.  0.
        -24    2    3    3    0    0 -0.81167674818E+01 -0.40542997111E+02 -0.30048162688E+03  0.31374323714E+03  0.80224648535E+02 0.  0.
          6    2    1    2  501    0  0.78379878246E+02  0.10541370371E+02  0.42064610206E+02  0.18913503474E+03  0.16657762194E+03 0.  0.
         24    2    5    5    0    0  0.11798838665E+03  0.18562925096E+02  0.27112819790E+02  0.14578961613E+03  0.79080121421E+02 0.  0.
          5    1    5    5  501    0 -0.39608508400E+02 -0.80215547255E+01  0.14951790417E+02  0.43345418611E+02  0.47000000000E+01 0. -1.
        -11    1    6    6    0    0  0.33955498914E+02  0.41122659412E+01  0.47102838074E+02  0.58211373393E+02  0.00000000000E+00 0.  1.
         12    1    6    6    0    0  0.84032887732E+02  0.14450659155E+02 -0.19990018284E+02  0.87578242741E+02  0.00000000000E+00 0. -1.
         -5    1    3    3    0  503 -0.70263110764E+02  0.30001626740E+02 -0.78172972823E+02  0.10940797970E+03  0.47000000000E+01 0.  1.
         11    1    4    4    0    0  0.13710495772E+02 -0.22391611781E+01 -0.46575375930E+01  0.14652105430E+02  0.00000000000E+00 0. -1.
        -12    1    4    4    0    0 -0.21827263254E+02 -0.38303835933E+02 -0.29582408929E+03  0.29909113171E+03  0.00000000000E+00 0.  1.
</event>
<event>
12    1  0.1594973E-001  0.1929237E+03  0.7818608E-02  0.1155855E+00
         21   -1    0    0  501  502  0.00000000000E+00  0.00000000000E+00  0.11013516245E+03  0.11013516245E+03  0.00000000000E+00 0.  1.
         21   -1    0    0  502  503 -0.00000000000E+00 -0.00000000000E+00 -0.48650318068E+03  0.48650318068E+03  0.00000000000E+00 0.  1.
         -6    2    1    2    0  503 -0.49339741970E+02  0.71955660519E+02 -0.35306216210E+03  0.40233374765E+03  0.17206837876E+03 0.  0.
        -24    2    3    3    0    0 -0.90370120308E+01  0.10987970469E+03 -0.22659234353E+03  0.26420609590E+03  0.79407517760E+02 0.  0.
          6    2    1    2  501    0  0.49339741970E+02 -0.71955660519E+02 -0.23305856126E+02  0.19430459549E+03  0.17204384813E+03 0.  0.
         24    2    5    5    0    0 -0.19771294330E+01 -0.95878393994E+02 -0.44333106498E+02  0.13372445249E+03  0.81977005233E+02 0.  0.
          5    1    5    5  501    0  0.51316871403E+02  0.23922733475E+02  0.21027250372E+02  0.60580142998E+02  0.47000000000E+01 0. -1.
        -11    1    6    6    0    0  0.34338107097E+02 -0.31708392715E+02  0.17555332180E+01  0.46771889682E+02  0.00000000000E+00 0.  1.
         12    1    6    6    0    0 -0.36315236530E+02 -0.64170001279E+02 -0.46088639716E+02  0.86952562810E+02  0.00000000000E+00 0. -1.
         -5    1    3    3    0  503 -0.40302729939E+02 -0.37924044167E+02 -0.12646981857E+03  0.13812765174E+03  0.47000000000E+01 0.  1.
         13    1    4    4    0    0  0.34195056949E+02  0.60395429400E+02 -0.10243767838E+03  0.12373515169E+03  0.00000000000E+00 0. -1.
        -14    1    4    4    0    0 -0.43232068980E+02  0.49484275286E+02 -0.12415466515E+03  0.14047094421E+03  0.00000000000E+00 0.  1.
</event>
<event>
12    1  0.1594973E-001  0.1730737E+03  0.7818608E-02  0.1174721E+00
         21   -1    0    0  501  502  0.00000000000E+00  0.00000000000E+00  0.45914248384E+02  0.45914248384E+02  0.00000000000E+00 0. -1.
         21   -1    0    0  502  503 -0.00000000000E+00 -0.00000000000E+00 -0.70895872869E+03  0.70895872869E+03  0.00000000000E+00 0. -1.
         -6    2    1    2    0  503  0.16891284702E+02 -0.11681113493E+02 -0.43883357287E+03  0.47173024076E+03  0.17185095712E+03 0.  0.
        -24    2    3    3    0    0  0.72809776909E+02  0.75306329540E+01 -0.22368883012E+03  0.24855918685E+03  0.79918724974E+02 0.  0.
          6    2    1    2  501    0 -0.16891284702E+02  0.11681113493E+02 -0.22421090744E+03  0.28314273631E+03  0.17169016920E+03 0.  0.
         24    2    5    5    0    0 -0.35319321058E+02 -0.84112833036E+01 -0.37974336022E+02  0.94862499786E+02  0.78985058983E+02 0.  0.
          5    1    5    5  501    0  0.18428036356E+02  0.20092396796E+02 -0.18623657141E+03  0.18828023652E+03  0.47000000000E+01 0. -1.
        -11    1    6    6    0    0  0.85341468529E+01 -0.34720998671E+02 -0.14295858352E+02  0.38506505648E+02  0.00000000000E+00 0.  1.
         12    1    6    6    0    0 -0.43853467911E+02  0.26309715367E+02 -0.23678477670E+02  0.56355994138E+02  0.00000000000E+00 0. -1.
         -5    1    3    3    0  503 -0.55918492207E+02 -0.19211746447E+02 -0.21514474275E+03  0.22317105391E+03  0.47000000000E+01 0.  1.
         13    1    4    4    0    0 -0.46141626744E+01 -0.23670148940E+02 -0.63515215266E+02  0.67939303929E+02  0.00000000000E+00 0. -1.
        -14    1    4    4    0    0  0.77423939584E+02  0.31200781894E+02 -0.16017361485E+03  0.18061988292E+03  0.00000000000E+00 0.  1.
</event>
<event>
12    1  0.1594973E-001  0.2141015E+03  0.7818608E-02  0.1138608E+00
         21   -1    0    0  503  502  0.00000000000E+00  0.00000000000E+00  0.94282157685E+02  0.94282157685E+02  0.00000000000E+00 0.  1.
         21   -1    0    0  501  503 -0.00000000000E+00 -0.00000000000E+00 -0.10068569491E+04  0.10068569491E+04  0.00000000000E+00 0. -1.
          6    2    1    2  501    0 -0.80090139312E+02  0.97419295666E+02 -0.85397120929E+03  0.88040119973E+03  0.17301588542E+03 0.  0.
         24    2    3    3    0    0 -0.72019750956E+02  0.20329691653E+02 -0.27453864450E+03  0.29578840022E+03  0.80741374087E+02 0.  0.
         -6    2    1    2    0  502  0.80090139312E+02 -0.97419295666E+02 -0.58603582137E+02  0.22073790706E+03  0.17142314369E+03 0.  0.
        -24    2    5    5    0    0  0.11652172612E+03 -0.62429619366E+02 -0.68063564421E+02  0.16913248846E+03  0.80612528919E+02 0.  0.
          5    1    3    3  501    0 -0.80703883558E+01  0.77089604013E+02 -0.57943256479E+03  0.58461279951E+03  0.47000000000E+01 0. -1.
        -13    1    4    4    0    0 -0.65840871746E-01  0.33018867623E+02 -0.12597167120E+03  0.13022715500E+03  0.00000000000E+00 0.  1.
         14    1    4    4    0    0 -0.71953910085E+02 -0.12689175969E+02 -0.14856697330E+03  0.16556124522E+03  0.00000000000E+00 0. -1.
         -5    1    5    5    0  502 -0.36431586805E+02 -0.34989676300E+02  0.94599822842E+01  0.51605418606E+02  0.47000000000E+01 0.  1.
         11    1    6    6    0    0 -0.10945393050E+02 -0.20460958729E+01 -0.14444861789E+02  0.18238480458E+02  0.00000000000E+00 0. -1.
        -12    1    6    6    0    0  0.12746711917E+03 -0.60383523493E+02 -0.53618702633E+02  0.15089400800E+03  0.00000000000E+00 0.  1.
</event>
<event>
12    1  0.1594973E-001  0.1788599E+03  0.7818608E-02  0.1169552E+00
         21   -1    0    0  501  502  0.00000000000E+00  0.00000000000E+00  0.76360469583E+03  0.76360469583E+03  0.00000000000E+00 0. -1.
         21   -1    0    0  502  503 -0.00000000000E+00 -0.00000000000E+00 -0.87050174813E+02  0.87050174813E+02  0.00000000000E+00 0. -1.
         -6    2    1    2    0  503  0.21786164103E+02  0.39794598824E+02  0.28712489129E+02  0.17857588559E+03  0.17031351338E+03 0.  0.
        -24    2    3    3    0    0  0.11623089916E+02  0.33850930637E+02  0.83319801591E+02  0.12251641857E+03  0.82383868311E+02 0.  0.
          6    2    1    2  501    0 -0.21786164103E+02 -0.39794598824E+02  0.64784203189E+03  0.67207898505E+03  0.17301045293E+03 0.  0.
         24    2    5    5    0    0 -0.32696431413E+02  0.53097938648E+00  0.15519654621E+03  0.17764309360E+03  0.80011012888E+02 0.  0.
          5    1    5    5  501    0  0.10910267310E+02 -0.40325578211E+02  0.49264548569E+03  0.49443589146E+03  0.47000000000E+01 0. -1.
        -13    1    6    6    0    0 -0.54730729650E+02 -0.62443290657E+01  0.68326924930E+02  0.87766810834E+02  0.00000000000E+00 0.  1.
         14    1    6    6    0    0  0.22034298237E+02  0.67753084522E+01  0.86869621275E+02  0.89876282766E+02  0.00000000000E+00 0. -1.
         -5    1    3    3    0  503  0.10163074187E+02  0.59436681875E+01 -0.54607312462E+02  0.56059467022E+02  0.47000000000E+01 0.  1.
         11    1    4    4    0    0  0.10355532551E+02  0.16300058772E+02 -0.13851070396E+02  0.23765124058E+02  0.00000000000E+00 0. -1.
        -12    1    4    4    0    0  0.12675573653E+01  0.17550871865E+02  0.97170871987E+02  0.98751294512E+02  0.00000000000E+00 0.  1.
</event>
<event>
12    1  0.1594973E-001  0.1915767E+03  0.7818608E-02  0.1157173E+00
         21   -1    0    0  503  502  0.00000000000E+00  0.00000000000E+00  0.57506145174E+02  0.57506145174E+02  0.00000000000E+00 0. -1.
         21   -1    0    0  501  503 -0.00000000000E+00 -0.00000000000E+00 -0.65891404562E+03  0.65891404562E+03  0.00000000000E+00 0. -1.
          6    2    1    2  501    0  0.74515077807E+02  0.39664597909E+02 -0.36657564499E+03  0.41335612288E+03  0.17134702704E+03 0.  0.
         24    2    3    3    0    0  0.73149036725E+02  0.61654348753E+02 -0.15340136836E+03  0.19899479842E+03  0.83155935972E+02 0.  0.
         -6    2    1    2    0  502 -0.74515077807E+02 -0.39664597909E+02 -0.23483225546E+03  0.30306406791E+03  0.17197634695E+03 0.  0.
        -24    2    5    5    0    0 -0.10518047457E+03 -0.64551681926E+02 -0.15500301636E+03  0.21387589087E+03  0.80542595840E+02 0.  0.
          5    1    3    3  501    0  0.13660410814E+01 -0.21989750844E+02 -0.21317427663E+03  0.21436132447E+03  0.47000000000E+01 0. -1.
        -13    1    4    4    0    0  0.38341057597E+01 -0.25119753206E+01  0.95803290790E+01  0.10620409232E+02  0.00000000000E+00 0.  1.
         14    1    4    4    0    0  0.69314930965E+02  0.64166324074E+02 -0.16298169744E+03  0.18837438918E+03  0.00000000000E+00 0. -1.
         -5    1    5    5    0  502  0.30665396763E+02  0.24887084017E+02 -0.79829239097E+02  0.89188177043E+02  0.47000000000E+01 0.  1.
         13    1    6    6    0    0 -0.22276835216E+02 -0.56528558114E+02 -0.88211841184E+02  0.10711239048E+03  0.00000000000E+00 0. -1.
        -14    1    6    6    0    0 -0.82903639353E+02 -0.80231238119E+01 -0.66791175178E+02  0.10676350039E+03  0.00000000000E+00 0.  1.
</event>
<event>
12    1  0.1594973E-001  0.1852976E+03  0.7818608E-02  0.1162903E+00
         21   -1    0    0  501  502  0.00000000000E+00  0.00000000000E+00  0.88617943604E+02  0.88617943604E+02  0.00000000000E+00 0.  1.
         21   -1    0    0  502  503 -0.00000000000E+00 -0.00000000000E+00 -0.50963177641E+03  0.50963177641E+03  0.00000000000E+00 0.  1.
         -6    2    1    2    0  503 -0.68447540598E+02 -0.49438972828E+01 -0.35742778370E+03  0.40234574285E+03  0.17151667060E+03 0.  0.
        -24    2    3    3    0    0 -0.33418864683E+02 -0.40517989973E+02 -0.33355488008E+03  0.34680720007E+03  0.79106560832E+02 0.  0.
          6    2    1    2  501    0  0.68447540598E+02  0.49438972828E+01 -0.63586049103E+02  0.19590397716E+03  0.17212110473E+03 0.  0.
         24    2    5    5    0    0 -0.94579111668E+01 -0.36762893929E+02 -0.16682763611E+01  0.87901123362E+02  0.79264505856E+02 0.  0.
          5    1    5    5  501    0  0.77905451765E+02  0.41706791212E+02 -0.61917772742E+02  0.10800285380E+03  0.47000000000E+01 0. -1.
        -13    1    6    6    0    0  0.13573720617E+02  0.14880275557E+02  0.19007063253E+02  0.27693626442E+02  0.00000000000E+00 0.  1.
         14    1    6    6    0    0 -0.23031631784E+02 -0.51643169486E+02 -0.20675339614E+02  0.60207496920E+02  0.00000000000E+00 0. -1.
         -5    1    3    3    0  503 -0.35028675915E+02  0.35574092690E+02 -0.23872903626E+02  0.55538542784E+02  0.47000000000E+01 0.  1.
         13    1    4    4    0    0 -0.42407672817E+02  0.44108940999E+01 -0.22458278187E+03  0.22859416575E+03  0.00000000000E+00 0. -1.
        -14    1    4    4    0    0  0.89888081340E+01 -0.44928884073E+02 -0.10897209821E+03  0.11821303432E+03  0.00000000000E+00 0.  1.
</event>
<event>
12    1  0.1594973E-001  0.2143146E+03  0.7818608E-02  0.1138599E+00
         21   -1    0    0  501  502  0.00000000000E+00  0.00000000000E+00  0.40085462428E+02  0.40085462428E+02  0.00000000000E+00 0. -1.
         21   -1    0    0  502  503 -0.00000000000E+00 -0.00000000000E+00 -0.11843171880E+04  0.11843171880E+04  0.00000000000E+00 0. -1.
         -6    2    1    2    0  503  0.59636421438E+02  0.10971728092E+03 -0.69477050676E+03  0.72646076648E+03  0.17159488243E+03 0.  0.
        -24    2    3    3    0    0  0.91746095862E+02  0.75976263686E+02 -0.34533552994E+03  0.37390384844E+03  0.79735317686E+02 0.  0.
          6    2    1    2  501    0 -0.59636421438E+02 -0.10971728092E+03 -0.44946121880E+03  0.49794188393E+03  0.17417332769E+03 0.  0.
         24    2    5    5    0    0 -0.92202861865E+02 -0.11784342927E+03 -0.41933249577E+03  0.45259392609E+03  0.81320836021E+02 0.  0.
          5    1    5    5  501    0  0.32566440427E+02  0.81261483458E+01 -0.30128723030E+02  0.45347957842E+02  0.47000000000E+01 0. -1.
        -11    1    6    6    0    0  0.80608805884E+01  0.28471411395E+01 -0.58959196880E+01  0.10384886976E+02  0.00000000000E+00 0.  1.
         12    1    6    6    0    0 -0.10026374245E+03 -0.12069057041E+03 -0.41343657608E+03  0.44220903911E+03  0.00000000000E+00 0. -1.
         -5    1    3    3    0  503 -0.32109674424E+02  0.33741017236E+02 -0.34943497681E+03  0.35255691804E+03  0.47000000000E+01 0.  1.
         11    1    4    4    0    0  0.50130147932E+02  0.11889501311E+02 -0.22894994979E+03  0.23467524685E+03  0.00000000000E+00 0. -1.
        -12    1    4    4    0    0  0.41615947931E+02  0.64086762375E+02 -0.11638558015E+03  0.13922860159E+03  0.00000000000E+00 0.  1.
</event>
<event>
12    1  0.1594973E-001  0.2295200E+03  0.7818608E-02  0.1128074E+00
         21   -1    0    0  503  502  0.00000000000E+00  0.00000000000E+00  0.11035867424E+04  0.11035867424E+04  0.00000000000E+00 0. -1.
         21   -1    0    0  501  503 -0.00000000000E+00 -0.00000000000E+00 -0.69018539824E+02  0.69018539824E+02  0.00000000000E+00 0.  1.
          6    2    1    2  501    0 -0.13882184799E+03  0.59977459304E+02  0.85709309515E+03  0.88729250704E+03  0.17265751705E+03 0.  0.
         24    2    3    3    0    0 -0.66014619325E+02 -0.20509940522E+01  0.22350687336E+03  0.24651016333E+03  0.80310657105E+02 0.  0.
         -6    2    1    2    0  502  0.13882184799E+03 -0.59977459304E+02  0.17747510741E+03  0.28531277516E+03  0.16442981730E+03 0.  0.
        -24    2    5    5    0    0  0.88346035434E+02 -0.83793970494E+01  0.17668188767E+03  0.21297407958E+03  0.79159540592E+02 0.  0.
          5    1    3    3  501    0 -0.72807228666E+02  0.62028453357E+02  0.63358622178E+03  0.64078234371E+03  0.47000000000E+01 0. -1.
        -11    1    4    4    0    0 -0.72962110560E+01 -0.28539942546E+02  0.12775207486E+03  0.13110436929E+03  0.00000000000E+00 0.  1.
         12    1    4    4    0    0 -0.58718408269E+02  0.26488948494E+02  0.95754798505E+02  0.11540579404E+03  0.00000000000E+00 0. -1.
         -5    1    5    5    0  502  0.50475812558E+02 -0.51598062255E+02  0.79321973318E+00  0.72338695588E+02  0.47000000000E+01 0.  1.
         11    1    6    6    0    0  0.89776072337E+02 -0.30054918516E+02  0.12415744234E+03  0.15613491532E+03  0.00000000000E+00 0. -1.
        -12    1    6    6    0    0 -0.14300369035E+01  0.21675521467E+02  0.52524445330E+02  0.56839164259E+02  0.00000000000E+00 0.  1.
</event>
<event>
12    1  0.1594973E-001  0.1741234E+03  0.7818608E-02  0.1173945E+00
         21   -1    0    0  501  502  0.00000000000E+00  0.00000000000E+00  0.48687002923E+03  0.48687002923E+03  0.00000000000E+00 0. -1.
         21   -1    0    0  502  503 -0.00000000000E+00 -0.00000000000E+00 -0.66157955723E+02  0.66157955723E+02  0.00000000000E+00 0. -1.
         -6    2    1    2    0  503  0.14817596073E+02 -0.83965901123E+01  0.14019879999E+03  0.22355012693E+03  0.17328846429E+03 0.  0.
        -24    2    3    3    0    0 -0.33993159239E+02  0.71972667566E+01  0.14780679183E+02  0.87986661233E+02  0.79472313129E+02 0.  0.
          6    2    1    2  501    0 -0.14817596073E+02  0.83965901123E+01  0.28051327352E+03  0.32947785802E+03  0.17198226195E+03 0.  0.
         24    2    5    5    0    0 -0.80563872078E+01  0.71954176844E+02  0.16058764508E+03  0.19350165741E+03  0.80076155800E+02 0.  0.
          5    1    5    5  501    0 -0.67612088655E+01 -0.63557586732E+02  0.11992562844E+03  0.13597620061E+03  0.47000000000E+01 0. -1.
        -11    1    6    6    0    0 -0.43007441512E+02  0.45772106812E+02  0.11003892676E+03  0.12670158322E+03  0.00000000000E+00 0.  1.
         12    1    6    6    0    0  0.34951054304E+02  0.26182070032E+02  0.50548718320E+02  0.66800074191E+02  0.00000000000E+00 0. -1.
         -5    1    3    3    0  503  0.48810755312E+02 -0.15593856869E+02  0.12541812080E+03  0.13556346570E+03  0.47000000000E+01 0.  1.
         11    1    4    4    0    0  0.10757044801E+02  0.13066446359E+02  0.34734972495E+02  0.38638896821E+02  0.00000000000E+00 0. -1.
        -12    1    4    4    0    0 -0.44750204040E+02 -0.58691796026E+01 -0.19954293312E+02  0.49347764412E+02  0.00000000000E+00 0.  1.
</event>
<event>
12    1  0.1594973E-001  0.1941343E+03  0.7818608E-02  0.1154988E+00
         21   -1    0    0  501  502  0.00000000000E+00  0.00000000000E+00  0.28893485364E+03  0.28893485364E+03  0.00000000000E+00 0.  1.
         21   -1    0    0  502  503 -0.00000000000E+00 -0.00000000000E+00 -0.17487207672E+03  0.17487207672E+03  0.00000000000E+00 0.  1.
         -6    2    1    2    0  503  0.70646578041E+02 -0.54272324342E+02 -0.60580289814E+02  0.20336691159E+03  0.17248682569E+03 0.  0.
        -24    2    3    3    0    0 -0.20342860226E+02 -0.26109800836E+02 -0.61851363248E+02  0.10799442481E+03  0.82107557468E+02 0.  0.
          6    2    1    2  501    0 -0.70646578041E+02  0.54272324342E+02  0.17464306674E+03  0.26044001877E+03  0.17144205564E+03 0.  0.
         24    2    5    5    0    0  0.26728689686E+00  0.32809978436E+02  0.16332482009E+03  0.18534274027E+03  0.81242651268E+02 0.  0.
          5    1    5    5  501    0 -0.70913864938E+02  0.21462345906E+02  0.11318246648E+02  0.75097278509E+02  0.47000000000E+01 0. -1.
        -11    1    6    6    0    0  0.13608293868E+02 -0.19503135592E+02  0.16603500429E+02  0.29004037416E+02  0.00000000000E+00 0.  1.
         12    1    6    6    0    0 -0.13341006971E+02  0.52313114028E+02  0.14672131966E+03  0.15633870285E+03  0.00000000000E+00 0. -1.
         -5    1    3    3    0  503  0.90989438267E+02 -0.28162523506E+02  0.12710734339E+01  0.95372486777E+02  0.47000000000E+01 0.  1.
         13    1    4    4    0    0  0.11406522278E+02 -0.38789840707E+02 -0.37821698369E+01  0.40608685046E+02  0.00000000000E+00 0. -1.
        -14    1    4    4    0    0 -0.31749382504E+02  0.12680039871E+02 -0.58069193411E+02  0.67385739767E+02  0.00000000000E+00 0.  1.
</event>
<event>
12    1  0.1594973E-001  0.3590262E+03  0.7818608E-02  0.1058978E+00
         21   -1    0    0  503  502  0.00000000000E+00  0.00000000000E+00  0.12576499197E+04  0.12576499197E+04  0.00000000000E+00 0.  1.
         21   -1    0    0  501  503 -0.00000000000E+00 -0.00000000000E+00 -0.12226353153E+03  0.12226353153E+03  0.00000000000E+00 0.  1.
          6    2    1    2  501    0  0.29296055863E+02 -0.31345120445E+03  0.84524863953E+03  0.91830788791E+03  0.17243606905E+03 0.  0.
         24    2    3    3    0    0 -0.32607611899E+02 -0.86722814593E+02  0.32471336469E+03  0.34715389011E+03  0.80578851353E+02 0.  0.
         -6    2    1    2    0  502 -0.29296055863E+02  0.31345120445E+03  0.29013774860E+03  0.46160556328E+03  0.17259741141E+03 0.  0.
        -24    2    5    5    0    0  0.32788320814E+02  0.87615443240E+02  0.81598507343E+02  0.14797047912E+03  0.80532021052E+02 0.  0.
          5    1    3    3  501    0  0.61903667762E+02 -0.22672838985E+03  0.52053527484E+03  0.57115399779E+03  0.47000000000E+01 0. -1.
        -11    1    4    4    0    0 -0.37202669474E+02 -0.95598024866E+02  0.22907532438E+03  0.25099507010E+03  0.00000000000E+00 0.  1.
         12    1    4    4    0    0  0.45950575752E+01  0.88752102731E+01  0.95638040310E+02  0.96158820010E+02  0.00000000000E+00 0. -1.
         -5    1    5    5    0  502 -0.62084376677E+02  0.22583576121E+03  0.20853924126E+03  0.31363508415E+03  0.47000000000E+01 0.  1.
         13    1    6    6    0    0 -0.68139416283E+01 -0.68379281988E+01  0.33417702239E+02  0.34784046422E+02  0.00000000000E+00 0. -1.
        -14    1    6    6    0    0  0.39602262442E+02  0.94453371439E+02  0.48180805105E+02  0.11318643270E+03  0.00000000000E+00 0.  1.
</event>
<event>
12    1  0.1594973E-001  0.2018794E+03  0.7818608E-02  0.1148189E+00
         21   -1    0    0  503  502  0.00000000000E+00  0.00000000000E+00  0.12275659179E+04  0.12275659179E+04  0.00000000000E+00 0. -1.
         21   -1    0    0  501  503 -0.00000000000E+00 -0.00000000000E+00 -0.11923325536E+03  0.11923325536E+03  0.00000000000E+00 0. -1.
          6    2    1    2  501    0 -0.54437030528E+00 -0.10464232653E+03 -0.17965750134E+02  0.20255120177E+03  0.17249321239E+03 0.  0.
         24    2    3    3    0    0  0.62137093068E+02 -0.67796047387E+02 -0.34357672310E+02  0.12786921432E+03  0.81931458843E+02 0.  0.
         -6    2    1    2    0  502  0.54437030528E+00  0.10464232653E+03  0.11262984127E+04  0.11442479715E+04  0.17264122631E+03 0.  0.
        -24    2    5    5    0    0 -0.59135395548E+02  0.75445906922E+02  0.90315348700E+03  0.91137493049E+03  0.75689913246E+02 0.  0.
          5    1    3    3  501    0 -0.62681463373E+02 -0.36846279142E+02  0.16391922176E+02  0.74681987453E+02  0.47000000000E+01 0. -1.
        -13    1    4    4    0    0  0.37876364122E+02 -0.54949462215E+02  0.17674295299E+02  0.69039431278E+02  0.00000000000E+00 0.  1.
         14    1    4    4    0    0  0.24260728946E+02 -0.12846585172E+02 -0.52031967609E+02  0.58829783043E+02  0.00000000000E+00 0. -1.
         -5    1    5    5    0  502  0.59679765853E+02  0.29196419607E+02  0.22314492570E+03  0.23287304103E+03  0.47000000000E+01 0.  1.
         11    1    6    6    0    0 -0.25042106723E+02  0.75384407252E+02  0.45133573751E+03  0.45827269602E+03  0.00000000000E+00 0. -1.
        -12    1    6    6    0    0 -0.34093288826E+02  0.61499669076E-01  0.45181774949E+03  0.45310223447E+03  0.00000000000E+00 0.  1.
</event>
<event>
12    1  0.1594973E-001  0.1820013E+03  0.7818608E-02  0.1166253E+00
         21   -1    0    0  503  502  0.00000000000E+00  0.00000000000E+00  0.16920060618E+03  0.16920060618E+03  0.00000000000E+00 0.  1.
         21   -1    0    0  501  503 -0.00000000000E+00 -0.00000000000E+00 -0.22632579845E+03  0.22632579845E+03  0.00000000000E+00 0.  1.
          6    2    1    2  501    0  0.44926072060E+01 -0.59228493756E+02 -0.10329356270E+03  0.20927026218E+03  0.17203570718E+03 0.  0.
         24    2    3    3    0    0  0.32323908255E+02 -0.87500177511E+02 -0.30485528424E+02  0.12622226837E+03  0.79382475903E+02 0.  0.
         -6    2    1    2    0  502 -0.44926072060E+01  0.59228493756E+02  0.46168370440E+02  0.18625614245E+03  0.17038671949E+03 0.  0.
        -24    2    5    5    0    0 -0.47078901562E+01 -0.12673226453E+02  0.73371243619E+02  0.10923672915E+03  0.79790655511E+02 0.  0.
          5    1    3    3  501    0 -0.27831301049E+02  0.28271683754E+02 -0.72808034279E+02  0.83047993811E+02  0.47000000000E+01 0. -1.
        -13    1    4    4    0    0  0.45932566816E+02 -0.39459365442E+02  0.10705481399E+02  0.61493491911E+02  0.00000000000E+00 0.  1.
         14    1    4    4    0    0 -0.13608658560E+02 -0.48040812068E+02 -0.41191009823E+02  0.64728776462E+02  0.00000000000E+00 0. -1.
         -5    1    5    5    0  502  0.21528295027E+00  0.71901720209E+02 -0.27202873179E+02  0.77019413299E+02  0.47000000000E+01 0.  1.
         13    1    6    6    0    0 -0.14297348937E+02 -0.23546811422E+02 -0.62986427276E+01  0.28258439713E+02  0.00000000000E+00 0. -1.
        -14    1    6    6    0    0  0.95894587808E+01  0.10873584970E+02  0.79669886347E+02  0.80978289438E+02  0.00000000000E+00 0.  1.
</event>
<event>
12    1  0.1594973E-001  0.2422703E+03  0.7818608E-02  0.1118580E+00
         21   -1    0    0  503  502  0.00000000000E+00  0.00000000000E+00  0.39336196404E+02  0.39336196404E+02  0.00000000000E+00 0.  1.
         21   -1    0    0  501  503 -0.00000000000E+00 -0.00000000000E+00 -0.15681364321E+04  0.15681364321E+04  0.00000000000E+00 0.  1.
          6    2    1    2  501    0 -0.11692475217E+03 -0.12421721417E+03 -0.57793725046E+03  0.62666286208E+03  0.17202779795E+03 0.  0.
         24    2    3    3    0    0 -0.55451846850E+02 -0.10524415160E+03 -0.21687515120E+03  0.25988387588E+03  0.79709215086E+02 0.  0.
         -6    2    1    2    0  502  0.11692475217E+03  0.12421721417E+03 -0.95086298526E+03  0.98080976646E+03  0.16954665218E+03 0.  0.
        -24    2    5    5    0    0  0.11395451688E+02  0.29631052203E+02 -0.52761069103E+03  0.53443820613E+03  0.79014551220E+02 0.  0.
          5    1    3    3  501    0 -0.61472905324E+02 -0.18973062576E+02 -0.36106209926E+03  0.36677898620E+03  0.47000000000E+01 0. -1.
        -11    1    4    4    0    0 -0.40960448057E+02 -0.10435196715E+03 -0.21819183327E+03  0.24530545746E+03  0.00000000000E+00 0.  1.
         12    1    4    4    0    0 -0.14491398793E+02 -0.89218445116E+00  0.13166820688E+01  0.14578418424E+02  0.00000000000E+00 0. -1.
         -5    1    5    5    0  502  0.10552930049E+03  0.94586161972E+02 -0.42325229423E+03  0.44637156033E+03  0.47000000000E+01 0.  1.
         11    1    6    6    0    0  0.14288499104E+02 -0.97978451970E+01 -0.40989440301E+03  0.41026038146E+03  0.00000000000E+00 0. -1.
        -12    1    6    6    0    0 -0.28930474156E+01  0.39428897400E+02 -0.11771628802E+03  0.12417782467E+03  0.00000000000E+00 0.  1.
</event>
<event>
12    1  0.1594973E-001  0.2515829E+03  0.7818608E-02  0.1112340E+00
         21   -1    0    0  501  502  0.00000000000E+00  0.00000000000E+00  0.37069485800E+03  0.37069485800E+03  0.00000000000E+00 0. -1.
         21   -1    0    0  502  503 -0.00000000000E+00 -0.00000000000E+00 -0.31078156359E+03  0.31078156359E+03  0.00000000000E+00 0.  1.
         -6    2    1    2    0  503  0.86573336840E+02 -0.16181901710E+03 -0.19888837400E+03  0.32054392110E+03  0.17178906571E+03 0.  0.
        -24    2    3    3    0    0  0.61871754760E+02 -0.45025678149E+02 -0.30944696716E+02  0.11444195381E+03  0.79271437529E+02 0.  0.
          6    2    1    2  501    0 -0.86573336840E+02  0.16181901710E+03  0.25880166841E+03  0.36093250048E+03  0.17208611037E+03 0.  0.
         24    2    5    5    0    0 -0.47012870310E+02  0.16754907878E+03  0.14421936299E+03  0.23948679724E+03  0.79194681750E+02 0.  0.
          5    1    5    5  501    0 -0.39560466530E+02 -0.57300616768E+01  0.11458230543E+03  0.12144570324E+03  0.47000000000E+01 0. -1.
        -11    1    6    6    0    0  0.18098081641E+02  0.17616188886E+02  0.73860749497E+01  0.26313965362E+02  0.00000000000E+00 0.  1.
         12    1    6    6    0    0 -0.65110951951E+02  0.14993288989E+03  0.13683328804E+03  0.21317283188E+03  0.00000000000E+00 0. -1.
         -5    1    3    3    0  503  0.24701582080E+02 -0.11679333896E+03 -0.16794367728E+03  0.20610196729E+03  0.47000000000E+01 0.  1.
         11    1    4    4    0    0  0.72132723729E+02 -0.54667502683E+02 -0.12697884808E+02  0.91394211856E+02  0.00000000000E+00 0. -1.
        -12    1    4    4    0    0 -0.10260968969E+02  0.96418245349E+01 -0.18246811907E+02  0.23047741957E+02  0.00000000000E+00 0.  1.
</event>
<event>
12    1  0.1594973E-001  0.1963265E+03  0.7818608E-02  0.1153270E+00
         21   -1    0    0  503  502  0.00000000000E+00  0.00000000000E+00  0.22604774538E+03  0.22604774538E+03  0.00000000000E+00 0.  1.
         21   -1    0    0  501  503 -0.00000000000E+00 -0.00000000000E+00 -0.17502062923E+03  0.17502062923E+03  0.00000000000E+00 0.  1.
          6    2    1    2  501    0  0.32398825886E+02  0.86184673158E+02  0.63000007524E+02  0.20618704582E+03  0.17339727538E+03 0.  0.
         24    2    3    3    0    0  0.39490529221E+02  0.11386978512E+03  0.85789612449E+02  0.16933309389E+03  0.82389375644E+02 0.  0.
         -6    2    1    2    0  502 -0.32398825886E+02 -0.86184673158E+02 -0.11972891375E+02  0.19488132879E+03  0.17134147302E+03 0.  0.
        -24    2    5    5    0    0  0.46688050163E+02 -0.34262587448E+02 -0.35410283144E+01  0.99782310594E+02  0.81180488414E+02 0.  0.
          5    1    3    3  501    0 -0.70917033352E+01 -0.27685111965E+02 -0.22789604925E+02  0.36853951936E+02  0.47000000000E+01 0. -1.
        -11    1    4    4    0    0  0.25931368075E+02  0.51099283086E+02  0.88073922885E+02  0.10507420461E+03  0.00000000000E+00 0.  1.
         12    1    4    4    0    0  0.13559161146E+02  0.62770502036E+02 -0.22843104356E+01  0.64258889277E+02  0.00000000000E+00 0. -1.
         -5    1    5    5    0  502 -0.79086876049E+02 -0.51922085709E+02 -0.84318630604E+01  0.95099018198E+02  0.47000000000E+01 0.  1.
         13    1    6    6    0    0  0.36796327836E+02 -0.48210534900E+01  0.34501651745E+02  0.50671256863E+02  0.00000000000E+00 0. -1.
        -14    1    6    6    0    0  0.98917223277E+01 -0.29441533958E+02 -0.38042680060E+02  0.49111053731E+02  0.00000000000E+00 0.  1.
</event>
<event>
12    1  0.1594973E-001  0.1875296E+03  0.7818608E-02  0.1162177E+00
         21   -1    0    0  503  502  0.00000000000E+00  0.00000000000E+00  0.28409984554E+02  0.28409984554E+02  0.00000000000E+00 0. -1.
         21   -1    0    0  501  503 -0.00000000000E+00 -0.00000000000E+00 -0.12572298319E+04  0.12572298319E+04  0.00000000000E+00 0. -1.
          6    2    1    2  501    0  0.39409953695E+02 -0.68121908594E+02 -0.76540203719E+03  0.78804037512E+03  0.17021637821E+03 0.  0.
         24    2    3    3    0    0 -0.34733832397E+02 -0.61780979802E+02 -0.43349896253E+03  0.44786505361E+03  0.87398095848E+02 0.  0.
         -6    2    1    2    0  502 -0.39409953695E+02  0.68121908594E+02 -0.46341781011E+03  0.49759944128E+03  0.16326481053E+03 0.  0.
        -24    2    5    5    0    0  0.41661220929E+02  0.44672675792E+02 -0.25342958848E+03  0.27123790503E+03  0.74914214367E+02 0.  0.
          5    1    3    3  501    0  0.74143786091E+02 -0.63409287920E+01 -0.33190307466E+03  0.34017532151E+03  0.47000000000E+01 0. -1.
        -11    1    4    4    0    0 -0.54684391513E+01  0.14028687744E+02 -0.20120149986E+03  0.20176409852E+03  0.00000000000E+00 0.  1.
         12    1    4    4    0    0 -0.29265393245E+02 -0.75809667546E+02 -0.23229746267E+03  0.24610095509E+03  0.00000000000E+00 0. -1.
         -5    1    5    5    0  502 -0.81071174624E+02  0.23449232802E+02 -0.20998822163E+03  0.22636153626E+03  0.47000000000E+01 0.  1.
         13    1    6    6    0    0  0.66402768464E+01  0.52476670297E+02 -0.20001695657E+03  0.20689291219E+03  0.00000000000E+00 0. -1.
        -14    1    6    6    0    0  0.35020944083E+02 -0.78039945048E+01 -0.53412631915E+02  0.64344992834E+02  0.00000000000E+00 0.  1.
</event>
<event>
12    1  0.1594973E-001  0.1922692E+03  0.7818608E-02  0.1157156E+00
         21   -1    0    0  503  502  0.00000000000E+00  0.00000000000E+00  0.20133922277E+03  0.20133922277E+03  0.00000000000E+00 0.  1.
         21   -1    0    0  501  503 -0.00000000000E+00 -0.00000000000E+00 -0.19231163632E+03  0.19231163632E+03  0.00000000000E+00 0. -1.
          6    2    1    2  501    0  0.75878882621E+02 -0.27462131733E+02 -0.44168164176E+02  0.19727716383E+03  0.17451555557E+03 0.  0.
         24    2    3    3    0    0 -0.18433282651E+02  0.25807925849E+02 -0.18255626182E+02  0.85805045444E+02  0.77610585556E+02 0.  0.
         -6    2    1    2    0  502 -0.75878882621E+02  0.27462131733E+02  0.53195750625E+02  0.19637369525E+03  0.17094170583E+03 0.  0.
        -24    2    5    5    0    0 -0.62886209891E+02  0.63844670909E+01 -0.32536427435E+02  0.10701389530E+03  0.79986985585E+02 0.  0.
          5    1    3    3  501    0  0.94312165272E+02 -0.53270057582E+02 -0.25912537994E+02  0.11147211839E+03  0.47000000000E+01 0. -1.
        -13    1    4    4    0    0  0.41717741663E+01 -0.22998745716E+02  0.95570433201E+01  0.25252387634E+02  0.00000000000E+00 0.  1.
         14    1    4    4    0    0 -0.22605056818E+02  0.48806671565E+02 -0.27812669502E+02  0.60552657809E+02  0.00000000000E+00 0. -1.
         -5    1    5    5    0  502 -0.12992672730E+02  0.21077664642E+02  0.85732178060E+02  0.89359799945E+02  0.47000000000E+01 0.  1.
         11    1    6    6    0    0 -0.31852310179E+02  0.41304636540E+02 -0.30125099606E+02  0.60234245158E+02  0.00000000000E+00 0. -1.
        -12    1    6    6    0    0 -0.31033899712E+02 -0.34920169449E+02 -0.24113278283E+01  0.46779650144E+02  0.00000000000E+00 0.  1.
</event>
<event>
12    1  0.1594973E-001  0.2190869E+03  0.7818608E-02  0.1136450E+00
         21   -1    0    0  503  502  0.00000000000E+00  0.00000000000E+00  0.10266565148E+04  0.10266565148E+04  0.00000000000E+00 0. -1.
         21   -1    0    0  501  503 -0.00000000000E+00 -0.00000000000E+00 -0.48683631212E+02  0.48683631212E+02  0.00000000000E+00 0. -1.
          6    2    1    2  501    0  0.39798959728E+02  0.12902606554E+03  0.63280556911E+03  0.66651312125E+03  0.15989111833E+03 0.  0.
         24    2    3    3    0    0 -0.92324904613E+01  0.12951241972E+03  0.38151019789E+03  0.41043545092E+03  0.77772247831E+02 0.  0.
         -6    2    1    2    0  502 -0.39798959728E+02 -0.12902606554E+03  0.34516731445E+03  0.40882702473E+03  0.17253225322E+03 0.  0.
        -24    2    5    5    0    0 -0.13801445482E+02 -0.15599265330E+03  0.31195958812E+03  0.35854869252E+03  0.81940176380E+02 0.  0.
          5    1    3    3  501    0  0.49031450189E+02 -0.48635417930E+00  0.25129537122E+03  0.25607767034E+03  0.47000000000E+01 0. -1.
        -13    1    4    4    0    0 -0.37567985825E+02  0.44760335714E+02  0.10942927050E+03  0.12405485260E+03  0.00000000000E+00 0.  1.
         14    1    4    4    0    0  0.28335495363E+02  0.84752084004E+02  0.27208092739E+03  0.28638059831E+03  0.00000000000E+00 0. -1.
         -5    1    5    5    0  502 -0.25997514246E+02  0.26966587758E+02  0.33207726328E+02  0.50278332213E+02  0.47000000000E+01 0.  1.
         11    1    6    6    0    0 -0.31226855869E+02 -0.13267211003E+03  0.19428171033E+03  0.23732338334E+03  0.00000000000E+00 0. -1.
        -12    1    6    6    0    0  0.17425410387E+02 -0.23320543263E+02  0.11767787779E+03  0.12122530918E+03  0.00000000000E+00 0.  1.
</event>
<event>
12    1  0.1594973E-001  0.1783763E+03  0.7818608E-02  0.1169415E+00
         21   -1    0    0  503  502  0.00000000000E+00  0.00000000000E+00  0.11249783477E+03  0.11249783477E+03  0.00000000000E+00 0.  1.
         21   -1    0    0  501  503 -0.00000000000E+00 -0.00000000000E+00 -0.40991557474E+03  0.40991557474E+03  0.00000000000E+00 0.  1.
          6    2    1    2  501    0 -0.86116232640E+01  0.45352205677E+02 -0.29422703546E+03  0.34400859248E+03  0.17216672352E+03 0.  0.
         24    2    3    3    0    0  0.61173714247E+02  0.39236700330E+02 -0.19146403128E+03  0.21955089780E+03  0.79135197490E+02 0.  0.
         -6    2    1    2    0  502  0.86116232640E+01 -0.45352205677E+02 -0.31907045121E+01  0.17840481704E+03  0.17229949371E+03 0.  0.
        -24    2    5    5    0    0  0.50175527455E+02  0.16840363297E+02 -0.28030057197E+02  0.99445604728E+02  0.79388681824E+02 0.  0.
          5    1    3    3  501    0 -0.69785337511E+02  0.61155053473E+01 -0.10276300417E+03  0.12445769468E+03  0.47000000000E+01 0. -1.
        -13    1    4    4    0    0  0.18780046079E+02  0.49953326748E+02 -0.15031190835E+03  0.15950452901E+03  0.00000000000E+00 0.  1.
         14    1    4    4    0    0  0.42393668169E+02 -0.10716626418E+02 -0.41152122935E+02  0.60046368788E+02  0.00000000000E+00 0. -1.
         -5    1    5    5    0  502 -0.41563904191E+02 -0.62192568974E+02  0.24839352685E+02  0.78959212313E+02  0.47000000000E+01 0.  1.
         13    1    6    6    0    0  0.89393646073E+01  0.41353840029E+02  0.28317447525E+01  0.42403668510E+02  0.00000000000E+00 0. -1.
        -14    1    6    6    0    0  0.41236162847E+02 -0.24513476732E+02 -0.30861801950E+02  0.57041936218E+02  0.00000000000E+00 0.  1.
</event>
<event>
12    1  0.1594973E-001  0.1769446E+03  0.7818608E-02  0.1171973E+00
         21   -1    0    0  501  502  0.00000000000E+00  0.00000000000E+00  0.77210393922E+02  0.77210393922E+02  0.00000000000E+00 0.  1.
         21   -1    0    0  502  503 -0.00000000000E+00 -0.00000000000E+00 -0.68820359679E+03  0.68820359679E+03  0.00000000000E+00 0.  1.
         -6    2    1    2    0  503  0.38645661169E+02  0.23778386795E+02 -0.55772509204E+03  0.58512106799E+03  0.17102773783E+03 0.  0.
        -24    2    3    3    0    0 -0.69106354619E+01 -0.31180055402E+02 -0.16339694989E+03  0.18435607423E+03  0.79174782185E+02 0.  0.
          6    2    1    2  501    0 -0.38645661169E+02 -0.23778386795E+02 -0.53268110833E+02  0.18029292273E+03  0.16616000587E+03 0.  0.
         24    2    5    5    0    0  0.85269414368E+01  0.40332682767E+02 -0.49923471493E+02  0.10048840977E+03  0.76851372545E+02 0.  0.
          5    1    5    5  501    0 -0.47172602606E+02 -0.64111069562E+02 -0.33446393400E+01  0.79804512963E+02  0.47000000000E+01 0. -1.
        -11    1    6    6    0    0 -0.29534310434E+02 -0.87484053927E+00 -0.84675748254E+01  0.30736633879E+02  0.00000000000E+00 0.  1.
         12    1    6    6    0    0  0.38061251871E+02  0.41207523306E+02 -0.41455896668E+02  0.69751775888E+02  0.00000000000E+00 0. -1.
         -5    1    3    3    0  503  0.45556296631E+02  0.54958442197E+02 -0.39432814215E+03  0.40076499376E+03  0.47000000000E+01 0.  1.
         11    1    4    4    0    0 -0.29579027950E+02  0.99764854572E+00 -0.20160676646E+02  0.35810153307E+02  0.00000000000E+00 0. -1.
        -12    1    4    4    0    0  0.22668392488E+02 -0.32177703948E+02 -0.14323627324E+03  0.14854592092E+03  0.00000000000E+00 0.  1.
</event>
<event>
12    1  0.1594973E-001  0.1876469E+03  0.7818608E-02  0.1161684E+00
         21   -1    0    0  501  502  0.00000000000E+00  0.00000000000E+00  0.31064266154E+03  0.31064266154E+03  0.00000000000E+00 0. -1.
         21   -1    0    0  502  503 -0.00000000000E+00 -0.00000000000E+00 -0.11448778430E+03  0.11448778430E+03  0.00000000000E+00 0. -1.
         -6    2    1    2    0  503 -0.74190057730E+02 -0.16677780612E+02  0.13629987983E+03  0.22816861274E+03  0.16643601043E+03 0.  0.
        -24    2    3    3    0    0 -0.87742383668E+02 -0.50178981889E+01  0.15927375645E+03  0.19868120181E+03  0.79888580319E+02 0.  0.
          6    2    1    2  501    0  0.74190057730E+02  0.16677780612E+02  0.59854997411E+02  0.19696183310E+03  0.17154891416E+03 0.  0.
         24    2    5    5    0    0  0.12577856392E+02 -0.14627397145E+02 -0.25307646643E+02  0.87185499356E+02  0.81170629545E+02 0.  0.
          5    1    5    5  501    0  0.61612201338E+02  0.31305177757E+02  0.85162644054E+02  0.10977633374E+03  0.47000000000E+01 0. -1.
        -13    1    6    6    0    0  0.13382835676E+02  0.32984059647E+02 -0.77206914022E+01  0.36423310631E+02  0.00000000000E+00 0.  1.
         14    1    6    6    0    0 -0.80497928435E+00 -0.47611456792E+02 -0.17586955241E+02  0.50762188725E+02  0.00000000000E+00 0. -1.
         -5    1    3    3    0  503  0.13552325938E+02 -0.11659882423E+02 -0.22973876620E+02  0.29487410931E+02  0.47000000000E+01 0.  1.
         13    1    4    4    0    0 -0.99684271338E+02 -0.15322373061E+02  0.14875879044E+03  0.17972453033E+03  0.00000000000E+00 0. -1.
        -14    1    4    4    0    0  0.11941887669E+02  0.10304474872E+02  0.10514966005E+02  0.18956671480E+02  0.00000000000E+00 0.  1.
</event>
<event>
12    1  0.1594973E-001  0.1890068E+03  0.7818608E-02  0.1159409E+00
         21   -1    0    0  503  502  0.00000000000E+00  0.00000000000E+00  0.70965653143E+03  0.70965653143E+03  0.00000000000E+00 0. -1.
         21   -1    0    0  501  503 -0.00000000000E+00 -0.00000000000E+00 -0.54039052449E+03  0.54039052449E+03  0.00000000000E+00 0. -1.
          6    2    1    2  501    0 -0.48937233262E+01 -0.77555570648E+02 -0.51060701650E+03  0.54439069735E+03  0.17205490694E+03 0.  0.
         24    2    3    3    0    0  0.22493120223E+02  0.22077020884E+02 -0.22445106520E+03  0.24011448902E+03  0.79267596529E+02 0.  0.
         -6    2    1    2    0  502  0.48937233262E+01  0.77555570648E+02  0.67987302343E+03  0.70565635856E+03  0.17229263864E+03 0.  0.
        -24    2    5    5    0    0  0.38022007050E+02  0.10534406027E+03  0.39667649353E+03  0.41913925979E+03  0.76042320654E+02 0.  0.
          5    1    3    3  501    0 -0.27386843550E+02 -0.99632591533E+02 -0.28615595130E+03  0.30427620833E+03  0.47000000000E+01 0. -1.
        -11    1    4    4    0    0  0.14903911396E+01  0.39374995224E+02 -0.50526548518E+02  0.64074516150E+02  0.00000000000E+00 0.  1.
         12    1    4    4    0    0  0.21002729084E+02 -0.17297974340E+02 -0.17392451668E+03  0.17603997287E+03  0.00000000000E+00 0. -1.
         -5    1    5    5    0  502 -0.33128283724E+02 -0.27788489623E+02  0.28319652990E+03  0.28651709877E+03  0.47000000000E+01 0.  1.
         11    1    6    6    0    0  0.26072933437E+02  0.11032008817E+03  0.38618124209E+03  0.40247518116E+03  0.00000000000E+00 0. -1.
        -12    1    6    6    0    0  0.11949073613E+02 -0.49760278987E+01  0.10495251437E+02  0.16664078630E+02  0.00000000000E+00 0.  1.
</event>
<event>
12    1  0.1594973E-001  0.2121215E+03  0.7818608E-02  0.1139998E+00
         21   -1    0    0  501  502  0.00000000000E+00  0.00000000000E+00  0.81744763583E+03  0.81744763583E+03  0.00000000000E+00 0.  1.
         21   -1    0    0  502  503 -0.00000000000E+00 -0.00000000000E+00 -0.92379880833E+02  0.92379880833E+02  0.00000000000E+00 0.  1.
         -6    2    1    2    0  503  0.11549921673E+03 -0.41364185841E+02  0.72546926211E+02  0.22369417838E+03  0.17240929210E+03 0.  0.
        -24    2    3    3    0    0  0.11622494363E+03 -0.49687908137E+02  0.10900959343E+03  0.18599235968E+03  0.82054498131E+02 0.  0.
          6    2    1    2  501    0 -0.11549921673E+03  0.41364185841E+02  0.65252082879E+03  0.68613333828E+03  0.17304467910E+03 0.  0.
         24    2    5    5    0    0 -0.36181437188E+02  0.70091135244E+02  0.49437890120E+03  0.50683607942E+03  0.79059786335E+02 0.  0.
          5    1    5    5  501    0 -0.79317779543E+02 -0.28726949402E+02  0.15814192759E+03  0.17929725886E+03  0.47000000000E+01 0. -1.
        -13    1    6    6    0    0 -0.47874832380E+02  0.10729029153E+02  0.27116646567E+03  0.27556916327E+03  0.00000000000E+00 0.  1.
         14    1    6    6    0    0  0.11693395192E+02  0.59362106091E+02  0.22321243553E+03  0.23126691615E+03  0.00000000000E+00 0. -1.
         -5    1    3    3    0  503 -0.72572689842E+00  0.83237222960E+01 -0.36462667221E+02  0.37701818699E+02  0.47000000000E+01 0.  1.
         11    1    4    4    0    0 -0.32225073449E+01 -0.10262150188E+02  0.42231146035E+02  0.43579421469E+02  0.00000000000E+00 0. -1.
        -12    1    4    4    0    0  0.11944745097E+03 -0.39425757949E+02  0.66778447396E+02  0.14241293821E+03  0.00000000000E+00 0.  1.
</event>
<event>
12    1  0.1594973E-001  0.1973546E+03  0.7818608E-02  0.1152118E+00
         21   -1    0    0  503  502  0.00000000000E+00  0.00000000000E+00  0.70360028885E+02  0.70360028885E+02  0.00000000000E+00 0. -1.
         21   -1    0    0  501  503 -0.00000000000E+00 -0.00000000000E+00 -0.84573360610E+03  0.84573360610E+03  0.00000000000E+00 0. -1.
          6    2    1    2  501    0  0.60933919801E+02 -0.74340827052E+02 -0.65805110393E+03  0.68700807193E+03  0.17236395899E+03 0.  0.
         24    2    3    3    0    0  0.70118396817E+02 -0.42560511403E+02 -0.22193684594E+03  0.24961570905E+03  0.79523907824E+02 0.  0.
         -6    2    1    2    0  502 -0.60933919801E+02  0.74340827052E+02 -0.11732247329E+03  0.22908556306E+03  0.17168614189E+03 0.  0.
        -24    2    5    5    0    0 -0.70351341971E+02  0.56792703550E+02 -0.11545103536E+02  0.12134714637E+03  0.80106916203E+02 0.  0.
          5    1    3    3  501    0 -0.91844770165E+01 -0.31780315650E+02 -0.43611425799E+03  0.43739236288E+03  0.47000000000E+01 0. -1.
        -13    1    4    4    0    0 -0.38595718894E+01 -0.28334457434E+02 -0.11696321891E+03  0.12040819055E+03  0.00000000000E+00 0.  1.
         14    1    4    4    0    0  0.73977968707E+02 -0.14226053968E+02 -0.10497362703E+03  0.12920751850E+03  0.00000000000E+00 0. -1.
         -5    1    5    5    0  502  0.94174221698E+01  0.17548123502E+02 -0.10577736975E+03  0.10773841669E+03  0.47000000000E+01 0.  1.
         13    1    6    6    0    0 -0.56087323704E+02  0.59952673904E+02 -0.38507870919E+02  0.90680577365E+02  0.00000000000E+00 0. -1.
        -14    1    6    6    0    0 -0.14264018267E+02 -0.31599703536E+01  0.26962767384E+02  0.30666569008E+02  0.00000000000E+00 0.  1.
</event>
<event>
12    1  0.1594973E-001  0.2070383E+03  0.7818608E-02  0.1144165E+00
         21   -1    0    0  501  502  0.00000000000E+00  0.00000000000E+00  0.51902992030E+03  0.51902992030E+03  0.00000000000E+00 0.  1.
         21   -1    0    0  502  503 -0.00000000000E+00 -0.00000000000E+00 -0.13501780690E+03  0.13501780690E+03  0.00000000000E+00 0. -1.
         -6    2    1    2    0  503  0.73777758564E+02 -0.81384307723E+02 -0.12991761153E+02  0.20630122511E+03  0.17414030671E+03 0.  0.
        -24    2    3    3    0    0  0.14090782649E+02 -0.98014542815E+02 -0.47020179854E+02  0.13545545535E+03  0.79573125560E+02 0.  0.
          6    2    1    2  501    0 -0.73777758564E+02  0.81384307723E+02  0.39700387455E+03  0.44774650210E+03  0.17549441737E+03 0.  0.
         24    2    5    5    0    0 -0.25474673245E+02  0.68673837188E+02  0.10112433016E+03  0.14764395479E+03  0.78788021575E+02 0.  0.
          5    1    5    5  501    0 -0.48303085319E+02  0.12710470534E+02  0.29587954439E+03  0.30010254731E+03  0.47000000000E+01 0. -1.
        -13    1    6    6    0    0 -0.25921182232E+02  0.17053851541E+02  0.89504895752E+02  0.94730501447E+02  0.00000000000E+00 0.  1.
         14    1    6    6    0    0  0.44650898717E+00  0.51619985647E+02  0.11619434408E+02  0.52913453341E+02  0.00000000000E+00 0. -1.
         -5    1    3    3    0  503  0.59686975915E+02  0.16630235092E+02  0.34028418701E+02  0.70845769757E+02  0.47000000000E+01 0.  1.
         13    1    4    4    0    0  0.57263645910E+01 -0.11590208219E+02 -0.46877269415E+02  0.48627179291E+02  0.00000000000E+00 0. -1.
        -14    1    4    4    0    0  0.83644180576E+01 -0.86424334596E+02 -0.14291043923E+00  0.86828276058E+02  0.00000000000E+00 0.  1.
</event>
<event>
12    1  0.1594973E-001  0.2044925E+03  0.7818608E-02  0.1146348E+00
         21   -1    0    0  503  502  0.00000000000E+00  0.00000000000E+00  0.98847788021E+03  0.98847788021E+03  0.00000000000E+00 0.  1.
         21   -1    0    0  501  503 -0.00000000000E+00 -0.00000000000E+00 -0.42355521021E+02  0.42355521021E+02  0.00000000000E+00 0. -1.
          6    2    1    2  501    0 -0.10250973445E+03 -0.30828920501E+02  0.52487922576E+03  0.56330754915E+03  0.17423698030E+03 0.  0.
         24    2    3    3    0    0 -0.17406123655E+01 -0.62581863125E+02  0.25313522408E+03  0.27170926764E+03  0.76347659625E+02 0.  0.
         -6    2    1    2    0  502  0.10250973445E+03  0.30828920501E+02  0.42124313344E+03  0.46752585208E+03  0.17226716722E+03 0.  0.
        -24    2    5    5    0    0  0.13814886060E+03  0.42406702774E+02  0.34424829058E+03  0.38176753948E+03  0.79725356724E+02 0.  0.
          5    1    3    3  501    0 -0.10076912208E+03  0.31752942623E+02  0.27174400168E+03  0.29159828151E+03  0.47000000000E+01 0. -1.
        -13    1    4    4    0    0  0.34535100895E+02 -0.48641857617E+02  0.16197559928E+03  0.17261169795E+03  0.00000000000E+00 0.  1.
         14    1    4    4    0    0 -0.36275713260E+02 -0.13940005508E+02  0.91159624795E+02  0.99097569692E+02  0.00000000000E+00 0. -1.
         -5    1    5    5    0  502 -0.35639126149E+02 -0.11577782273E+02  0.76994842853E+02  0.85758312606E+02  0.47000000000E+01 0.  1.
         13    1    6    6    0    0  0.15901843425E+02  0.85026283071E+01  0.37689209254E+01  0.18421945538E+02  0.00000000000E+00 0. -1.
        -14    1    6    6    0    0  0.12224701717E+03  0.33904074467E+02  0.34047936966E+03  0.36334559394E+03  0.00000000000E+00 0.  1.
</event>
<event>
12    1  0.1594973E-001  0.2081679E+03  0.7818608E-02  0.1143115E+00
         21   -1    0    0  503  502  0.00000000000E+00  0.00000000000E+00  0.21064951615E+03  0.21064951615E+03  0.00000000000E+00 0. -1.
         21   -1    0    0  501  503 -0.00000000000E+00 -0.00000000000E+00 -0.20582729146E+03  0.20582729146E+03  0.00000000000E+00 0. -1.
          6    2    1    2  501    0  0.85049553490E+02  0.79690960031E+02  0.13217747599E+02  0.20858709533E+03  0.17248127964E+03 0.  0.
         24    2    3    3    0    0  0.33830690039E+02 -0.25150281270E+02  0.16097070072E+02  0.91773404567E+02  0.79913640165E+02 0.  0.
         -6    2    1    2    0  502 -0.85049553490E+02 -0.79690960031E+02 -0.83955229106E+01  0.20788971228E+03  0.17194060605E+03 0.  0.
        -24    2    5    5    0    0 -0.10707325443E+03 -0.81845576612E+02  0.34025604951E+02  0.15981344096E+03  0.78861992707E+02 0.  0.
          5    1    3    3  501    0  0.51218863451E+02  0.10484124130E+03 -0.28793224733E+01  0.11681369076E+03  0.47000000000E+01 0. -1.
        -11    1    4    4    0    0  0.54989079665E+02  0.53993433785E+00  0.19434553338E+02  0.58324885555E+02  0.00000000000E+00 0.  1.
         12    1    4    4    0    0 -0.21158389626E+02 -0.25690215608E+02 -0.33374832661E+01  0.33448519012E+02  0.00000000000E+00 0. -1.
         -5    1    5    5    0  502  0.22023700937E+02  0.21546165806E+01 -0.42421127861E+02  0.48076271326E+02  0.47000000000E+01 0.  1.
         11    1    6    6    0    0 -0.58818802535E+02 -0.67066911268E+02 -0.13821984528E+02  0.90269980476E+02  0.00000000000E+00 0. -1.
        -12    1    6    6    0    0 -0.48254451892E+02 -0.14778665343E+02  0.47847589479E+02  0.69543460481E+02  0.00000000000E+00 0.  1.
</event>
<event>
12    1  0.1594973E-001  0.1818878E+03  0.7818608E-02  0.1167198E+00
         21   -1    0    0  503  502  0.00000000000E+00  0.00000000000E+00  0.23549795934E+03  0.23549795934E+03  0.00000000000E+00 0.  1.
         21   -1    0    0  501  503 -0.00000000000E+00 -0.00000000000E+00 -0.21195197179E+03  0.21195197179E+03  0.00000000000E+00 0.  1.
          6    2    1    2  501    0  0.29242618398E+02 -0.28547014190E+02 -0.12146310632E+03  0.21871550275E+03  0.17723747402E+03 0.  0.
         24    2    3    3    0    0 -0.28977465277E+02  0.32581371202E+02 -0.32644096559E+02  0.96089387512E+02  0.79159927419E+02 0.  0.
         -6    2    1    2    0  502 -0.29242618398E+02  0.28547014190E+02  0.14500909387E+03  0.22873442837E+03  0.17210967046E+03 0.  0.
        -24    2    5    5    0    0 -0.43072382803E+02 -0.44829807711E+02  0.76537831401E+02  0.12731537612E+03  0.80537094189E+02 0.  0.
          5    1    3    3  501    0  0.58220083675E+02 -0.61128385392E+02 -0.88819009761E+02  0.12262611524E+03  0.47000000000E+01 0. -1.
        -11    1    4    4    0    0  0.52103434498E+00  0.11422968618E+02 -0.53170368598E+02  0.54386062421E+02  0.00000000000E+00 0.  1.
         12    1    4    4    0    0 -0.29498499622E+02  0.21158402583E+02  0.20526272039E+02  0.41703325091E+02  0.00000000000E+00 0. -1.
         -5    1    5    5    0  502  0.13829764405E+02  0.73376821902E+02  0.68471262471E+02  0.10141905225E+03  0.47000000000E+01 0.  1.
         11    1    6    6    0    0 -0.49198784254E+02 -0.96516778487E+01  0.90266782637E+01  0.50942675409E+02  0.00000000000E+00 0. -1.
        -12    1    6    6    0    0  0.61264014514E+01 -0.35178129863E+02  0.67511153137E+02  0.76372700707E+02  0.00000000000E+00 0.  1.
</event>
<event>
12    1  0.1594973E-001  0.2351302E+03  0.7818608E-02  0.1123187E+00
         21   -1    0    0  501  502  0.00000000000E+00  0.00000000000E+00  0.13554004178E+03  0.13554004178E+03  0.00000000000E+00 0. -1.
         21   -1    0    0  502  503 -0.00000000000E+00 -0.00000000000E+00 -0.42166388645E+03  0.42166388645E+03  0.00000000000E+00 0.  1.
         -6    2    1    2    0  503 -0.13823966427E+03 -0.78615072133E+02 -0.19553028008E+03  0.30580763619E+03  0.17319262566E+03 0.  0.
        -24    2    3    3    0    0 -0.14932508344E+03 -0.10623976496E+03 -0.19151040805E+03  0.27540599901E+03  0.74748643440E+02 0.  0.
          6    2    1    2  501    0  0.13823966427E+03  0.78615072133E+02 -0.90593564594E+02  0.25139629204E+03  0.17234374768E+03 0.  0.
         24    2    5    5    0    0  0.10304354626E+03  0.10958625402E+03 -0.26844718097E+02  0.17212469398E+03  0.79241099761E+02 0.  0.
          5    1    5    5  501    0  0.35196118004E+02 -0.30971181885E+02 -0.63748846497E+02  0.79271598064E+02  0.47000000000E+01 0. -1.
        -13    1    6    6    0    0 -0.82513357116E+01  0.28603454401E+02 -0.16645364194E+02  0.34107334898E+02  0.00000000000E+00 0.  1.
         14    1    6    6    0    0  0.11129488197E+03  0.80982799617E+02 -0.10199353903E+02  0.13801735908E+03  0.00000000000E+00 0. -1.
         -5    1    3    3    0  503  0.11085419170E+02  0.27624692828E+02 -0.40198720245E+01  0.30401637178E+02  0.47000000000E+01 0.  1.
         13    1    4    4    0    0 -0.44516384282E+02  0.51666377066E+01 -0.39040990897E+02  0.59435692853E+02  0.00000000000E+00 0. -1.
        -14    1    4    4    0    0 -0.10480869915E+03 -0.11140640267E+03 -0.15246941716E+03  0.21597030616E+03  0.00000000000E+00 0.  1.
</event>
<event>
12    1  0.1594973E-001  0.2079103E+03  0.7818608E-02  0.1143459E+00
         21   -1    0    0  503  502  0.00000000000E+00  0.00000000000E+00  0.21657119089E+03  0.21657119089E+03  0.00000000000E+00 0.  1.
         21   -1    0    0  501  503 -0.00000000000E+00 -0.00000000000E+00 -0.19872167268E+03  0.19872167268E+03  0.00000000000E+00 0.  1.
          6    2    1    2  501    0  0.49600531091E+02 -0.10596085526E+03  0.21559247700E+01  0.20679108027E+03  0.17049922971E+03 0.  0.
         24    2    3    3    0    0  0.88626700207E+02 -0.59060959055E+02 -0.27332838146E+02  0.13886229934E+03  0.84810171925E+02 0.  0.
         -6    2    1    2    0  502 -0.49600531091E+02  0.10596085526E+03  0.15693593440E+02  0.20850178331E+03  0.17186852310E+03 0.  0.
        -24    2    5    5    0    0 -0.80068961209E+02  0.12721737000E+03  0.16310483225E+02  0.17105001158E+03  0.79979852573E+02 0.  0.
          5    1    3    3  501    0 -0.39026169116E+02 -0.46899896210E+02  0.29488762916E+02  0.67928780930E+02  0.47000000000E+01 0. -1.
        -11    1    4    4    0    0  0.52197683172E+02 -0.75240327851E+02 -0.35428796227E+02  0.98188108576E+02  0.00000000000E+00 0.  1.
         12    1    4    4    0    0  0.36429017035E+02  0.16179368796E+02  0.80959580810E+01  0.40674190761E+02  0.00000000000E+00 0. -1.
         -5    1    5    5    0  502  0.30468430118E+02 -0.21256514739E+02 -0.61688978500E+00  0.37451771730E+02  0.47000000000E+01 0.  1.
         11    1    6    6    0    0 -0.29371365926E+02 -0.31995394159E+01 -0.34162688631E+01  0.29741975082E+02  0.00000000000E+00 0. -1.
        -12    1    6    6    0    0 -0.50697595283E+02  0.13041690942E+03  0.19726752088E+02  0.14130803649E+03  0.00000000000E+00 0.  1.
</event>
<event>
12    1  0.1594973E-001  0.2130120E+03  0.7818608E-02  0.1139513E+00
         21   -1    0    0  503  502  0.00000000000E+00  0.00000000000E+00  0.13058922937E+04  0.13058922937E+04  0.00000000000E+00 0. -1.
         21   -1    0    0  501  503 -0.00000000000E+00 -0.00000000000E+00 -0.38452335900E+02  0.38452335900E+02  0.00000000000E+00 0.  1.
          6    2    1    2  501    0 -0.11261207869E+03 -0.46100291759E+02  0.41999031124E+03  0.47092033327E+03  0.17483529843E+03 0.  0.
         24    2    3    3    0    0 -0.10660351763E+03 -0.80140619759E+00  0.39847193478E+03  0.42019339403E+03  0.80110257460E+02 0.  0.
         -6    2    1    2    0  502  0.11261207869E+03  0.46100291759E+02  0.84744964660E+03  0.87342429638E+03  0.17289413180E+03 0.  0.
        -24    2    5    5    0    0  0.55666382122E+02  0.66271066102E+02  0.74756166539E+03  0.75659377260E+03  0.78071075816E+02 0.  0.
          5    1    3    3  501    0 -0.60085610667E+01 -0.45298885561E+02  0.21518376459E+02  0.50726939240E+02  0.47000000000E+01 0. -1.
        -13    1    4    4    0    0 -0.55524927147E+02 -0.37157667918E+02  0.25526619893E+03  0.26386462843E+03  0.00000000000E+00 0.  1.
         14    1    4    4    0    0 -0.51078590479E+02  0.36356261720E+02  0.14320573585E+03  0.15632876560E+03  0.00000000000E+00 0. -1.
         -5    1    5    5    0  502  0.56945696570E+02 -0.20170774343E+02  0.99887981216E+02  0.11683052378E+03  0.47000000000E+01 0.  1.
         13    1    6    6    0    0  0.63055177380E+02  0.24897812258E+02  0.57524258800E+03  0.57922352464E+03  0.00000000000E+00 0. -1.
        -14    1    6    6    0    0 -0.73887952576E+01  0.41373253844E+02  0.17231907739E+03  0.17737024796E+03  0.00000000000E+00 0.  1.
</event>
<event>
12    1  0.1594973E-001  0.2048430E+03  0.7818608E-02  0.1145740E+00
         21   -1    0    0  503  502  0.00000000000E+00  0.00000000000E+00  0.22054868714E+03  0.22054868714E+03  0.00000000000E+00 0. -1.
         21   -1    0    0  501  503 -0.00000000000E+00 -0.00000000000E+00 -0.30153662899E+03  0.30153662899E+03  0.00000000000E+00 0.  1.
          6    2    1    2  501    0  0.11057183759E+03  0.64256954540E+01 -0.19916005489E+03  0.28570153786E+03  0.17231720878E+03 0.  0.
         24    2    3    3    0    0  0.13352739190E+02 -0.35844454257E+02 -0.45017239219E+02  0.98564111688E+02  0.78900011034E+02 0.  0.
         -6    2    1    2    0  502 -0.11057183759E+03 -0.64256954540E+01  0.11817211304E+03  0.23638377827E+03  0.17217787749E+03 0.  0.
        -24    2    5    5    0    0 -0.42431020308E+02 -0.52799728927E+01  0.13923355956E+03  0.16489840781E+03  0.77312555193E+02 0.  0.
          5    1    3    3  501    0  0.97219098398E+02  0.42270149711E+02 -0.15414281567E+03  0.18713742617E+03  0.47000000000E+01 0. -1.
        -13    1    4    4    0    0  0.32866905231E+02  0.12038386482E+02 -0.25460416974E+02  0.43282664440E+02  0.00000000000E+00 0.  1.
         14    1    4    4    0    0 -0.19514166040E+02 -0.47882840740E+02 -0.19556822246E+02  0.55281447249E+02  0.00000000000E+00 0. -1.
         -5    1    5    5    0  502 -0.68140817280E+02 -0.11457225613E+01 -0.21061446526E+02  0.71485370458E+02  0.47000000000E+01 0.  1.
         13    1    6    6    0    0 -0.32247164769E+02  0.30441326349E+02  0.43106418730E+02  0.61844299019E+02  0.00000000000E+00 0. -1.
        -14    1    6    6    0    0 -0.10183855539E+02 -0.35721299241E+02  0.96127140835E+02  0.10305410879E+03  0.00000000000E+00 0.  1.
</event>
<event>
12    1  0.1594973E-001  0.1764408E+03  0.7818608E-02  0.1171571E+00
         21   -1    0    0  501  502  0.00000000000E+00  0.00000000000E+00  0.57675870084E+02  0.57675870084E+02  0.00000000000E+00 0.  1.
         21   -1    0    0  502  503 -0.00000000000E+00 -0.00000000000E+00 -0.57860774665E+03  0.57860774665E+03  0.00000000000E+00 0.  1.
         -6    2    1    2    0  503  0.51826285691E+01 -0.40733246065E+02 -0.34566990647E+03  0.38759081780E+03  0.17044911508E+03 0.  0.
        -24    2    3    3    0    0 -0.24068795768E+02 -0.71198796464E+02 -0.14289906285E+03  0.18041480421E+03  0.80503315865E+02 0.  0.
          6    2    1    2  501    0 -0.51826285691E+01  0.40733246065E+02 -0.17526197010E+03  0.24869279893E+03  0.17159630854E+03 0.  0.
         24    2    5    5    0    0  0.38867685644E+02  0.37032425372E+02 -0.18017788990E+03  0.20396716284E+03  0.79097623188E+02 0.  0.
          5    1    5    5  501    0 -0.44050314213E+02  0.37008206928E+01  0.49159198024E+01  0.44725636089E+02  0.47000000000E+01 0. -1.
        -11    1    6    6    0    0  0.67314733326E+01  0.51428567633E+02 -0.62953716298E+02  0.81568257906E+02  0.00000000000E+00 0.  1.
         12    1    6    6    0    0  0.32136212311E+02 -0.14396142261E+02 -0.11722417360E+03  0.12239890494E+03  0.00000000000E+00 0. -1.
         -5    1    3    3    0  503  0.29251424337E+02  0.30465550399E+02 -0.20277084362E+03  0.20717601360E+03  0.47000000000E+01 0.  1.
         13    1    4    4    0    0  0.25312033406E+02 -0.49414034677E+02 -0.62730105652E+02  0.83770591578E+02  0.00000000000E+00 0. -1.
        -14    1    4    4    0    0 -0.49380829174E+02 -0.21784761787E+02 -0.80168957199E+02  0.96644212628E+02  0.00000000000E+00 0.  1.
</event>
<event>
12    1  0.1594973E-001  0.2083722E+03  0.7818608E-02  0.1143289E+00
         21   -1    0    0  503  502  0.00000000000E+00  0.00000000000E+00  0.74908305414E+02  0.74908305414E+02  0.00000000000E+00 0. -1.
         21   -1    0    0  501  503 -0.00000000000E+00 -0.00000000000E+00 -0.70445530588E+03  0.70445530588E+03  0.00000000000E+00 0. -1.
          6    2    1    2  501    0  0.10383484871E+03  0.41749392514E+02 -0.48395091444E+03  0.52690367319E+03  0.17576776055E+03 0.  0.
         24    2    3    3    0    0  0.53212547265E+02 -0.27253865979E+02 -0.13374754007E+03  0.16636440971E+03  0.78831237130E+02 0.  0.
         -6    2    1    2    0  502 -0.10383484871E+03 -0.41749392514E+02 -0.14559608603E+03  0.25245993811E+03  0.17324292915E+03 0.  0.
        -24    2    5    5    0    0 -0.61610114593E+02 -0.65975710478E+02 -0.16083381566E+03  0.20123376259E+03  0.80491678783E+02 0.  0.
          5    1    3    3  501    0  0.50622301445E+02  0.69003258493E+02 -0.35020337437E+03  0.36053926348E+03  0.47000000000E+01 0. -1.
        -13    1    4    4    0    0  0.24966285962E+02 -0.45224089308E+02 -0.11910349381E+03  0.12982363393E+03  0.00000000000E+00 0.  1.
         14    1    4    4    0    0  0.28246261303E+02  0.17970223329E+02 -0.14644046257E+02  0.36540775783E+02  0.00000000000E+00 0. -1.
         -5    1    5    5    0  502 -0.42224734117E+02  0.24226317964E+02  0.15237729635E+02  0.51226175514E+02  0.47000000000E+01 0.  1.
         11    1    6    6    0    0 -0.51175648156E+02 -0.66413735751E+02 -0.68380722812E+02  0.10819267310E+03  0.00000000000E+00 0. -1.
        -12    1    6    6    0    0 -0.10434466436E+02  0.43802527293E+00 -0.92453092850E+02  0.93041089490E+02  0.00000000000E+00 0.  1.
</event>
<event>
12    1  0.1594973E-001  0.1742080E+03  0.7818608E-02  0.1173850E+00
         21   -1    0    0  501  502  0.00000000000E+00  0.00000000000E+00  0.99235363226E+03  0.99235363226E+03  0.00000000000E+00 0. -1.
         21   -1    0    0  502  503 -0.00000000000E+00 -0.00000000000E+00 -0.73778070194E+02  0.73778070194E+02  0.00000000000E+00 0. -1.
         -6    2    1    2    0  503  0.30161064397E+01  0.14335927587E+02  0.51047096464E+02  0.18153303111E+03  0.17359095485E+03 0.  0.
        -24    2    3    3    0    0  0.16572464538E+02  0.48345180262E+02  0.87936174501E+02  0.12934780148E+03  0.79913577864E+02 0.  0.
          6    2    1    2  501    0 -0.30161064397E+01 -0.14335927587E+02  0.86752846561E+03  0.88459867135E+03  0.17232108113E+03 0.  0.
         24    2    5    5    0    0  0.40426876200E+02 -0.60062328305E+02  0.46675850241E+03  0.47886865045E+03  0.78802723357E+02 0.  0.
          5    1    5    5  501    0 -0.43442982639E+02  0.45726400718E+02  0.40076996320E+03  0.40573002091E+03  0.47000000000E+01 0. -1.
        -11    1    6    6    0    0  0.42587384896E+02 -0.37629333439E+02  0.44098393802E+03  0.44463072957E+03  0.00000000000E+00 0.  1.
         12    1    6    6    0    0 -0.21605086964E+01 -0.22432994866E+02  0.25774564394E+02  0.34237920880E+02  0.00000000000E+00 0. -1.
         -5    1    3    3    0  503 -0.13556358098E+02 -0.34009252676E+02 -0.36889078037E+02  0.52185229624E+02  0.47000000000E+01 0.  1.
         13    1    4    4    0    0  0.32341813178E+02 -0.81279051735E+01  0.47839283139E+02  0.58315115823E+02  0.00000000000E+00 0. -1.
        -14    1    4    4    0    0 -0.15769348640E+02  0.56473085436E+02  0.40096891362E+02  0.71032685660E+02  0.00000000000E+00 0.  1.
</event>
<event>
12    1  0.1594973E-001  0.1826765E+03  0.7818608E-02  0.1165308E+00
         21   -1    0    0  503  502  0.00000000000E+00  0.00000000000E+00  0.18695662369E+03  0.18695662369E+03  0.00000000000E+00 0. -1.
         21   -1    0    0  501  503 -0.00000000000E+00 -0.00000000000E+00 -0.20644568606E+03  0.20644568606E+03  0.00000000000E+00 0. -1.
          6    2    1    2  501    0  0.48900377080E+02  0.37335800599E+02 -0.82487512083E+02  0.20016800318E+03  0.17169109168E+03 0.  0.
         24    2    3    3    0    0  0.61182506680E+02  0.58423735577E+02 -0.14841303518E+01  0.11543790486E+03  0.78530727959E+02 0.  0.
         -6    2    1    2    0  502 -0.48900377080E+02 -0.37335800599E+02  0.62998449711E+02  0.19323430657E+03  0.17200431299E+03 0.  0.
        -24    2    5    5    0    0 -0.92677836404E+02  0.37407828413E+01  0.36244449820E+02  0.12734334997E+03  0.79369350643E+02 0.  0.
          5    1    3    3  501    0 -0.12282129600E+02 -0.21087934978E+02 -0.81003381731E+02  0.84730098318E+02  0.47000000000E+01 0. -1.
        -13    1    4    4    0    0  0.54494750750E+02  0.26825679720E+02 -0.33999282084E+02  0.69607802250E+02  0.00000000000E+00 0.  1.
         14    1    4    4    0    0  0.66877559298E+01  0.31598055857E+02  0.32515151733E+02  0.45830102613E+02  0.00000000000E+00 0. -1.
         -5    1    5    5    0  502  0.43777459325E+02 -0.41076583441E+02  0.26753999891E+02  0.65890956604E+02  0.47000000000E+01 0.  1.
         11    1    6    6    0    0 -0.11021807723E+02  0.24009938381E+02 -0.13432827768E+02  0.29637784134E+02  0.00000000000E+00 0. -1.
        -12    1    6    6    0    0 -0.81656028682E+02 -0.20269155540E+02  0.49677277587E+02  0.97705565834E+02  0.00000000000E+00 0.  1.
</event>
<event>
12    1  0.1594973E-001  0.1777209E+03  0.7818608E-02  0.1171432E+00
         21   -1    0    0  503  502  0.00000000000E+00  0.00000000000E+00  0.25095226252E+02  0.25095226252E+02  0.00000000000E+00 0.  1.
         21   -1    0    0  501  503 -0.00000000000E+00 -0.00000000000E+00 -0.12349236299E+04  0.12349236299E+04  0.00000000000E+00 0. -1.
          6    2    1    2  501    0 -0.36602891958E+02 -0.26981501226E+02 -0.66651584080E+03  0.68837802172E+03  0.16599145051E+03 0.  0.
         24    2    3    3    0    0 -0.73993522690E+02  0.18167406236E+02 -0.48984804254E+03  0.50217897754E+03  0.80171844513E+02 0.  0.
         -6    2    1    2    0  502  0.36602891958E+02  0.26981501226E+02 -0.54331256285E+03  0.57164083443E+03  0.17180491708E+03 0.  0.
        -24    2    5    5    0    0 -0.29677681099E+02  0.26279393392E+02 -0.16640254106E+03  0.18891787739E+03  0.80179719723E+02 0.  0.
          5    1    3    3  501    0  0.37390630732E+02 -0.45148907463E+02 -0.17666779826E+03  0.18619904418E+03  0.47000000000E+01 0. -1.
        -13    1    4    4    0    0 -0.43019606634E+02  0.47999117871E+02 -0.34936998903E+03  0.35526608494E+03  0.00000000000E+00 0.  1.
         14    1    4    4    0    0 -0.30973916056E+02 -0.29831711635E+02 -0.14047805351E+03  0.14691289261E+03  0.00000000000E+00 0. -1.
         -5    1    5    5    0  502  0.66280573057E+02  0.70210783412E+00 -0.37691002179E+03  0.38272295704E+03  0.47000000000E+01 0.  1.
         13    1    6    6    0    0 -0.46522074457E+02  0.26669300049E+02 -0.16317791969E+03  0.17176317548E+03  0.00000000000E+00 0. -1.
        -14    1    6    6    0    0  0.16844393357E+02 -0.38990665622E+00 -0.32246213725E+01  0.17154701915E+02  0.00000000000E+00 0.  1.
</event>
<event>
12    1  0.1594973E-001  0.1995547E+03  0.7818608E-02  0.1150225E+00
         21   -1    0    0  501  502  0.00000000000E+00  0.00000000000E+00  0.66044649737E+03  0.66044649737E+03  0.00000000000E+00 0. -1.
         21   -1    0    0  502  503 -0.00000000000E+00 -0.00000000000E+00 -0.65129419595E+02  0.65129419595E+02  0.00000000000E+00 0.  1.
         -6    2    1    2    0  503  0.53169002922E+02 -0.93477953154E+02  0.19759256998E+03  0.28082894630E+03  0.16809819384E+03 0.  0.
        -24    2    3    3    0    0  0.55950316032E+02 -0.39208290881E+02  0.20153944601E+03  0.22614256978E+03  0.76515264057E+02 0.  0.
          6    2    1    2  501    0 -0.53169002922E+02  0.93477953154E+02  0.39772450780E+03  0.44474697067E+03  0.16748138170E+03 0.  0.
         24    2    5    5    0    0 -0.52587367583E+02 -0.27340363201E+01  0.13862582648E+03  0.16832102782E+03  0.79636313667E+02 0.  0.
          5    1    5    5  501    0 -0.58163533954E+00  0.96211989474E+02  0.25909868132E+03  0.27642594285E+03  0.47000000000E+01 0. -1.
        -13    1    6    6    0    0  0.21589292805E+01  0.30755106450E+02  0.37455792998E+02  0.48512616684E+02  0.00000000000E+00 0.  1.
         14    1    6    6    0    0 -0.54746296863E+02 -0.33489142770E+02  0.10117003348E+03  0.11980841114E+03  0.00000000000E+00 0. -1.
         -5    1    3    3    0  503 -0.27813131096E+01 -0.54269662273E+02 -0.39468760318E+01  0.54686376514E+02  0.47000000000E+01 0.  1.
         11    1    4    4    0    0  0.69049774070E+02 -0.25256931445E+02  0.10790763106E+03  0.13057503868E+03  0.00000000000E+00 0. -1.
        -12    1    4    4    0    0 -0.13099458039E+02 -0.13951359436E+02  0.93631814949E+02  0.95567531106E+02  0.00000000000E+00 0.  1.
</event>
<event>
12    1  0.1594973E-001  0.1838373E+03  0.7818608E-02  0.1167193E+00
         21   -1    0    0  503  502  0.00000000000E+00  0.00000000000E+00  0.43402023270E+03  0.43402023270E+03  0.00000000000E+00 0. -1.
         21   -1    0    0  501  503 -0.00000000000E+00 -0.00000000000E+00 -0.72790455857E+02  0.72790455857E+02  0.00000000000E+00 0.  1.
          6    2    1    2  501    0 -0.46957180592E+02  0.44872973892E+02  0.16381910737E+03  0.23705684867E+03  0.15855815642E+03 0.  0.
         24    2    3    3    0    0  0.10775655436E+02  0.75733110040E+02  0.62827522147E+02  0.11661259333E+03  0.61640738782E+02 0.  0.
         -6    2    1    2    0  502  0.46957180592E+02 -0.44872973892E+02  0.19741066948E+03  0.26975383989E+03  0.17198139759E+03 0.  0.
        -24    2    5    5    0    0  0.76383134981E+02 -0.45682285317E+02  0.70192637750E+02  0.13908992225E+03  0.80608594925E+02 0.  0.
          5    1    3    3  501    0 -0.57732836028E+02 -0.30860136148E+02  0.10099158522E+03  0.12044425534E+03  0.47000000000E+01 0. -1.
        -11    1    4    4    0    0  0.14315644047E+02 -0.27329708340E-01  0.31412362263E+02  0.34520644756E+02  0.00000000000E+00 0.  1.
         12    1    4    4    0    0 -0.35399886112E+01  0.75760439748E+02  0.31415159884E+02  0.82091948574E+02  0.00000000000E+00 0. -1.
         -5    1    5    5    0  502 -0.29425954389E+02  0.80931142524E+00  0.12721803173E+03  0.13066391764E+03  0.47000000000E+01 0.  1.
         13    1    6    6    0    0  0.20721722114E+01 -0.33690966707E+02  0.51424700123E+02  0.61513209297E+02  0.00000000000E+00 0. -1.
        -14    1    6    6    0    0  0.74310962770E+02 -0.11991318610E+02  0.18767937627E+02  0.77576712953E+02  0.00000000000E+00 0.  1.
</event>
<event>
12    1  0.1594973E-001  0.1918058E+03  0.7818608E-02  0.1157621E+00
         21   -1    0    0  503  502  0.00000000000E+00  0.00000000000E+00  0.32229535187E+03  0.32229535187E+03  0.00000000000E+00 0. -1.
         21   -1    0    0  501  503 -0.00000000000E+00 -0.00000000000E+00 -0.19720686713E+03  0.19720686713E+03  0.00000000000E+00 0. -1.
          6    2    1    2  501    0  0.33491842475E+02  0.70189475695E+02  0.23350635780E+03  0.30218317298E+03  0.17533164258E+03 0.  0.
         24    2    3    3    0    0  0.26811781779E+01  0.99817793391E+02  0.10128909736E+03  0.16314854347E+03  0.79919868613E+02 0.  0.
         -6    2    1    2    0  502 -0.33491842475E+02 -0.70189475695E+02 -0.10841787307E+03  0.21731904601E+03  0.17153677900E+03 0.  0.
        -24    2    5    5    0    0 -0.63898740152E+02 -0.97399488514E+02 -0.10453003898E+03  0.17606168936E+03  0.80631755869E+02 0.  0.
          5    1    3    3  501    0  0.30810664297E+02 -0.29628317696E+02  0.13221726044E+03  0.13903462951E+03  0.47000000000E+01 0. -1.
        -11    1    4    4    0    0  0.27656221129E+02  0.37616453860E+02  0.66246431295E+01  0.47156654511E+02  0.00000000000E+00 0.  1.
         12    1    4    4    0    0 -0.24975042951E+02  0.62201339532E+02  0.94664454231E+02  0.11599188896E+03  0.00000000000E+00 0. -1.
         -5    1    5    5    0  502  0.30406897677E+02  0.27210012819E+02 -0.38878340835E+01  0.41257356651E+02  0.47000000000E+01 0.  1.
         13    1    6    6    0    0  0.66916744749E+01 -0.42184568751E+02 -0.65763917194E+02  0.78416893287E+02  0.00000000000E+00 0. -1.
        -14    1    6    6    0    0 -0.70590414627E+02 -0.55214919763E+02 -0.38766121789E+02  0.97644796073E+02  0.00000000000E+00 0.  1.
</event>
<event>
12    1  0.1594973E-001  0.1952133E+03  0.7818608E-02  0.1154057E+00
         21   -1    0    0  503  502  0.00000000000E+00  0.00000000000E+00  0.47240945184E+02  0.47240945184E+02  0.00000000000E+00 0. -1.
         21   -1    0    0  501  503 -0.00000000000E+00 -0.00000000000E+00 -0.10673469716E+04  0.10673469716E+04  0.00000000000E+00 0.  1.
          6    2    1    2  501    0  0.15307734725E+02 -0.90029358526E+02 -0.78857862162E+03  0.81238197779E+03  0.17253586067E+03 0.  0.
         24    2    3    3    0    0 -0.28018098124E+02  0.11273763531E+02 -0.33241995080E+03  0.34308220867E+03  0.79311201278E+02 0.  0.
         -6    2    1    2    0  502 -0.15307734725E+02  0.90029358526E+02 -0.23152740478E+03  0.30220593898E+03  0.17141726358E+03 0.  0.
        -24    2    5    5    0    0 -0.76536631732E+02  0.53710987030E+02 -0.13971075127E+03  0.18592872798E+03  0.79420852065E+02 0.  0.
          5    1    3    3  501    0  0.43325832849E+02 -0.10130312206E+03 -0.45615867083E+03  0.46929976912E+03  0.47000000000E+01 0. -1.
        -13    1    4    4    0    0 -0.49934588172E+02  0.20485644554E+02 -0.15611878029E+03  0.16518534525E+03  0.00000000000E+00 0.  1.
         14    1    4    4    0    0  0.21916490048E+02 -0.92118810225E+01 -0.17630117051E+03  0.17789686341E+03  0.00000000000E+00 0. -1.
         -5    1    5    5    0  502  0.61228897007E+02  0.36318371497E+02 -0.91816653510E+02  0.11627721100E+03  0.47000000000E+01 0.  1.
         11    1    6    6    0    0 -0.49817528001E+01  0.48907465856E+02 -0.41589375873E+02  0.64392812199E+02  0.00000000000E+00 0. -1.
        -12    1    6    6    0    0 -0.71554878931E+02  0.48035211739E+01 -0.98121375396E+02  0.12153591578E+03  0.00000000000E+00 0.  1.
</event>
<event>
12    1  0.1594973E-001  0.2525863E+03  0.7818608E-02  0.1111945E+00
         21   -1    0    0  501  502  0.00000000000E+00  0.00000000000E+00  0.55894293328E+03  0.55894293328E+03  0.00000000000E+00 0.  1.
         21   -1    0    0  502  503 -0.00000000000E+00 -0.00000000000E+00 -0.17145774854E+03  0.17145774854E+03  0.00000000000E+00 0. -1.
         -6    2    1    2    0  503  0.92965022002E+02 -0.15713991672E+03 -0.18370441916E+02  0.25325343827E+03  0.17454048847E+03 0.  0.
        -24    2    3    3    0    0  0.15323311199E+02 -0.11784176154E+03 -0.62372829960E+02  0.15562721018E+03  0.78790697439E+02 0.  0.
          6    2    1    2  501    0 -0.92965022002E+02  0.15713991672E+03  0.40585562665E+03  0.47714724355E+03  0.17209082952E+03 0.  0.
         24    2    5    5    0    0 -0.94458977046E+02  0.15573811142E+03  0.41856554660E+03  0.46344217059E+03  0.80029188339E+02 0.  0.
          5    1    5    5  501    0  0.14939550443E+01  0.14018053004E+01 -0.12709919951E+02  0.13705072963E+02  0.47000000000E+01 0. -1.
        -13    1    6    6    0    0 -0.96219407998E+02  0.12468903524E+03  0.27834853596E+03  0.31981781917E+03  0.00000000000E+00 0.  1.
         14    1    6    6    0    0  0.17604309523E+01  0.31049076176E+02  0.14021701064E+03  0.14362435142E+03  0.00000000000E+00 0. -1.
         -5    1    3    3    0  503  0.77641710802E+02 -0.39298155180E+02  0.44002388044E+02  0.97626228087E+02  0.47000000000E+01 0.  1.
         11    1    4    4    0    0  0.46383512978E+02 -0.51574921327E+02 -0.28697106260E+02  0.75066148787E+02  0.00000000000E+00 0. -1.
        -12    1    4    4    0    0 -0.31060201779E+02 -0.66266840210E+02 -0.33675723700E+02  0.80561061393E+02  0.00000000000E+00 0.  1.
</event>
<event>
12    1  0.1594973E-001  0.1798730E+03  0.7818608E-02  0.1168900E+00
         21   -1    0    0  503  502  0.00000000000E+00  0.00000000000E+00  0.33274880665E+02  0.33274880665E+02  0.00000000000E+00 0. -1.
         21   -1    0    0  501  503 -0.00000000000E+00 -0.00000000000E+00 -0.95099507229E+03  0.95099507229E+03  0.00000000000E+00 0. -1.
          6    2    1    2  501    0  0.26593173738E+02  0.24486012661E+02 -0.45115368337E+03  0.48423133634E+03  0.17214406576E+03 0.  0.
         24    2    3    3    0    0  0.46376226521E+02  0.27071195680E+02 -0.45335361621E+03  0.46361624350E+03  0.80789330216E+02 0.  0.
         -6    2    1    2    0  502 -0.26593173738E+02 -0.24486012661E+02 -0.46656650826E+03  0.50003861661E+03  0.17620314914E+03 0.  0.
        -24    2    5    5    0    0 -0.58305532428E+02  0.40477240694E+02 -0.30935661090E+03  0.32694055247E+03  0.78426207474E+02 0.  0.
          5    1    3    3  501    0 -0.19783052783E+02 -0.25851830184E+01  0.21999328470E+01  0.20615092849E+02  0.47000000000E+01 0. -1.
        -13    1    4    4    0    0  0.25471305912E+02  0.51170665154E+02 -0.19215030613E+03  0.20047185474E+03  0.00000000000E+00 0.  1.
         14    1    4    4    0    0  0.20904920609E+02 -0.24099469474E+02 -0.26120331008E+03  0.26314438875E+03  0.00000000000E+00 0. -1.
         -5    1    5    5    0  502  0.31712358690E+02 -0.64963253355E+02 -0.15720989736E+03  0.17309806414E+03  0.47000000000E+01 0.  1.
         13    1    6    6    0    0  0.17219200333E+02  0.11515314418E+02 -0.32764676107E+02  0.38763737264E+02  0.00000000000E+00 0. -1.
        -14    1    6    6    0    0 -0.75524732761E+02  0.28961926276E+02 -0.27659193479E+03  0.28817681521E+03  0.00000000000E+00 0.  1.
</event>
<event>
12    1  0.1594973E-001  0.1883948E+03  0.7818608E-02  0.1160449E+00
         21   -1    0    0  501  502  0.00000000000E+00  0.00000000000E+00  0.27596473964E+03  0.27596473964E+03  0.00000000000E+00 0.  1.
         21   -1    0    0  502  503 -0.00000000000E+00 -0.00000000000E+00 -0.16195862651E+03  0.16195862651E+03  0.00000000000E+00 0.  1.
         -6    2    1    2    0  503  0.24930184353E+02  0.68450897376E+02 -0.44397004000E+02  0.19355539597E+03  0.17373991454E+03 0.  0.
        -24    2    3    3    0    0  0.46905754644E+02 -0.13199724894E+02  0.16927542099E+02  0.88996609825E+02  0.72522219511E+02 0.  0.
          6    2    1    2  501    0 -0.24930184353E+02 -0.68450897376E+02  0.15840311713E+03  0.24436797018E+03  0.17122242227E+03 0.  0.
         24    2    5    5    0    0  0.50588503553E+02 -0.44564804923E+02  0.10810750493E+03  0.15042460297E+03  0.79969431824E+02 0.  0.
          5    1    5    5  501    0 -0.75518687907E+02 -0.23886092453E+02  0.50295612199E+02  0.93943367208E+02  0.47000000000E+01 0. -1.
        -11    1    6    6    0    0  0.66349855101E+01 -0.45952312972E+02  0.92966877041E+02  0.10391572704E+03  0.00000000000E+00 0.  1.
         12    1    6    6    0    0  0.43953518043E+02  0.13875080492E+01  0.15140627892E+02  0.46508875926E+02  0.00000000000E+00 0. -1.
         -5    1    3    3    0  503 -0.21975570291E+02  0.81650622270E+02 -0.61324546099E+02  0.10455878615E+03  0.47000000000E+01 0.  1.
         11    1    4    4    0    0  0.14692640060E+02 -0.36579393502E+02  0.27195049014E+02  0.47890462430E+02  0.00000000000E+00 0. -1.
        -12    1    4    4    0    0  0.32213114584E+02  0.23379668608E+02 -0.10267506915E+02  0.41106147395E+02  0.00000000000E+00 0.  1.
</event>
<event>
12    1  0.1594973E-001  0.1784769E+03  0.7818608E-02  0.1169374E+00
         21   -1    0    0  503  502  0.00000000000E+00  0.00000000000E+00  0.69889690119E+02  0.69889690119E+02  0.00000000000E+00 0. -1.
         21   -1    0    0  501  503 -0.00000000000E+00 -0.00000000000E+00 -0.94682854933E+03  0.94682854933E+03  0.00000000000E+00 0. -1.
          6    2    1    2  501    0  0.13261487345E+02 -0.44034334246E+02 -0.80469925321E+03  0.82417591415E+03  0.17207602884E+03 0.  0.
         24    2    3    3    0    0 -0.46968539538E+02 -0.61787106522E+02 -0.59051476243E+03  0.60092739085E+03  0.79889637564E+02 0.  0.
         -6    2    1    2    0  502 -0.13261487345E+02  0.44034334246E+02 -0.72239605996E+02  0.19254232530E+03  0.17245027317E+03 0.  0.
        -24    2    5    5    0    0  0.12262931896E+02  0.28615124401E+02  0.41571378994E+02  0.74795655222E+02  0.53823839008E+02 0.  0.
          5    1    3    3  501    0  0.60230026883E+02  0.17752772275E+02 -0.21418449079E+03  0.22324852330E+03  0.47000000000E+01 0. -1.
        -11    1    4    4    0    0 -0.30382919673E+02  0.28941783220E+01 -0.73010824116E+02  0.79133295863E+02  0.00000000000E+00 0.  1.
         12    1    4    4    0    0 -0.16585619865E+02 -0.64681284844E+02 -0.51750393831E+03  0.52179409499E+03  0.00000000000E+00 0. -1.
         -5    1    5    5    0  502 -0.25524419241E+02  0.15419209845E+02 -0.11381098499E+03  0.11774667008E+03  0.47000000000E+01 0.  1.
         13    1    6    6    0    0  0.27260200163E+02  0.18339124221E+02  0.45572120507E+02  0.56180603037E+02  0.00000000000E+00 0. -1.
        -14    1    6    6    0    0 -0.14997268267E+02  0.10276000181E+02 -0.40007415136E+01  0.18615052185E+02  0.00000000000E+00 0.  1.
</event>
<event>
12    1  0.1594973E-001  0.2034118E+03  0.7818608E-02  0.1146928E+00
         21   -1    0    0  503  502  0.00000000000E+00  0.00000000000E+00  0.13934870226E+03  0.13934870226E+03  0.00000000000E+00 0.  1.
         21   -1    0    0  501  503 -0.00000000000E+00 -0.00000000000E+00 -0.43608242175E+03  0.43608242175E+03  0.00000000000E+00 0. -1.
          6    2    1    2  501    0 -0.59380815441E+02 -0.90891601426E+02 -0.31108931481E+03  0.37168929412E+03  0.17201454916E+03 0.  0.
         24    2    3    3    0    0 -0.24816418909E+02 -0.30630157517E+02 -0.54000089660E+02  0.10533783680E+03  0.81400178016E+02 0.  0.
         -6    2    1    2    0  502  0.59380815441E+02  0.90891601426E+02  0.14355595318E+02  0.20374182989E+03  0.17180595356E+03 0.  0.
        -24    2    5    5    0    0  0.15397392956E+02  0.78320019859E+00 -0.39245057251E+02  0.89947342411E+02  0.79452229521E+02 0.  0.
          5    1    3    3  501    0 -0.34564396532E+02 -0.60261443909E+02 -0.25708922515E+03  0.26635145732E+03  0.47000000000E+01 0. -1.
        -11    1    4    4    0    0  0.24552405733E+02  0.30102251626E+01  0.10741393397E+00  0.24736483593E+02  0.00000000000E+00 0.  1.
         12    1    4    4    0    0 -0.49368824642E+02 -0.33640382679E+02 -0.54107503594E+02  0.80601353205E+02  0.00000000000E+00 0. -1.
         -5    1    5    5    0  502  0.43983422485E+02  0.90108401227E+02  0.53600652569E+02  0.11379448748E+03  0.47000000000E+01 0.  1.
         13    1    6    6    0    0  0.37057554208E+02  0.78460729808E+00 -0.52713970921E+02  0.64440985892E+02  0.00000000000E+00 0. -1.
        -14    1    6    6    0    0 -0.21660161252E+02 -0.14070994853E-02  0.13468913670E+02  0.25506356519E+02  0.00000000000E+00 0.  1.
</event>
<event>
12    1  0.1594973E-001  0.2246543E+03  0.7818608E-02  0.1130663E+00
         21   -1    0    0  503  502  0.00000000000E+00  0.00000000000E+00  0.33316752149E+03  0.33316752149E+03  0.00000000000E+00 0. -1.
         21   -1    0    0  501  503 -0.00000000000E+00 -0.00000000000E+00 -0.15075238478E+03  0.15075238478E+03  0.00000000000E+00 0.  1.
          6    2    1    2  501    0  0.13187132571E+03 -0.52828421734E+02  0.93749532355E+02  0.24240147801E+03  0.17259378041E+03 0.  0.
         24    2    3    3    0    0  0.16382686098E+03 -0.32517912121E+02  0.84180284501E+02  0.20306531730E+03  0.79073053609E+02 0.  0.
         -6    2    1    2    0  502 -0.13187132571E+03  0.52828421734E+02  0.88665604352E+02  0.24151842826E+03  0.17403641315E+03 0.  0.
        -24    2    5    5    0    0 -0.11240040255E+02 -0.24039100620E+02  0.77136171765E+02  0.97937298438E+02  0.54198787507E+02 0.  0.
          5    1    3    3  501    0 -0.31955535264E+02 -0.20310509613E+02  0.95692478545E+01  0.39336160708E+02  0.47000000000E+01 0. -1.
        -13    1    4    4    0    0  0.12837612668E+03  0.13406548369E+01  0.85113898498E+02  0.15403442139E+03  0.00000000000E+00 0.  1.
         14    1    4    4    0    0  0.35450734298E+02 -0.33858566958E+02 -0.93361399774E+00  0.49030895910E+02  0.00000000000E+00 0. -1.
         -5    1    5    5    0  502 -0.12063128546E+03  0.76867522354E+02  0.11529432587E+02  0.14358112982E+03  0.47000000000E+01 0.  1.
         11    1    6    6    0    0 -0.57779712203E+01  0.99683997570E+01  0.56761099229E+02  0.57918704499E+02  0.00000000000E+00 0. -1.
        -12    1    6    6    0    0 -0.54620690352E+01 -0.34007500377E+02  0.20375072536E+02  0.40018593939E+02  0.00000000000E+00 0.  1.
</event>
<event>
12    1  0.1594973E-001  0.3159515E+03  0.7818608E-02  0.1077676E+00
         21   -1    0    0  503  502  0.00000000000E+00  0.00000000000E+00  0.74680591595E+03  0.74680591595E+03  0.00000000000E+00 0.  1.
         21   -1    0    0  501  503 -0.00000000000E+00 -0.00000000000E+00 -0.28032321496E+03  0.28032321496E+03  0.00000000000E+00 0.  1.
          6    2    1    2  501    0 -0.13281087526E+03 -0.22861341553E+03 -0.13867366310E+03  0.34504451218E+03  0.17298123655E+03 0.  0.
         24    2    3    3    0    0 -0.10489012490E+03 -0.94907994867E+02 -0.13212248835E+03  0.20821719142E+03  0.76737090664E+02 0.  0.
         -6    2    1    2    0  502  0.13281087526E+03  0.22861341553E+03  0.60515636409E+03  0.68208461873E+03  0.17065280474E+03 0.  0.
        -24    2    5    5    0    0  0.39502186192E+02  0.42194324157E+02  0.12466446687E+03  0.15829731230E+03  0.78587696731E+02 0.  0.
          5    1    3    3  501    0 -0.27920750356E+02 -0.13370542067E+03 -0.65511747560E+01  0.13682732076E+03  0.47000000000E+01 0. -1.
        -13    1    4    4    0    0 -0.73980489113E+02 -0.81053487590E+02 -0.52422423513E+02  0.12161780752E+03  0.00000000000E+00 0.  1.
         14    1    4    4    0    0 -0.30909635790E+02 -0.13854507277E+02 -0.79700064833E+02  0.86599383895E+02  0.00000000000E+00 0. -1.
         -5    1    5    5    0  502  0.93308689067E+02  0.18641909138E+03  0.48049189722E+03  0.52378730643E+03  0.47000000000E+01 0.  1.
         13    1    6    6    0    0  0.21659806032E+02  0.61382627814E+02  0.11117027194E+03  0.12882470088E+03  0.00000000000E+00 0. -1.
        -14    1    6    6    0    0  0.17842380160E+02 -0.19188303657E+02  0.13494194929E+02  0.29472611418E+02  0.00000000000E+00 0.  1.
</event>
<event>
12    1  0.1594973E-001  0.2025664E+03  0.7818608E-02  0.1148465E+00
         21   -1    0    0  503  502  0.00000000000E+00  0.00000000000E+00  0.91057027254E+02  0.91057027254E+02  0.00000000000E+00 0. -1.
         21   -1    0    0  501  503 -0.00000000000E+00 -0.00000000000E+00 -0.73233934957E+03  0.73233934957E+03  0.00000000000E+00 0. -1.
          6    2    1    2  501    0  0.10847153115E+02  0.10113950914E+03 -0.58212468613E+03  0.61636214453E+03  0.17517500382E+03 0.  0.
         24    2    3    3    0    0 -0.12802287127E+02  0.32386340913E+02 -0.11916930232E+03  0.14770867813E+03  0.80023479971E+02 0.  0.
         -6    2    1    2    0  502 -0.10847153115E+02 -0.10113950914E+03 -0.59157636188E+02  0.20703423230E+03  0.17034284953E+03 0.  0.
        -24    2    5    5    0    0  0.29964964046E+02 -0.12594224327E+03 -0.34864057280E+02  0.15324694287E+03  0.74227860665E+02 0.  0.
          5    1    3    3  501    0  0.23649440241E+02  0.68753168227E+02 -0.46295538381E+03  0.46865346640E+03  0.47000000000E+01 0. -1.
        -11    1    4    4    0    0 -0.13452704581E+02  0.57428735657E+02 -0.63527942050E+02  0.86688144292E+02  0.00000000000E+00 0.  1.
         12    1    4    4    0    0  0.65041745429E+00 -0.25042394745E+02 -0.55641360268E+02  0.61020533838E+02  0.00000000000E+00 0. -1.
         -5    1    5    5    0  502 -0.40812117161E+02  0.24802734134E+02 -0.24293578908E+02  0.53787289426E+02  0.47000000000E+01 0.  1.
         13    1    6    6    0    0  0.23152767864E+02 -0.23380209184E+02  0.18165762885E+02  0.37585632660E+02  0.00000000000E+00 0. -1.
        -14    1    6    6    0    0  0.68121961823E+01 -0.10256203409E+03 -0.53029820166E+02  0.11566131021E+03  0.00000000000E+00 0.  1.
</event>
<event>
12    1  0.1594973E-001  0.2344225E+03  0.7818608E-02  0.1123870E+00
         21   -1    0    0  503  502  0.00000000000E+00  0.00000000000E+00  0.38003993379E+03  0.38003993379E+03  0.00000000000E+00 0.  1.
         21   -1    0    0  501  503 -0.00000000000E+00 -0.00000000000E+00 -0.22712579287E+03  0.22712579287E+03  0.00000000000E+00 0. -1.
          6    2    1    2  501    0 -0.90510174882E+02 -0.12806055260E+03 -0.10792330130E+03  0.25646633171E+03  0.17186024394E+03 0.  0.
         24    2    3    3    0    0 -0.10137158911E+02 -0.78263370261E+02  0.30940490264E+01  0.11056731478E+03  0.77379847789E+02 0.  0.
         -6    2    1    2    0  502  0.90510174882E+02  0.12806055260E+03  0.26083744222E+03  0.35069939495E+03  0.17424780477E+03 0.  0.
        -24    2    5    5    0    0  0.79980556144E+02  0.10117682422E+03  0.27486243761E+03  0.31825870726E+03  0.95423299138E+02 0.  0.
          5    1    3    3  501    0 -0.80373015971E+02 -0.49797182337E+02 -0.11101735033E+03  0.14589901692E+03  0.47000000000E+01 0. -1.
        -13    1    4    4    0    0 -0.11160716301E+02 -0.17334752085E+02  0.35871443465E+02  0.41374094244E+02  0.00000000000E+00 0.  1.
         14    1    4    4    0    0  0.10235573897E+01 -0.60928618176E+02 -0.32777394439E+02  0.69193220540E+02  0.00000000000E+00 0. -1.
         -5    1    5    5    0  502  0.10529618739E+02  0.26883728380E+02 -0.14024995388E+02  0.32440687693E+02  0.47000000000E+01 0.  1.
         13    1    6    6    0    0 -0.36105573757E+01 -0.21338434428E+01 -0.61288665781E+01  0.74264673926E+01  0.00000000000E+00 0. -1.
        -14    1    6    6    0    0  0.83591113519E+02  0.10331066766E+03  0.28099130419E+03  0.31083223987E+03  0.00000000000E+00 0.  1.
</event>
<event>
12    1  0.1594973E-001  0.2365013E+03  0.7818608E-02  0.1122519E+00
         21   -1    0    0  503  502  0.00000000000E+00  0.00000000000E+00  0.43541088066E+03  0.43541088066E+03  0.00000000000E+00 0. -1.
         21   -1    0    0  501  503 -0.00000000000E+00 -0.00000000000E+00 -0.12728887625E+03  0.12728887625E+03  0.00000000000E+00 0.  1.
          6    2    1    2  501    0 -0.15934752145E+03 -0.24860697608E+02  0.15645842894E+03  0.28174655887E+03  0.16997704718E+03 0.  0.
         24    2    3    3    0    0 -0.16364375559E+02 -0.24637682666E+02  0.90922616673E+02  0.12438944134E+03  0.79567598309E+02 0.  0.
         -6    2    1    2    0  502  0.15934752145E+03  0.24860697608E+02  0.15166357547E+03  0.28095319805E+03  0.17298315666E+03 0.  0.
        -24    2    5    5    0    0  0.67355902558E+02  0.62115527703E+02  0.33508360155E+02  0.12657338972E+03  0.80640290140E+02 0.  0.
          5    1    3    3  501    0 -0.14298314590E+03 -0.22301494261E+00  0.65535812269E+02  0.15735711752E+03  0.47000000000E+01 0. -1.
        -11    1    4    4    0    0  0.47893275877E+01 -0.48208503087E+02  0.33790317210E+02  0.59065920510E+02  0.00000000000E+00 0.  1.
         12    1    4    4    0    0 -0.21153703146E+02  0.23570820421E+02  0.57132299463E+02  0.65323520834E+02  0.00000000000E+00 0. -1.
         -5    1    5    5    0  502  0.91991618896E+02 -0.37254830094E+02  0.11815521531E+03  0.15437980832E+03  0.47000000000E+01 0.  1.
         11    1    6    6    0    0  0.90387411755E+01  0.18326062346E+02  0.48046312786E+02  0.52211029251E+02  0.00000000000E+00 0. -1.
        -12    1    6    6    0    0  0.58317161383E+02  0.43789465356E+02 -0.14537952631E+02  0.74362360470E+02  0.00000000000E+00 0.  1.
</event>
<event>
12    1  0.1594973E-001  0.2326390E+03  0.7818608E-02  0.1124799E+00
         21   -1    0    0  503  502  0.00000000000E+00  0.00000000000E+00  0.24690993185E+03  0.24690993185E+03  0.00000000000E+00 0.  1.
         21   -1    0    0  501  503 -0.00000000000E+00 -0.00000000000E+00 -0.28011542618E+03  0.28011542618E+03  0.00000000000E+00 0.  1.
          6    2    1    2  501    0 -0.14394982647E+03 -0.58306829633E+02 -0.13951203957E+03  0.27124817024E+03  0.17317829469E+03 0.  0.
         24    2    3    3    0    0 -0.14497364668E+03  0.63460576904E+01 -0.91764166476E+02  0.19073113209E+03  0.83066670936E+02 0.  0.
         -6    2    1    2    0  502  0.14394982647E+03  0.58306829633E+02  0.10630654524E+03  0.25577718779E+03  0.17320406841E+03 0.  0.
        -24    2    5    5    0    0  0.71448585187E+02 -0.16754988258E+02  0.20495466163E+01  0.10818884729E+03  0.79466949601E+02 0.  0.
          5    1    3    3  501    0  0.10238202087E+01 -0.64652887323E+02 -0.47747873090E+02  0.80517038145E+02  0.47000000000E+01 0. -1.
        -11    1    4    4    0    0 -0.94478897012E+02  0.15305490141E+02 -0.10041672371E+03  0.13872288351E+03  0.00000000000E+00 0.  1.
         12    1    4    4    0    0 -0.50494749665E+02 -0.89594324503E+01  0.86525572340E+01  0.52008248579E+02  0.00000000000E+00 0. -1.
         -5    1    5    5    0  502  0.72501241281E+02  0.75061817890E+02  0.10425699862E+03  0.14758834051E+03  0.47000000000E+01 0.  1.
         11    1    6    6    0    0 -0.83459520542E+01 -0.26483400237E+02 -0.30417835720E+00  0.27769010215E+02  0.00000000000E+00 0. -1.
        -12    1    6    6    0    0  0.79794537241E+02  0.97284119797E+01  0.23537249735E+01  0.80419837071E+02  0.00000000000E+00 0.  1.
</event>
<event>
12    1  0.1594973E-001  0.3652896E+03  0.7818608E-02  0.1056790E+00
         21   -1    0    0  501  502  0.00000000000E+00  0.00000000000E+00  0.98702016403E+03  0.98702016403E+03  0.00000000000E+00 0. -1.
         21   -1    0    0  502  503 -0.00000000000E+00 -0.00000000000E+00 -0.32105680639E+03  0.32105680639E+03  0.00000000000E+00 0.  1.
         -6    2    1    2    0  503 -0.25233058150E+03  0.19580346327E+03 -0.16552469704E+03  0.40104231851E+03  0.17727604836E+03 0.  0.
        -24    2    3    3    0    0 -0.18802905013E+03  0.14688030666E+03 -0.46719747238E+02  0.25728951581E+03  0.84180829090E+02 0.  0.
          6    2    1    2  501    0  0.25233058150E+03 -0.19580346327E+03  0.83148805468E+03  0.90703465190E+03  0.17125932412E+03 0.  0.
         24    2    5    5    0    0  0.70676085531E+02 -0.28348134695E+02  0.19973247479E+03  0.22867129375E+03  0.81232833824E+02 0.  0.
          5    1    5    5  501    0  0.18165449597E+03 -0.16745532857E+03  0.63175557988E+03  0.67836335815E+03  0.47000000000E+01 0. -1.
        -11    1    6    6    0    0  0.46406530107E+02  0.11818323994E+02  0.16053590729E+03  0.16752616616E+03  0.00000000000E+00 0.  1.
         12    1    6    6    0    0  0.24269555424E+02 -0.40166458688E+02  0.39196567507E+02  0.61145127593E+02  0.00000000000E+00 0. -1.
         -5    1    3    3    0  503 -0.64301531372E+02  0.48923156608E+02 -0.11880494980E+03  0.14375280271E+03  0.47000000000E+01 0.  1.
         11    1    4    4    0    0  0.55568097715E+01  0.21806452118E+02 -0.29713139526E+01  0.22698638624E+02  0.00000000000E+00 0. -1.
        -12    1    4    4    0    0 -0.19358585990E+03  0.12507385454E+03 -0.43748433286E+02  0.23459087718E+03  0.00000000000E+00 0.  1.
</event>
<event>
12    1  0.1594973E-001  0.1752013E+03  0.7818608E-02  0.1173505E+00
         21   -1    0    0  503  502  0.00000000000E+00  0.00000000000E+00  0.81982835125E+01  0.81982835125E+01  0.00000000000E+00 0. -1.
         21   -1    0    0  501  503 -0.00000000000E+00 -0.00000000000E+00 -0.38267205425E+04  0.38267205425E+04  0.00000000000E+00 0. -1.
          6    2    1    2  501    0 -0.79790559929E+00 -0.26098662661E+02 -0.22862746263E+04  0.22926872221E+04  0.16935540851E+03 0.  0.
         24    2    3    3    0    0  0.13433354368E+02 -0.54310057871E+02 -0.21788817744E+04  0.21806438098E+04  0.67465555347E+02 0.  0.
         -6    2    1    2    0  502  0.79790559929E+00  0.26098662661E+02 -0.15322476327E+04  0.15422316039E+04  0.17324472740E+03 0.  0.
        -24    2    5    5    0    0 -0.61424196855E+02 -0.75879703355E+01 -0.10678768774E+04  0.10724777667E+04  0.77569488229E+02 0.  0.
          5    1    3    3  501    0 -0.14231259967E+02  0.28211395210E+02 -0.10739285196E+03  0.11204341227E+03  0.47000000000E+01 0. -1.
        -13    1    4    4    0    0  0.40175908874E+02 -0.22505435606E+02 -0.11118229369E+04  0.11127761865E+04  0.00000000000E+00 0.  1.
         14    1    4    4    0    0 -0.26742554506E+02 -0.31804622266E+02 -0.10670588374E+04  0.10678676232E+04  0.00000000000E+00 0. -1.
         -5    1    5    5    0  502  0.62222102454E+02  0.33686632996E+02 -0.46437075522E+03  0.46975383722E+03  0.47000000000E+01 0.  1.
         13    1    6    6    0    0 -0.22176236219E+02 -0.36954351672E+02 -0.70345341063E+03  0.70477238204E+03  0.00000000000E+00 0. -1.
        -14    1    6    6    0    0 -0.39247960636E+02  0.29366381337E+02 -0.36442346679E+03  0.36770538467E+03  0.00000000000E+00 0.  1.
</event>
<event>
12    1  0.1594973E-001  0.2142732E+03  0.7818608E-02  0.1138389E+00
         21   -1    0    0  503  502  0.00000000000E+00  0.00000000000E+00  0.12404207935E+03  0.12404207935E+03  0.00000000000E+00 0. -1.
         21   -1    0    0  501  503 -0.00000000000E+00 -0.00000000000E+00 -0.37221845369E+03  0.37221845369E+03  0.00000000000E+00 0.  1.
          6    2    1    2  501    0  0.57848857885E+02  0.11412042453E+03 -0.14801586970E+03  0.25973325944E+03  0.17082946678E+03 0.  0.
         24    2    3    3    0    0 -0.38047049779E+01  0.11587116675E+03 -0.63926211260E+02  0.15534270638E+03  0.81266185307E+02 0.  0.
         -6    2    1    2    0  502 -0.57848857885E+02 -0.11412042453E+03 -0.10016050463E+03  0.23652727360E+03  0.17188095536E+03 0.  0.
        -24    2    5    5    0    0 -0.60362660595E+02 -0.14486830762E+03 -0.60099678241E+02  0.18574626013E+03  0.79115260741E+02 0.  0.
          5    1    3    3  501    0  0.61653562863E+02 -0.17507422179E+01 -0.84089658440E+02  0.10439055306E+03  0.47000000000E+01 0. -1.
        -11    1    4    4    0    0  0.21152259824E+02 -0.11782657188E+01 -0.42420764233E+01  0.21605592289E+02  0.00000000000E+00 0.  1.
         12    1    4    4    0    0 -0.24956964802E+02  0.11704943247E+03 -0.59684134837E+02  0.13373711409E+03  0.00000000000E+00 0. -1.
         -5    1    5    5    0  502  0.25138027106E+01  0.30747883083E+02 -0.40060826393E+02  0.50781013474E+02  0.47000000000E+01 0.  1.
         13    1    6    6    0    0  0.18857367524E+02 -0.17449426314E+02 -0.98917757440E+01  0.27530528800E+02  0.00000000000E+00 0. -1.
        -14    1    6    6    0    0 -0.79220028119E+02 -0.12741888130E+03 -0.50207902497E+02  0.15821573133E+03  0.00000000000E+00 0.  1.
</event>
<event>
12    1  0.1594973E-001  0.2079651E+03  0.7818608E-02  0.1143372E+00
         21   -1    0    0  503  502  0.00000000000E+00  0.00000000000E+00  0.12633871896E+03  0.12633871896E+03  0.00000000000E+00 0.  1.
         21   -1    0    0  501  503 -0.00000000000E+00 -0.00000000000E+00 -0.70942140867E+03  0.70942140867E+03  0.00000000000E+00 0.  1.
          6    2    1    2  501    0  0.55783501781E+02 -0.10160338482E+03 -0.59244772374E+03  0.62758430928E+03  0.17155964857E+03 0.  0.
         24    2    3    3    0    0  0.61323840741E+02 -0.13359787258E+03 -0.43587756052E+03  0.46761353504E+03  0.84048589405E+02 0.  0.
         -6    2    1    2    0  502 -0.55783501781E+02  0.10160338482E+03  0.93650340308E+01  0.20817581835E+03  0.17266852813E+03 0.  0.
        -24    2    5    5    0    0  0.26321599026E+02  0.18096306571E+02 -0.18620912543E+02  0.87676926649E+02  0.79499699344E+02 0.  0.
          5    1    3    3  501    0 -0.55403389601E+01  0.31994487764E+02 -0.15657016321E+03  0.15997077424E+03  0.47000000000E+01 0. -1.
        -13    1    4    4    0    0  0.48427282871E+02 -0.75204772017E+02 -0.14283285294E+03  0.16852947321E+03  0.00000000000E+00 0.  1.
         14    1    4    4    0    0  0.12896557870E+02 -0.58393100564E+02 -0.29304470759E+03  0.29908406183E+03  0.00000000000E+00 0. -1.
         -5    1    5    5    0  502 -0.82105100806E+02  0.83507078246E+02  0.27985946574E+02  0.12049889170E+03  0.47000000000E+01 0.  1.
         11    1    6    6    0    0  0.51052810424E+02 -0.58632618986E+00  0.86918542840E+00  0.51063575217E+02  0.00000000000E+00 0. -1.
        -12    1    6    6    0    0 -0.24731211398E+02  0.18682632761E+02 -0.19490097972E+02  0.36613351432E+02  0.00000000000E+00 0.  1.
</event>
<event>
12    1  0.1594973E-001  0.2909303E+03  0.7818608E-02  0.1089902E+00
         21   -1    0    0  503  502  0.00000000000E+00  0.00000000000E+00  0.23522474087E+04  0.23522474087E+04  0.00000000000E+00 0.  1.
         21   -1    0    0  501  503 -0.00000000000E+00 -0.00000000000E+00 -0.37637688270E+02  0.37637688270E+02  0.00000000000E+00 0.  1.
          6    2    1    2  501    0 -0.10648393349E+03  0.20875704204E+03  0.90460174403E+03  0.95023403958E+03  0.17240093959E+03 0.  0.
         24    2    3    3    0    0 -0.11042232489E+03  0.17371139597E+03  0.87934305077E+03  0.90660148498E+03  0.79456357229E+02 0.  0.
         -6    2    1    2    0  502  0.10648393349E+03 -0.20875704204E+03  0.14100079764E+04  0.14396510573E+04  0.17191376574E+03 0.  0.
        -24    2    5    5    0    0  0.31351019261E+02 -0.12420732828E+03  0.52933003160E+03  0.55172688194E+03  0.88328495378E+02 0.  0.
          5    1    3    3  501    0  0.39383914052E+01  0.35045646068E+02  0.25258693256E+02  0.43632554592E+02  0.47000000000E+01 0. -1.
        -13    1    4    4    0    0 -0.83435759605E+02  0.68251780591E+02  0.35180821988E+03  0.36795224569E+03  0.00000000000E+00 0.  1.
         14    1    4    4    0    0 -0.26986565285E+02  0.10545961538E+03  0.52753483090E+03  0.53864923930E+03  0.00000000000E+00 0. -1.
         -5    1    5    5    0  502  0.75132914224E+02 -0.84549713757E+02  0.88067794475E+03  0.88792417541E+03  0.47000000000E+01 0.  1.
         13    1    6    6    0    0 -0.21659812231E+02 -0.74894448116E+02  0.20287778513E+03  0.21734240618E+03  0.00000000000E+00 0. -1.
        -14    1    6    6    0    0  0.53010831492E+02 -0.49312880166E+02  0.32645224647E+03  0.33438447576E+03  0.00000000000E+00 0.  1.
</event>
<event>
12    1  0.1594973E-001  0.1812906E+03  0.7818608E-02  0.1167666E+00
         21   -1    0    0  503  502  0.00000000000E+00  0.00000000000E+00  0.72957821910E+02  0.72957821910E+02  0.00000000000E+00 0.  1.
         21   -1    0    0  501  503 -0.00000000000E+00 -0.00000000000E+00 -0.98079666923E+03  0.98079666923E+03  0.00000000000E+00 0.  1.
          6    2    1    2  501    0 -0.19957095639E+02  0.44628663032E+02 -0.84799885009E+03  0.86716106599E+03  0.17457451527E+03 0.  0.
         24    2    3    3    0    0 -0.56744203951E+02  0.81842696507E+02 -0.50382577492E+03  0.51900108653E+03  0.74857095126E+02 0.  0.
         -6    2    1    2    0  502  0.19957095639E+02 -0.44628663032E+02 -0.59839997229E+02  0.18659342515E+03  0.16984192006E+03 0.  0.
        -24    2    5    5    0    0 -0.54058806477E+01  0.17707272145E+02 -0.82133315390E+02  0.11554322167E+03  0.79130168353E+02 0.  0.
          5    1    3    3  501    0  0.36787108312E+02 -0.37214033475E+02 -0.34417307517E+03  0.34815997946E+03  0.47000000000E+01 0. -1.
        -13    1    4    4    0    0 -0.33077238956E+02  0.56080499987E+02 -0.45078453041E+03  0.45546220378E+03  0.00000000000E+00 0.  1.
         14    1    4    4    0    0 -0.23666964994E+02  0.25762196520E+02 -0.53041244504E+02  0.63538882742E+02  0.00000000000E+00 0. -1.
         -5    1    5    5    0  502  0.25362976287E+02 -0.62335935177E+02  0.22293318161E+02  0.71050203484E+02  0.47000000000E+01 0.  1.
         11    1    6    6    0    0 -0.14298407302E+02 -0.82735633569E+01 -0.86212887860E+02  0.87781309714E+02  0.00000000000E+00 0. -1.
        -12    1    6    6    0    0  0.88925266544E+01  0.25980835502E+02  0.40795724694E+01  0.27761911952E+02  0.00000000000E+00 0.  1.
</event>
<event>
12    1  0.1594973E-001  0.3686318E+03  0.7818608E-02  0.1055367E+00
         21   -1    0    0  501  502  0.00000000000E+00  0.00000000000E+00  0.11161642005E+04  0.11161642005E+04  0.00000000000E+00 0.  1.
         21   -1    0    0  502  503 -0.00000000000E+00 -0.00000000000E+00 -0.14818374104E+03  0.14818374104E+03  0.00000000000E+00 0. -1.
         -6    2    1    2    0  503 -0.27575759680E+03  0.17189845288E+03  0.21354726357E+03  0.42467012802E+03  0.17073650331E+03 0.  0.
        -24    2    3    3    0    0 -0.27548788670E+03  0.17501733607E+03  0.16213608661E+03  0.37294973270E+03  0.79238556867E+02 0.  0.
          6    2    1    2  501    0  0.27575759680E+03 -0.17189845288E+03  0.75443319587E+03  0.83967781351E+03  0.17406335965E+03 0.  0.
         24    2    5    5    0    0  0.23247513757E+03 -0.18155920695E+03  0.72345323409E+03  0.78537726583E+03  0.80152557969E+02 0.  0.
          5    1    5    5  501    0  0.43282459230E+02  0.96607540750E+01  0.30979961777E+02  0.54300547677E+02  0.47000000000E+01 0. -1.
        -13    1    6    6    0    0  0.20258795247E+03 -0.17781914952E+03  0.59143849005E+03  0.64997001156E+03  0.00000000000E+00 0.  1.
         14    1    6    6    0    0  0.29887185096E+02 -0.37400574274E+01  0.13201474405E+03  0.13540725427E+03  0.00000000000E+00 0. -1.
         -5    1    3    3    0  503 -0.26971009538E+00 -0.31188831899E+01  0.51411176963E+02  0.51720395326E+02  0.47000000000E+01 0.  1.
         13    1    4    4    0    0 -0.18642075412E+03  0.83332864948E+02  0.12667102858E+03  0.24029692764E+03  0.00000000000E+00 0. -1.
        -14    1    4    4    0    0 -0.89067132577E+02  0.91684471118E+02  0.35465058027E+02  0.13265280506E+03  0.00000000000E+00 0.  1.
</event>
<event>
12    1  0.1594973E-001  0.2156630E+03  0.7818608E-02  0.1137441E+00
         21   -1    0    0  503  502  0.00000000000E+00  0.00000000000E+00  0.76541106433E+02  0.76541106433E+02  0.00000000000E+00 0. -1.
         21   -1    0    0  501  503 -0.00000000000E+00 -0.00000000000E+00 -0.63571597653E+03  0.63571597653E+03  0.00000000000E+00 0.  1.
          6    2    1    2  501    0 -0.10224229235E+03  0.78915610587E+02 -0.19851722020E+03  0.29203751161E+03  0.17086737994E+03 0.  0.
         24    2    3    3    0    0 -0.33267030435E+02  0.10250567536E+03 -0.16205249065E+03  0.21039288892E+03  0.79937783224E+02 0.  0.
         -6    2    1    2    0  502  0.10224229235E+03 -0.78915610587E+02 -0.36065764989E+03  0.42021957136E+03  0.17271186348E+03 0.  0.
        -24    2    5    5    0    0 -0.69684585917E+01 -0.70573234735E+02 -0.18145633416E+03  0.21014390661E+03  0.78771310795E+02 0.  0.
          5    1    3    3  501    0 -0.68975261916E+02 -0.23590064770E+02 -0.36464729550E+02  0.81644622685E+02  0.47000000000E+01 0. -1.
        -13    1    4    4    0    0 -0.89424898154E+00  0.18807510522E+00 -0.67081427158E+02  0.67087651048E+02  0.00000000000E+00 0.  1.
         14    1    4    4    0    0 -0.32372781454E+02  0.10231760025E+03 -0.94971063496E+02  0.14330523787E+03  0.00000000000E+00 0. -1.
         -5    1    5    5    0  502  0.10921075094E+03 -0.83423758518E+01 -0.17920131574E+03  0.21007566474E+03  0.47000000000E+01 0.  1.
         11    1    6    6    0    0 -0.15412105466E+01 -0.62877038741E+02 -0.55636478383E+02  0.83972108808E+02  0.00000000000E+00 0. -1.
        -12    1    6    6    0    0 -0.54272480451E+01 -0.76961959941E+01 -0.12581985578E+03  0.12617179781E+03  0.00000000000E+00 0.  1.
</event>
<event>
12    1  0.1594973E-001  0.1847394E+03  0.7818608E-02  0.1163404E+00
         21   -1    0    0  501  502  0.00000000000E+00  0.00000000000E+00  0.12650148969E+03  0.12650148969E+03  0.00000000000E+00 0. -1.
         21   -1    0    0  502  503 -0.00000000000E+00 -0.00000000000E+00 -0.35684451382E+03  0.35684451382E+03  0.00000000000E+00 0. -1.
         -6    2    1    2    0  503 -0.38171346101E+02 -0.54301591287E+02 -0.23512298633E+03  0.29901749052E+03  0.17240338296E+03 0.  0.
        -24    2    3    3    0    0 -0.52922622114E+02  0.13688979259E+01 -0.56660258684E+02  0.11143327298E+03  0.80026942957E+02 0.  0.
          6    2    1    2  501    0  0.38171346101E+02  0.54301591287E+02  0.47799621957E+01  0.18432851299E+03  0.17189659153E+03 0.  0.
         24    2    5    5    0    0  0.43861964123E+02  0.99812859067E+02 -0.13720850920E+02  0.13464925459E+03  0.77818258019E+02 0.  0.
          5    1    5    5  501    0 -0.56906180212E+01 -0.45511267779E+02  0.18500813116E+02  0.49679258391E+02  0.47000000000E+01 0. -1.
        -11    1    6    6    0    0 -0.60098828324E+01 -0.10650902535E+02 -0.47435170194E+01  0.13117216556E+02  0.00000000000E+00 0.  1.
         12    1    6    6    0    0  0.49871846955E+02  0.11046376160E+03 -0.89773339007E+01  0.12153203804E+03  0.00000000000E+00 0. -1.
         -5    1    3    3    0  503  0.14751276012E+02 -0.55670489213E+02 -0.17846272765E+03  0.18758421755E+03  0.47000000000E+01 0.  1.
         13    1    4    4    0    0 -0.33467240675E+02 -0.37523415585E+02 -0.42085940030E+02  0.65568965706E+02  0.00000000000E+00 0. -1.
        -14    1    4    4    0    0 -0.19455381439E+02  0.38892313511E+02 -0.14574318654E+02  0.45864307271E+02  0.00000000000E+00 0.  1.
</event>
<event>
12    1  0.1594973E-001  0.2710745E+03  0.7818608E-02  0.1100817E+00
         21   -1    0    0  501  502  0.00000000000E+00  0.00000000000E+00  0.95842066436E+03  0.95842066436E+03  0.00000000000E+00 0.  1.
         21   -1    0    0  502  503 -0.00000000000E+00 -0.00000000000E+00 -0.89001380520E+02  0.89001380520E+02  0.00000000000E+00 0.  1.
         -6    2    1    2    0  503 -0.67177863446E+02  0.19797951423E+03  0.23668780121E+03  0.35906855947E+03  0.17088113343E+03 0.  0.
        -24    2    3    3    0    0  0.15485468176E+02  0.13575886677E+03  0.18523224467E+03  0.24342081991E+03  0.79198746643E+02 0.  0.
          6    2    1    2  501    0  0.67177863446E+02 -0.19797951423E+03  0.63273148263E+03  0.68835348542E+03  0.17254749600E+03 0.  0.
         24    2    5    5    0    0  0.56222390211E+02 -0.20416751344E+03  0.63486232619E+03  0.67475406549E+03  0.86008981927E+02 0.  0.
          5    1    5    5  501    0  0.10955473235E+02  0.61879992105E+01 -0.21308435585E+01  0.13599419925E+02  0.47000000000E+01 0. -1.
        -13    1    6    6    0    0  0.25506375216E+02 -0.29003829728E+02  0.48404370206E+02  0.61925603514E+02  0.00000000000E+00 0.  1.
         14    1    6    6    0    0  0.30716014995E+02 -0.17516368371E+03  0.58645795599E+03  0.61282846198E+03  0.00000000000E+00 0. -1.
         -5    1    3    3    0  503 -0.82663331622E+02  0.62220647465E+02  0.51455556540E+02  0.11564773956E+03  0.47000000000E+01 0.  1.
         13    1    4    4    0    0 -0.28449752547E+02  0.57488720654E+02  0.10494039578E+03  0.12299117077E+03  0.00000000000E+00 0. -1.
        -14    1    4    4    0    0  0.43935220723E+02  0.78270146113E+02  0.80291848893E+02  0.12042964914E+03  0.00000000000E+00 0.  1.
</event>
<event>
12    1  0.1594973E-001  0.1867117E+03  0.7818608E-02  0.1161829E+00
         21   -1    0    0  503  502  0.00000000000E+00  0.00000000000E+00  0.24524859830E+03  0.24524859830E+03  0.00000000000E+00 0. -1.
         21   -1    0    0  501  503 -0.00000000000E+00 -0.00000000000E+00 -0.14097982055E+03  0.14097982055E+03  0.00000000000E+00 0. -1.
          6    2    1    2  501    0 -0.65888637968E+02 -0.28163895523E+02  0.48614094572E+02  0.19139844638E+03  0.17069129287E+03 0.  0.
         24    2    3    3    0    0 -0.15429872250E+02  0.23207904117E+02  0.76426176851E+02  0.11406313261E+03  0.79954674291E+02 0.  0.
         -6    2    1    2    0  502  0.65888637968E+02  0.28163895523E+02  0.55654683168E+02  0.19482997247E+03  0.17241449124E+03 0.  0.
        -24    2    5    5    0    0  0.10480113168E+03  0.40228855538E+02  0.64776692615E+02  0.15281751618E+03  0.80966260424E+02 0.  0.
          5    1    3    3  501    0 -0.50458765718E+02 -0.51371799641E+02 -0.27812082278E+02  0.77335313775E+02  0.47000000000E+01 0. -1.
        -11    1    4    4    0    0  0.18750646044E+01 -0.11703205751E+02 -0.12346945303E+02  0.17115138050E+02  0.00000000000E+00 0.  1.
         12    1    4    4    0    0 -0.17304936855E+02  0.34911109869E+02  0.88773122154E+02  0.96947994558E+02  0.00000000000E+00 0. -1.
         -5    1    5    5    0  502 -0.38912493709E+02 -0.12064960015E+02 -0.91220094473E+01  0.42012456286E+02  0.47000000000E+01 0.  1.
         13    1    6    6    0    0  0.52823137957E+02 -0.21315115849E+02  0.18372120879E+02  0.59851089321E+02  0.00000000000E+00 0. -1.
        -14    1    6    6    0    0  0.51977993720E+02  0.61543971387E+02  0.46404571736E+02  0.92966426861E+02  0.00000000000E+00 0.  1.
</event>
<event>
12    1  0.1594973E-001  0.2306128E+03  0.7818608E-02  0.1127122E+00
         21   -1    0    0  501  502  0.00000000000E+00  0.00000000000E+00  0.10176346565E+04  0.10176346565E+04  0.00000000000E+00 0.  1.
         21   -1    0    0  502  503 -0.00000000000E+00 -0.00000000000E+00 -0.99137814376E+02  0.99137814376E+02  0.00000000000E+00 0.  1.
         -6    2    1    2    0  503  0.14265193808E+03  0.31572280847E+02  0.67902317162E+02  0.23547041139E+03  0.17172421381E+03 0.  0.
        -24    2    3    3    0    0  0.11430525250E+03  0.77972719147E+02  0.18638827002E+02  0.16194819216E+03  0.82063240198E+02 0.  0.
          6    2    1    2  501    0 -0.14265193808E+03 -0.31572280847E+02  0.85059452494E+03  0.88130205946E+03  0.17842614663E+03 0.  0.
         24    2    5    5    0    0 -0.13065098675E+03 -0.20747185304E+01  0.82730719327E+03  0.84157148142E+03  0.82044996828E+02 0.  0.
          5    1    5    5  501    0 -0.12000951322E+02 -0.29497562317E+02  0.23287331667E+02  0.39730578041E+02  0.47000000000E+01 0. -1.
        -11    1    6    6    0    0 -0.90068333803E+02 -0.35862237069E+01  0.73775475769E+03  0.74324104317E+03  0.00000000000E+00 0.  1.
         12    1    6    6    0    0 -0.40582652951E+02  0.15115051764E+01  0.89552435582E+02  0.98330438253E+02  0.00000000000E+00 0. -1.
         -5    1    3    3    0  503  0.28346685572E+02 -0.46400438300E+02  0.49263490160E+02  0.73522219228E+02  0.47000000000E+01 0.  1.
         11    1    4    4    0    0  0.10578927442E+03  0.87514715742E+02 -0.24114602107E+01  0.13731719191E+03  0.00000000000E+00 0. -1.
        -12    1    4    4    0    0  0.85159780824E+01 -0.95419965941E+01  0.21050287213E+02  0.24631000252E+02  0.00000000000E+00 0.  1.
</event>
<event>
12    1  0.1594973E-001  0.2100069E+03  0.7818608E-02  0.1141663E+00
         21   -1    0    0  501  502  0.00000000000E+00  0.00000000000E+00  0.49607936664E+03  0.49607936664E+03  0.00000000000E+00 0. -1.
         21   -1    0    0  502  503 -0.00000000000E+00 -0.00000000000E+00 -0.14320683945E+03  0.14320683945E+03  0.00000000000E+00 0. -1.
         -6    2    1    2    0  503  0.37079196150E+02 -0.11330488225E+03 -0.20659683611E+02  0.21102070096E+03  0.17288739277E+03 0.  0.
        -24    2    3    3    0    0  0.21755666545E+02 -0.14887532652E+03 -0.19003701743E+02  0.17197074142E+03  0.81090217356E+02 0.  0.
          6    2    1    2  501    0 -0.37079196150E+02  0.11330488225E+03  0.37353221080E+03  0.42826550513E+03  0.17225610947E+03 0.  0.
         24    2    5    5    0    0 -0.46084820183E+02  0.81393302925E+01  0.10190306364E+03  0.13681160110E+03  0.78378061149E+02 0.  0.
          5    1    5    5  501    0  0.90056240335E+01  0.10516555196E+03  0.27162914716E+03  0.29145390403E+03  0.47000000000E+01 0. -1.
        -11    1    6    6    0    0 -0.21591464004E+02 -0.32519678019E+02  0.68254503834E+02  0.78628226928E+02  0.00000000000E+00 0.  1.
         12    1    6    6    0    0 -0.24493356179E+02  0.40659008311E+02  0.33648559801E+02  0.58183374176E+02  0.00000000000E+00 0. -1.
         -5    1    3    3    0  503  0.15323529605E+02  0.35570444265E+02 -0.16559818683E+01  0.39049959548E+02  0.47000000000E+01 0.  1.
         11    1    4    4    0    0  0.34340737287E+02 -0.78786725627E+02  0.23423240104E+02  0.89080202904E+02  0.00000000000E+00 0. -1.
        -12    1    4    4    0    0 -0.12585070742E+02 -0.70088600891E+02 -0.42426941847E+02  0.82890538512E+02  0.00000000000E+00 0.  1.
</event>
<event>
12    1  0.1594973E-001  0.1714592E+03  0.7818608E-02  0.1178314E+00
         21   -1    0    0  503  502  0.00000000000E+00  0.00000000000E+00  0.78562846189E+03  0.78562846189E+03  0.00000000000E+00 0.  1.
         21   -1    0    0  501  503 -0.00000000000E+00 -0.00000000000E+00 -0.89497765967E+02  0.89497765967E+02  0.00000000000E+00 0.  1.
          6    2    1    2  501    0  0.11815730480E+02 -0.25301322938E+01  0.12284832668E+02  0.17189872591E+03  0.17103286760E+03 0.  0.
         24    2    3    3    0    0  0.58055193779E+02  0.38224666459E+02 -0.98953316692E+01  0.10622459647E+03  0.79713340514E+02 0.  0.
         -6    2    1    2    0  502 -0.11815730480E+02  0.25301322938E+01  0.68384586325E+03  0.70322750194E+03  0.16351679347E+03 0.  0.
        -24    2    5    5    0    0 -0.63379384121E+02  0.38985961166E+02  0.49595025676E+03  0.50494818690E+03  0.58899599085E+02 0.  0.
          5    1    3    3  501    0 -0.46239463300E+02 -0.40754798753E+02  0.22180164337E+02  0.65674129440E+02  0.47000000000E+01 0. -1.
        -11    1    4    4    0    0 -0.16231484821E+02 -0.37317157840E+01  0.88691669247E+01  0.18869258707E+02  0.00000000000E+00 0.  1.
         12    1    4    4    0    0  0.74286678601E+02  0.41956382243E+02 -0.18764498594E+02  0.87355337764E+02  0.00000000000E+00 0. -1.
         -5    1    5    5    0  502  0.51563653642E+02 -0.36455828872E+02  0.18789560649E+03  0.19827931504E+03  0.47000000000E+01 0.  1.
         11    1    6    6    0    0 -0.32841046316E+02 -0.10998856991E+02  0.14061970336E+03  0.14482199471E+03  0.00000000000E+00 0. -1.
        -12    1    6    6    0    0 -0.30538337805E+02  0.49984818157E+02  0.35533055340E+03  0.36012619219E+03  0.00000000000E+00 0.  1.
</event>
<event>
12    1  0.1594973E-001  0.1827109E+03  0.7818608E-02  0.1165446E+00
         21   -1    0    0  501  502  0.00000000000E+00  0.00000000000E+00  0.18271735374E+03  0.18271735374E+03  0.00000000000E+00 0. -1.
         21   -1    0    0  502  503 -0.00000000000E+00 -0.00000000000E+00 -0.57527311761E+03  0.57527311761E+03  0.00000000000E+00 0. -1.
         -6    2    1    2    0  503  0.30907026544E+02 -0.53524311787E+02 -0.50993299927E+03  0.54167790311E+03  0.17193949728E+03 0.  0.
        -24    2    3    3    0    0  0.11826522897E+02 -0.23753691404E+02 -0.10322292206E+03  0.13340650764E+03  0.80238520307E+02 0.  0.
          6    2    1    2  501    0 -0.30907026544E+02  0.53524311787E+02  0.11737723540E+03  0.21631256825E+03  0.17086139280E+03 0.  0.
         24    2    5    5    0    0  0.38801935810E+02  0.48823580863E+02  0.33754995624E+02  0.10724284152E+03  0.80450575242E+02 0.  0.
          5    1    5    5  501    0 -0.69708962354E+02  0.47007309240E+01  0.83622239778E+02  0.10906972673E+03  0.47000000000E+01 0. -1.
        -11    1    6    6    0    0  0.36118213291E+02 -0.20404906123E-01 -0.14135019191E+02  0.38785622533E+02  0.00000000000E+00 0.  1.
         12    1    6    6    0    0  0.26837225187E+01  0.48843985769E+02  0.47890014816E+02  0.68457218987E+02  0.00000000000E+00 0. -1.
         -5    1    3    3    0  503  0.19080503647E+02 -0.29770620383E+02 -0.40671007721E+03  0.40827139547E+03  0.47000000000E+01 0.  1.
         13    1    4    4    0    0 -0.34339743296E+02 -0.10451835121E+02 -0.51914452481E+02  0.63115522683E+02  0.00000000000E+00 0. -1.
        -14    1    4    4    0    0  0.46166266193E+02 -0.13301856283E+02 -0.51308469581E+02  0.70290984952E+02  0.00000000000E+00 0.  1.
</event>
<event>
12    1  0.1594973E-001  0.1875392E+03  0.7818608E-02  0.1161192E+00
         21   -1    0    0  501  502  0.00000000000E+00  0.00000000000E+00  0.35043427549E+03  0.35043427549E+03  0.00000000000E+00 0. -1.
         21   -1    0    0  502  503 -0.00000000000E+00 -0.00000000000E+00 -0.10367795046E+03  0.10367795046E+03  0.00000000000E+00 0. -1.
         -6    2    1    2    0  503 -0.23445787733E+02 -0.66540492368E+02  0.75652022230E+02  0.20024687524E+03  0.17145915108E+03 0.  0.
        -24    2    3    3    0    0 -0.28422415556E+01  0.13084345350E+02 -0.93956485708E+01  0.81841566215E+02  0.80190306885E+02 0.  0.
          6    2    1    2  501    0  0.23445787733E+02  0.66540492368E+02  0.17110430280E+03  0.25386535071E+03  0.17376303338E+03 0.  0.
         24    2    5    5    0    0  0.31734317695E+02 -0.15813650379E+02  0.47864498409E+02  0.10533574443E+03  0.86876178493E+02 0.  0.
          5    1    5    5  501    0 -0.82885299613E+01  0.82354142747E+02  0.12323980439E+03  0.14852960628E+03  0.47000000000E+01 0. -1.
        -11    1    6    6    0    0  0.24911673803E+02  0.25576253664E+02 -0.68872314353E+01  0.36361658378E+02  0.00000000000E+00 0.  1.
         12    1    6    6    0    0  0.68226438918E+01 -0.41389904043E+02  0.54751729844E+02  0.68974086056E+02  0.00000000000E+00 0. -1.
         -5    1    3    3    0  503 -0.20603546178E+02 -0.79624837718E+02  0.85047670800E+02  0.11840530902E+03  0.47000000000E+01 0.  1.
         13    1    4    4    0    0  0.15024886023E+02 -0.19290774011E+02 -0.30635811766E+02  0.39197373949E+02  0.00000000000E+00 0. -1.
        -14    1    4    4    0    0 -0.17867127578E+02  0.32375119361E+02  0.21240163195E+02  0.42644192267E+02  0.00000000000E+00 0.  1.
</event>
<event>
12    1  0.1594973E-001  0.2168841E+03  0.7818608E-02  0.1136385E+00
         21   -1    0    0  501  502  0.00000000000E+00  0.00000000000E+00  0.32614538339E+03  0.32614538339E+03  0.00000000000E+00 0.  1.
         21   -1    0    0  502  503 -0.00000000000E+00 -0.00000000000E+00 -0.14793764482E+03  0.14793764482E+03  0.00000000000E+00 0. -1.
         -6    2    1    2    0  503  0.12781375369E+03  0.24677708777E+02  0.49044815944E+02  0.22236031868E+03  0.17347441428E+03 0.  0.
        -24    2    3    3    0    0  0.99937121221E+02  0.80726300118E+02  0.37948818131E+01  0.14497687233E+03  0.67080016807E+02 0.  0.
          6    2    1    2  501    0 -0.12781375369E+03 -0.24677708777E+02  0.12916292262E+03  0.25172270953E+03  0.17244105361E+03 0.  0.
         24    2    5    5    0    0 -0.14790160529E+02  0.40344270370E+01  0.96931937107E+02  0.13064568536E+03  0.86240763117E+02 0.  0.
          5    1    5    5  501    0 -0.11302359316E+03 -0.28712135814E+02  0.32230985514E+02  0.12107702417E+03  0.47000000000E+01 0. -1.
        -11    1    6    6    0    0 -0.41968777869E+02  0.26786129026E+02  0.71046194084E+02  0.86755038573E+02  0.00000000000E+00 0.  1.
         12    1    6    6    0    0  0.27178617340E+02 -0.22751701989E+02  0.25885743023E+02  0.43890646791E+02  0.00000000000E+00 0. -1.
         -5    1    3    3    0  503  0.27876632468E+02 -0.56048591341E+02  0.45249934131E+02  0.77383446343E+02  0.47000000000E+01 0.  1.
         13    1    4    4    0    0  0.42151558887E+00  0.29827440676E+02  0.13573098728E+02  0.32773204020E+02  0.00000000000E+00 0. -1.
        -14    1    4    4    0    0  0.99515605632E+02  0.50898859442E+02 -0.97782169153E+01  0.11220366831E+03  0.00000000000E+00 0.  1.
</event>
<event>
12    1  0.1594973E-001  0.2203209E+03  0.7818608E-02  0.1134556E+00
         21   -1    0    0  503  502  0.00000000000E+00  0.00000000000E+00  0.99418405313E+03  0.99418405313E+03  0.00000000000E+00 0.  1.
         21   -1    0    0  501  503 -0.00000000000E+00 -0.00000000000E+00 -0.93885829681E+02  0.93885829681E+02  0.00000000000E+00 0.  1.
          6    2    1    2  501    0  0.74991151999E+02  0.11421587834E+03  0.66277870499E+02  0.22543945249E+03  0.16661707858E+03 0.  0.
         24    2    3    3    0    0 -0.18928968070E+02  0.56523710267E+02  0.49958501388E+01  0.99237427026E+02  0.79182528057E+02 0.  0.
         -6    2    1    2    0  502 -0.74991151999E+02 -0.11421587834E+03  0.83402035295E+03  0.86263043033E+03  0.17283625327E+03 0.  0.
        -24    2    5    5    0    0 -0.15137059400E+02 -0.27391354811E+02  0.16780220440E+03  0.18810117096E+03  0.79025652974E+02 0.  0.
          5    1    3    3  501    0  0.93920120069E+02  0.57692168073E+02  0.61282020360E+02  0.12620202546E+03  0.47000000000E+01 0. -1.
        -13    1    4    4    0    0 -0.11022815426E+02  0.52759949888E+02 -0.31009362977E+02  0.62182757774E+02  0.00000000000E+00 0.  1.
         14    1    4    4    0    0 -0.79061526442E+01  0.37637603792E+01  0.36005213116E+02  0.37054669252E+02  0.00000000000E+00 0. -1.
         -5    1    5    5    0  502 -0.59854092599E+02 -0.86824523530E+02  0.66621814855E+03  0.67452925937E+03  0.47000000000E+01 0.  1.
         11    1    6    6    0    0 -0.28500570413E+02 -0.33503440606E+02  0.39990514094E+02  0.59447491652E+02  0.00000000000E+00 0. -1.
        -12    1    6    6    0    0  0.13363511013E+02  0.61120857946E+01  0.12781169031E+03  0.12865367931E+03  0.00000000000E+00 0.  1.
</event>
<event>
12    1  0.1594973E-001  0.2232571E+03  0.7818608E-02  0.1131486E+00
         21   -1    0    0  503  502  0.00000000000E+00  0.00000000000E+00  0.20948184530E+03  0.20948184530E+03  0.00000000000E+00 0. -1.
         21   -1    0    0  501  503 -0.00000000000E+00 -0.00000000000E+00 -0.30814287589E+03  0.30814287589E+03  0.00000000000E+00 0. -1.
          6    2    1    2  501    0  0.65065860247E+02  0.12591808251E+03  0.74252385462E+02  0.23523709111E+03  0.17243590871E+03 0.  0.
         24    2    3    3    0    0 -0.65579273797E+01  0.40872720636E+02 -0.17870755669E+02  0.90767566080E+02  0.78776909309E+02 0.  0.
         -6    2    1    2    0  502 -0.65065860247E+02 -0.12591808251E+03 -0.17291341605E+03  0.28238763008E+03  0.17249578111E+03 0.  0.
        -24    2    5    5    0    0 -0.14783431092E+02 -0.14208725176E+03 -0.96217988312E+02  0.18914577600E+03  0.78172158458E+02 0.  0.
          5    1    3    3  501    0  0.71623787626E+02  0.85045361869E+02  0.92123141130E+02  0.14446952503E+03  0.47000000000E+01 0. -1.
        -13    1    4    4    0    0 -0.24497258992E+02 -0.42448880386E+01  0.17750752163E+02  0.30548714784E+02  0.00000000000E+00 0.  1.
         14    1    4    4    0    0  0.17939331612E+02  0.45117608675E+02 -0.35621507832E+02  0.60218851296E+02  0.00000000000E+00 0. -1.
         -5    1    5    5    0  502 -0.50282429154E+02  0.16169169250E+02 -0.76695427737E+02  0.93241854077E+02  0.47000000000E+01 0. -1.
         11    1    6    6    0    0 -0.36233436205E+02 -0.10544212257E+03 -0.39477867336E+02  0.11827681566E+03  0.00000000000E+00 0. -1.
        -12    1    6    6    0    0  0.21450005113E+02 -0.36645129181E+02 -0.56740120976E+02  0.70868960345E+02  0.00000000000E+00 0.  1.
</event>
<event>
12    1  0.1594973E-001  0.1887085E+03  0.7818608E-02  0.1161481E+00
         21   -1    0    0  501  502  0.00000000000E+00  0.00000000000E+00  0.31398390207E+02  0.31398390207E+02  0.00000000000E+00 0.  1.
         21   -1    0    0  502  503 -0.00000000000E+00 -0.00000000000E+00 -0.16099903818E+04  0.16099903818E+04  0.00000000000E+00 0.  1.
         -6    2    1    2    0  503 -0.76122345054E+02 -0.14398245834E+02 -0.12684672054E+04  0.12824273642E+04  0.17207257892E+03 0.  0.
        -24    2    3    3    0    0 -0.35335488461E+02  0.43687535215E+01 -0.27865713811E+03  0.29158841300E+03  0.78142940984E+02 0.  0.
          6    2    1    2  501    0  0.76122345054E+02  0.14398245834E+02 -0.31012478619E+03  0.35896140779E+03  0.16332173270E+03 0.  0.
         24    2    5    5    0    0  0.10331828126E+03  0.87898359631E+01 -0.16289631126E+03  0.20906348573E+03  0.80127425921E+02 0.  0.
          5    1    5    5  501    0 -0.27195936203E+02  0.56084098709E+01 -0.14722847493E+03  0.14989792206E+03  0.47000000000E+01 0. -1.
        -13    1    6    6    0    0  0.31283215733E+02  0.18996520720E+02 -0.73315099107E+01  0.37326377049E+02  0.00000000000E+00 0.  1.
         14    1    6    6    0    0  0.72035065524E+02 -0.10206684757E+02 -0.15556480135E+03  0.17173710868E+03  0.00000000000E+00 0. -1.
         -5    1    3    3    0  503 -0.40786856593E+02 -0.18766999356E+02 -0.98981006726E+03  0.99083895119E+03  0.47000000000E+01 0.  1.
         13    1    4    4    0    0 -0.98542662443E+01 -0.36383649510E+02 -0.12999944439E+03  0.13535409878E+03  0.00000000000E+00 0. -1.
        -14    1    4    4    0    0 -0.25481222217E+02  0.40752403031E+02 -0.14865769372E+03  0.15623431423E+03  0.00000000000E+00 0.  1.
</event>
<event>
12    1  0.1594973E-001  0.2260624E+03  0.7818608E-02  0.1129544E+00
         21   -1    0    0  501  502  0.00000000000E+00  0.00000000000E+00  0.50699783418E+03  0.50699783418E+03  0.00000000000E+00 0.  1.
         21   -1    0    0  502  503 -0.00000000000E+00 -0.00000000000E+00 -0.15718713373E+03  0.15718713373E+03  0.00000000000E+00 0. -1.
         -6    2    1    2    0  503  0.80934032693E+02  0.12080664399E+03 -0.24304333132E+02  0.22736512401E+03  0.17308852107E+03 0.  0.
        -24    2    3    3    0    0  0.92644794141E+02  0.25460448991E+02 -0.32525367323E+02  0.13083681605E+03  0.82638251255E+02 0.  0.
          6    2    1    2  501    0 -0.80934032693E+02 -0.12080664399E+03  0.37411503358E+03  0.43681984390E+03  0.17235125412E+03 0.  0.
         24    2    5    5    0    0 -0.64667460977E+02 -0.25569128588E+02  0.29466713980E+03  0.31164459267E+03  0.73878061809E+02 0.  0.
          5    1    5    5  501    0 -0.16266571716E+02 -0.95237515400E+02  0.79447893778E+02  0.12517525123E+03  0.47000000000E+01 0. -1.
        -13    1    6    6    0    0 -0.76218980266E+02 -0.26760519976E+02  0.28590269552E+03  0.29709562381E+03  0.00000000000E+00 0.  1.
         14    1    6    6    0    0  0.11551519290E+02  0.11913913875E+01  0.87644442814E+01  0.14548968860E+02  0.00000000000E+00 0. -1.
         -5    1    3    3    0  503 -0.11710761448E+02  0.95346194997E+02  0.82210341909E+01  0.96528307958E+02  0.47000000000E+01 0.  1.
         11    1    4    4    0    0  0.26802611915E+02  0.45463251318E+02  0.40059243373E+01  0.52927636030E+02  0.00000000000E+00 0. -1.
        -12    1    4    4    0    0  0.65842182225E+02 -0.20002802327E+02 -0.36531291661E+02  0.77909180021E+02  0.00000000000E+00 0.  1.
</event>
<event>
12    1  0.1594973E-001  0.2247287E+03  0.7818608E-02  0.1130623E+00
         21   -1    0    0  503  502  0.00000000000E+00  0.00000000000E+00  0.51752797251E+03  0.51752797251E+03  0.00000000000E+00 0.  1.
         21   -1    0    0  501  503 -0.00000000000E+00 -0.00000000000E+00 -0.11096829020E+03  0.11096829020E+03  0.00000000000E+00 0. -1.
          6    2    1    2  501    0 -0.10024944767E+03  0.10206056531E+03  0.31402876672E+03  0.38546340936E+03  0.17176048112E+03 0.  0.
         24    2    3    3    0    0 -0.13134888389E+03  0.10097209618E+03  0.29741528110E+03  0.34987608573E+03  0.80681673414E+02 0.  0.
         -6    2    1    2    0  502  0.10024944767E+03 -0.10206056531E+03  0.92530915585E+02  0.24303285336E+03  0.17331095385E+03 0.  0.
        -24    2    5    5    0    0 -0.42623812885E+01 -0.79859670254E+02  0.22206367646E+02  0.11503584490E+03  0.79651666773E+02 0.  0.
          5    1    3    3  501    0  0.31099436223E+02  0.10884691256E+01  0.16613485622E+02  0.35587323627E+02  0.47000000000E+01 0. -1.
        -11    1    4    4    0    0 -0.13536447589E+03  0.95750991071E+02  0.30002384489E+03  0.34279162931E+03  0.00000000000E+00 0.  1.
         12    1    4    4    0    0  0.40155919947E+01  0.52211051114E+01 -0.26085637908E+01  0.70844564155E+01  0.00000000000E+00 0. -1.
         -5    1    5    5    0  502  0.10451182896E+03 -0.22200895054E+02  0.70324547939E+02  0.12799700846E+03  0.47000000000E+01 0.  1.
         11    1    6    6    0    0  0.95506658024E+01  0.12560750471E+02 -0.68120551758E+01  0.17186964985E+02  0.00000000000E+00 0. -1.
        -12    1    6    6    0    0 -0.13813047091E+02 -0.92420420726E+02  0.29018422821E+02  0.97848879912E+02  0.00000000000E+00 0.  1.
</event>
<event>
12    1  0.1594973E-001  0.3838741E+03  0.7818608E-02  0.1049582E+00
         21   -1    0    0  503  502  0.00000000000E+00  0.00000000000E+00  0.25565969341E+03  0.25565969341E+03  0.00000000000E+00 0. -1.
         21   -1    0    0  501  503 -0.00000000000E+00 -0.00000000000E+00 -0.57939941582E+03  0.57939941582E+03  0.00000000000E+00 0.  1.
          6    2    1    2  501    0 -0.27254921783E+03  0.20702877691E+03 -0.12626605960E+03  0.40337038486E+03  0.17210624325E+03 0.  0.
         24    2    3    3    0    0 -0.23668108356E+03  0.10923464151E+03 -0.12152450873E+03  0.29899228237E+03  0.81719254014E+02 0.  0.
         -6    2    1    2    0  502  0.27254921783E+03 -0.20702877691E+03 -0.19747366281E+03  0.43168872437E+03  0.17382553506E+03 0.  0.
        -24    2    5    5    0    0  0.19013487215E+03 -0.13270491422E+03 -0.20994404464E+03  0.31991322902E+03  0.67127552862E+02 0.  0.
          5    1    3    3  501    0 -0.35868134273E+02  0.97794135392E+02 -0.47415508676E+01  0.10437810248E+03  0.47000000000E+01 0. -1.
        -11    1    4    4    0    0 -0.71395941572E+02  0.14489594081E+02  0.30976977339E+00  0.72852074554E+02  0.00000000000E+00 0.  1.
         12    1    4    4    0    0 -0.16528514198E+03  0.94745047434E+02 -0.12183427850E+03  0.22614020782E+03  0.00000000000E+00 0. -1.
         -5    1    5    5    0  502  0.82414345680E+02 -0.74323862685E+02  0.12470381833E+02  0.11177549535E+03  0.47000000000E+01 0.  1.
         13    1    6    6    0    0  0.18128437115E+03 -0.12344427106E+03 -0.16862198922E+03  0.27665120012E+03  0.00000000000E+00 0. -1.
        -14    1    6    6    0    0  0.88505010020E+01 -0.92606431571E+01 -0.41322055423E+02  0.43262028894E+02  0.00000000000E+00 0.  1.
</event>
<event>
12    1  0.1594973E-001  0.1746629E+03  0.7818608E-02  0.1173526E+00
         21   -1    0    0  503  502  0.00000000000E+00  0.00000000000E+00  0.26101895679E+03  0.26101895679E+03  0.00000000000E+00 0. -1.
         21   -1    0    0  501  503 -0.00000000000E+00 -0.00000000000E+00 -0.37884852675E+03  0.37884852675E+03  0.00000000000E+00 0. -1.
          6    2    1    2  501    0 -0.30265118022E+00  0.22294763454E+02 -0.32566093889E+03  0.36954318529E+03  0.17323386102E+03 0.  0.
         24    2    3    3    0    0  0.59920473024E+02  0.47482324695E+02 -0.19582807177E+03  0.22414751371E+03  0.77771716994E+02 0.  0.
         -6    2    1    2    0  502  0.30265118022E+00 -0.22294763454E+02  0.20783136892E+03  0.27032429826E+03  0.17141820278E+03 0.  0.
        -24    2    5    5    0    0  0.43493287421E+01 -0.39559073086E+02  0.22746910318E+03  0.24345121520E+03  0.77087381323E+02 0.  0.
          5    1    3    3  501    0 -0.60223124204E+02 -0.25187561241E+02 -0.12983286711E+03  0.14539567158E+03  0.47000000000E+01 0. -1.
        -13    1    4    4    0    0  0.41959199918E+02  0.68073726435E+02 -0.16200723710E+03  0.18066807012E+03  0.00000000000E+00 0.  1.
         14    1    4    4    0    0  0.17961273107E+02 -0.20591401739E+02 -0.33820834669E+02  0.43479443590E+02  0.00000000000E+00 0. -1.
         -5    1    5    5    0  502 -0.40466775619E+01  0.17264309631E+02 -0.19637734253E+02  0.26873083056E+02  0.47000000000E+01 0.  1.
         13    1    6    6    0    0 -0.14344336979E+02  0.15655029697E+02  0.25214688364E+02  0.32963926760E+02  0.00000000000E+00 0. -1.
        -14    1    6    6    0    0  0.18693665721E+02 -0.55214102782E+02  0.20225441481E+03  0.21048728844E+03  0.00000000000E+00 0.  1.
</event>
<event>
12    1  0.1594973E-001  0.1938351E+03  0.7818608E-02  0.1155524E+00
         21   -1    0    0  501  502  0.00000000000E+00  0.00000000000E+00  0.24253183594E+03  0.24253183594E+03  0.00000000000E+00 0.  1.
         21   -1    0    0  502  503 -0.00000000000E+00 -0.00000000000E+00 -0.42152308388E+03  0.42152308388E+03  0.00000000000E+00 0.  1.
         -6    2    1    2    0  503 -0.59119618106E+02 -0.66444816123E+02 -0.35458403347E+03  0.40410629554E+03  0.17222664855E+03 0.  0.
        -24    2    3    3    0    0 -0.98630306472E+02 -0.73051487746E+02 -0.31169281136E+03  0.34522939397E+03  0.83465373589E+02 0.  0.
          6    2    1    2  501    0  0.59119618106E+02  0.66444816123E+02  0.17559278552E+03  0.25994862428E+03  0.16979522403E+03 0.  0.
         24    2    5    5    0    0 -0.53095391505E+01  0.80597781847E+02  0.15199542140E+03  0.18973218506E+03  0.79821677990E+02 0.  0.
          5    1    5    5  501    0  0.64429157256E+02 -0.14152965724E+02  0.23597364129E+02  0.70216439224E+02  0.47000000000E+01 0. -1.
        -13    1    6    6    0    0  0.14711738529E+01  0.24073948713E+02  0.12394085828E+03  0.12626581371E+03  0.00000000000E+00 0.  1.
         14    1    6    6    0    0 -0.67807130035E+01  0.56523833134E+02  0.28054563111E+02  0.63466371350E+02  0.00000000000E+00 0. -1.
         -5    1    3    3    0  503  0.39510688366E+02  0.66066716230E+01 -0.42891222105E+02  0.58876901573E+02  0.47000000000E+01 0.  1.
         13    1    4    4    0    0 -0.10252840658E+03 -0.39364688502E+02 -0.19603875529E+03  0.22470613350E+03  0.00000000000E+00 0. -1.
        -14    1    4    4    0    0  0.38981001109E+01 -0.33686799244E+02 -0.11565405607E+03  0.12052326047E+03  0.00000000000E+00 0.  1.
</event>
<event>
12    1  0.1594973E-001  0.3360999E+03  0.7818608E-02  0.1068470E+00
         21   -1    0    0  501  502  0.00000000000E+00  0.00000000000E+00  0.51228143425E+03  0.51228143425E+03  0.00000000000E+00 0. -1.
         21   -1    0    0  502  503 -0.00000000000E+00 -0.00000000000E+00 -0.25154104117E+03  0.25154104117E+03  0.00000000000E+00 0.  1.
         -6    2    1    2    0  503 -0.28888513454E+03 -0.86150734731E+01 -0.37742121337E+01  0.33612112419E+03  0.17156434653E+03 0.  0.
        -24    2    3    3    0    0 -0.10742918517E+03 -0.57272947107E+02  0.19256689977E+02  0.14678976735E+03  0.79719479392E+02 0.  0.
          6    2    1    2  501    0  0.28888513454E+03  0.86150734731E+01  0.26451460522E+03  0.42770135123E+03  0.17155648931E+03 0.  0.
         24    2    5    5    0    0  0.17823129568E+03  0.10582506311E+01  0.79081216517E+02  0.21157867942E+03  0.82122981713E+02 0.  0.
          5    1    5    5  501    0  0.11065383886E+03  0.75568228420E+01  0.18543338870E+03  0.21612267181E+03  0.47000000000E+01 0. -1.
        -13    1    6    6    0    0  0.43017839845E+02  0.36446394558E+02  0.25723917137E+02  0.61972527253E+02  0.00000000000E+00 0.  1.
         14    1    6    6    0    0  0.13521345584E+03 -0.35388143927E+02  0.53357299380E+02  0.14960615217E+03  0.00000000000E+00 0. -1.
         -5    1    3    3    0  503 -0.18145594937E+03  0.48657873634E+02 -0.23030902110E+02  0.18933135683E+03  0.47000000000E+01 0.  1.
         13    1    4    4    0    0 -0.86719985945E+02 -0.48228763790E+02  0.47998482993E+02  0.11022805445E+03  0.00000000000E+00 0. -1.
        -14    1    4    4    0    0 -0.20709199223E+02 -0.90441833167E+01 -0.28741793016E+02  0.36561712899E+02  0.00000000000E+00 0.  1.
</event>
<event>
12    1  0.1594973E-001  0.1918202E+03  0.7818608E-02  0.1156864E+00
         21   -1    0    0  503  502  0.00000000000E+00  0.00000000000E+00  0.18429678086E+03  0.18429678086E+03  0.00000000000E+00 0. -1.
         21   -1    0    0  501  503 -0.00000000000E+00 -0.00000000000E+00 -0.45611903844E+03  0.45611903844E+03  0.00000000000E+00 0. -1.
          6    2    1    2  501    0 -0.63568880526E+02 -0.58998490813E+02 -0.37612006986E+03  0.42221002654E+03  0.17109405328E+03 0.  0.
         24    2    3    3    0    0  0.33127474665E+02 -0.28471489807E+02 -0.17779430960E+03  0.19941577149E+03  0.79042887627E+02 0.  0.
         -6    2    1    2    0  502  0.63568880526E+02  0.58998490813E+02  0.10429781228E+03  0.21820579276E+03  0.17092077071E+03 0.  0.
        -24    2    5    5    0    0  0.58958059387E+02  0.25953105119E+02  0.13873766049E+03  0.17002436136E+03  0.74232934636E+02 0.  0.
          5    1    3    3  501    0 -0.96696355191E+02 -0.30527001006E+02 -0.19832576027E+03  0.22279425505E+03  0.47000000000E+01 0. -1.
        -11    1    4    4    0    0  0.29043758273E+02 -0.51827927839E+02 -0.85435742460E+02  0.10406219337E+03  0.00000000000E+00 0.  1.
         12    1    4    4    0    0  0.40837163917E+01  0.23356438033E+02 -0.92358567137E+02  0.95353578122E+02  0.00000000000E+00 0. -1.
         -5    1    5    5    0  502  0.46108211387E+01  0.33045385694E+02 -0.34439848214E+02  0.48181431405E+02  0.47000000000E+01 0.  1.
         11    1    6    6    0    0  0.43998022474E+02  0.24181369536E+02  0.26480194435E+02  0.56760596469E+02  0.00000000000E+00 0. -1.
        -12    1    6    6    0    0  0.14960036914E+02  0.17717355823E+01  0.11225746606E+03  0.11326376489E+03  0.00000000000E+00 0.  1.
</event>
<event>
12    1  0.1594973E-001  0.2169794E+03  0.7818608E-02  0.1136332E+00
         21   -1    0    0  503  502  0.00000000000E+00  0.00000000000E+00  0.12979070675E+04  0.12979070675E+04  0.00000000000E+00 0. -1.
         21   -1    0    0  501  503 -0.00000000000E+00 -0.00000000000E+00 -0.36263498210E+02  0.36263498210E+02  0.00000000000E+00 0. -1.
          6    2    1    2  501    0 -0.11944659961E+03  0.53235005371E+02  0.59005920096E+03  0.62868903782E+03  0.17314326346E+03 0.  0.
         24    2    3    3    0    0 -0.12208849004E+03  0.88487949188E+02  0.53715510278E+03  0.56488713160E+03  0.88465532573E+02 0.  0.
         -6    2    1    2    0  502  0.11944659961E+03 -0.53235005371E+02  0.67158436829E+03  0.70548152785E+03  0.17198013388E+03 0.  0.
        -24    2    5    5    0    0  0.94218924755E+02  0.21092106928E+02  0.51915532386E+03  0.53396575952E+03  0.79215524279E+02 0.  0.
          5    1    3    3  501    0  0.26418904320E+01 -0.35252943817E+02  0.52904098174E+02  0.63801906213E+02  0.47000000000E+01 0. -1.
        -13    1    4    4    0    0 -0.26706404517E+02  0.30369052454E+02  0.30037222698E+03  0.30308247414E+03  0.00000000000E+00 0.  1.
         14    1    4    4    0    0 -0.95382085524E+02  0.58118896733E+02  0.23678287580E+03  0.26180465746E+03  0.00000000000E+00 0. -1.
         -5    1    5    5    0  502  0.25227674854E+02 -0.74327112298E+02  0.15242904443E+03  0.17151576833E+03  0.47000000000E+01 0.  1.
         11    1    6    6    0    0  0.92692887888E+02 -0.77206497862E+00  0.30721111632E+03  0.32089131734E+03  0.00000000000E+00 0. -1.
        -12    1    6    6    0    0  0.15260368663E+01  0.21864171907E+02  0.21194420754E+03  0.21307444218E+03  0.00000000000E+00 0.  1.
</event>
<event>
12    1  0.1594973E-001  0.1789580E+03  0.7818608E-02  0.1168833E+00
         21   -1    0    0  503  502  0.00000000000E+00  0.00000000000E+00  0.10328470607E+03  0.10328470607E+03  0.00000000000E+00 0.  1.
         21   -1    0    0  501  503 -0.00000000000E+00 -0.00000000000E+00 -0.11928754341E+04  0.11928754341E+04  0.00000000000E+00 0.  1.
          6    2    1    2  501    0 -0.44031992336E+02 -0.22928872603E+02 -0.11023878096E+04  0.11168190781E+04  0.17193435058E+03 0.  0.
         24    2    3    3    0    0 -0.63946716422E+02  0.40370231586E+02 -0.57629475621E+03  0.58653673477E+03  0.78681364101E+02 0.  0.
         -6    2    1    2    0  502  0.44031992336E+02  0.22928872603E+02  0.12797081618E+02  0.17934106203E+03  0.17185721307E+03 0.  0.
        -24    2    5    5    0    0  0.28894691805E+02  0.36862663530E+02 -0.53782530601E+02  0.10949678409E+03  0.83085654307E+02 0.  0.
          5    1    3    3  501    0  0.19914724087E+02 -0.63299104189E+02 -0.52609305338E+03  0.53028234333E+03  0.47000000000E+01 0. -1.
        -13    1    4    4    0    0 -0.36687472277E+02  0.55844485468E+02 -0.49357695222E+03  0.49807909506E+03  0.00000000000E+00 0.  1.
         14    1    4    4    0    0 -0.27259244145E+02 -0.15474253882E+02 -0.82717803996E+02  0.88457639707E+02  0.00000000000E+00 0. -1.
         -5    1    5    5    0  502  0.15137300530E+02 -0.13933790927E+02  0.66579612219E+02  0.69844277935E+02  0.47000000000E+01 0.  1.
         11    1    6    6    0    0 -0.21451404335E+02  0.14866114785E+01  0.73840404440E+01  0.22735364851E+02  0.00000000000E+00 0. -1.
        -12    1    6    6    0    0  0.50346096140E+02  0.35376052051E+02 -0.61166571045E+02  0.86761419241E+02  0.00000000000E+00 0.  1.
</event>
<event>
12    1  0.1594973E-001  0.2131286E+03  0.7818608E-02  0.1141210E+00
         21   -1    0    0  503  502  0.00000000000E+00  0.00000000000E+00  0.26924447362E+03  0.26924447362E+03  0.00000000000E+00 0. -1.
         21   -1    0    0  501  503 -0.00000000000E+00 -0.00000000000E+00 -0.16053059513E+03  0.16053059513E+03  0.00000000000E+00 0. -1.
          6    2    1    2  501    0 -0.63502529847E+02 -0.86189841757E+02  0.56425509884E+02  0.21032602353E+03  0.17202307371E+03 0.  0.
         24    2    3    3    0    0 -0.34429489915E+02  0.79819453893E+01  0.68234071753E+02  0.11095248944E+03  0.80034149811E+02 0.  0.
         -6    2    1    2    0  502  0.63502529847E+02  0.86189841757E+02  0.52288368607E+02  0.21944904522E+03  0.18428931016E+03 0.  0.
        -24    2    5    5    0    0  0.50335291346E+02  0.12245237222E+03 -0.53743614400E+00  0.15386701313E+03  0.78399897169E+02 0.  0.
          5    1    3    3  501    0 -0.29073039932E+02 -0.94171787147E+02 -0.11808561870E+02  0.99373534096E+02  0.47000000000E+01 0. -1.
        -11    1    4    4    0    0 -0.44638217712E+02 -0.22521224868E+02  0.21986134918E+02  0.54618368510E+02  0.00000000000E+00 0.  1.
         12    1    4    4    0    0  0.10208727797E+02  0.30503170257E+02  0.46247936835E+02  0.56334120926E+02  0.00000000000E+00 0. -1.
         -5    1    5    5    0  502  0.13167238501E+02 -0.36262530460E+02  0.52825804751E+02  0.65582032088E+02  0.47000000000E+01 0.  1.
         11    1    6    6    0    0 -0.20322776978E+02  0.42353462889E+02 -0.24360112890E+01  0.47040038625E+02  0.00000000000E+00 0. -1.
        -12    1    6    6    0    0  0.70658068324E+02  0.80098909328E+02  0.18985751450E+01  0.10682697451E+03  0.00000000000E+00 0.  1.
</event>
<event>
12    1  0.1594973E-001  0.1824276E+03  0.7818608E-02  0.1165891E+00
         21   -1    0    0  501  502  0.00000000000E+00  0.00000000000E+00  0.24481182623E+03  0.24481182623E+03  0.00000000000E+00 0. -1.
         21   -1    0    0  502  503 -0.00000000000E+00 -0.00000000000E+00 -0.27969848168E+03  0.27969848168E+03  0.00000000000E+00 0.  1.
         -6    2    1    2    0  503  0.22372283347E+02 -0.53376510933E+02 -0.20634446389E+03  0.27542305010E+03  0.17300360622E+03 0.  0.
        -24    2    3    3    0    0  0.64806347615E+01 -0.91971542899E+02 -0.11441743455E+03  0.17435480726E+03  0.93848208054E+02 0.  0.
          6    2    1    2  501    0 -0.22372283347E+02  0.53376510933E+02  0.17145780844E+03  0.24908725781E+03  0.17116398846E+03 0.  0.
         24    2    5    5    0    0 -0.37707514646E+02 -0.22553009039E+02  0.47342946287E+02  0.10270744250E+03  0.79855928422E+02 0.  0.
          5    1    5    5  501    0  0.15335231299E+02  0.75929519972E+02  0.12411486215E+03  0.14637981531E+03  0.47000000000E+01 0. -1.
        -11    1    6    6    0    0 -0.17094371538E+02 -0.10892358507E+02 -0.21712740767E+02  0.29703604558E+02  0.00000000000E+00 0.  1.
         12    1    6    6    0    0 -0.20613143107E+02 -0.11660650532E+02  0.69055687054E+02  0.73003837941E+02  0.00000000000E+00 0. -1.
         -5    1    3    3    0  503  0.15891648585E+02  0.38595031966E+02 -0.91927029339E+02  0.10106824284E+03  0.47000000000E+01 0.  1.
         13    1    4    4    0    0  0.38410474930E+02 -0.78539075748E+02 -0.48726399508E+02  0.10009002454E+03  0.00000000000E+00 0. -1.
        -14    1    4    4    0    0 -0.31929840169E+02 -0.13432467151E+02 -0.65691035046E+02  0.74264782720E+02  0.00000000000E+00 0.  1.
</event>
<event>
12    1  0.1594973E-001  0.1811089E+03  0.7818608E-02  0.1166859E+00
         21   -1    0    0  501  502  0.00000000000E+00  0.00000000000E+00  0.88614368618E+03  0.88614368618E+03  0.00000000000E+00 0.  1.
         21   -1    0    0  502  503 -0.00000000000E+00 -0.00000000000E+00 -0.43045554610E+02  0.43045554610E+02  0.00000000000E+00 0.  1.
         -6    2    1    2    0  503 -0.50215401201E+02  0.19628334498E+02  0.24560261632E+03  0.30484852460E+03  0.17235173274E+03 0.  0.
        -24    2    3    3    0    0 -0.43535712265E+02 -0.54639207881E+02  0.14634346214E+03  0.18061183202E+03  0.79519957718E+02 0.  0.
          6    2    1    2  501    0  0.50215401201E+02 -0.19628334498E+02  0.59749551525E+03  0.62434071618E+03  0.17289760295E+03 0.  0.
         24    2    5    5    0    0 -0.47540482590E+01  0.36452527290E+02  0.19944032957E+03  0.21858620384E+03  0.81560380905E+02 0.  0.
          5    1    5    5  501    0  0.54969449460E+02 -0.56080861788E+02  0.39805518568E+03  0.40575451234E+03  0.47000000000E+01 0. -1.
        -13    1    6    6    0    0  0.29003120903E+02  0.43149724451E+02  0.14641208309E+03  0.15536916624E+03  0.00000000000E+00 0.  1.
         14    1    6    6    0    0 -0.33757169162E+02 -0.66971971608E+01  0.53028246472E+02  0.63217037605E+02  0.00000000000E+00 0. -1.
         -5    1    3    3    0  503 -0.66796889364E+01  0.74267542379E+02  0.99259154174E+02  0.12423669258E+03  0.47000000000E+01 0.  1.
         11    1    4    4    0    0 -0.20537434871E+02 -0.52418807215E+02  0.14708852396E+03  0.15749460773E+03  0.00000000000E+00 0. -1.
        -12    1    4    4    0    0 -0.22998277393E+02 -0.22204006663E+01 -0.74506182156E+00  0.23117224299E+02  0.00000000000E+00 0.  1.
</event>
<event>
12    1  0.1594973E-001  0.2263380E+03  0.7818608E-02  0.1129252E+00
         21   -1    0    0  501  502  0.00000000000E+00  0.00000000000E+00  0.62786132629E+02  0.62786132629E+02  0.00000000000E+00 0. -1.
         21   -1    0    0  502  503 -0.00000000000E+00 -0.00000000000E+00 -0.23109289731E+04  0.23109289731E+04  0.00000000000E+00 0. -1.
         -6    2    1    2    0  503 -0.10146369590E+03 -0.10469479389E+03 -0.20787704650E+04  0.20910560848E+04  0.17312718480E+03 0.  0.
        -24    2    3    3    0    0 -0.64190348565E+01 -0.10607029749E+03 -0.12072285655E+04  0.12143333509E+04  0.76893209252E+02 0.  0.
          6    2    1    2  501    0  0.10146369590E+03  0.10469479389E+03 -0.16937237546E+03  0.28265902093E+03  0.17307004100E+03 0.  0.
         24    2    5    5    0    0  0.78053883288E+02  0.58387126554E+02 -0.18917567672E+03  0.22692142032E+03  0.78768198495E+02 0.  0.
          5    1    5    5  501    0  0.23409812616E+02  0.46307667333E+02  0.19803301263E+02  0.55737600608E+02  0.47000000000E+01 0. -1.
        -13    1    6    6    0    0  0.76659849668E+02  0.31369442446E+02 -0.18035545703E+03  0.19846628265E+03  0.00000000000E+00 0.  1.
         14    1    6    6    0    0  0.13940336195E+01  0.27017684109E+02 -0.88202196954E+01  0.28455137670E+02  0.00000000000E+00 0. -1.
         -5    1    3    3    0  503 -0.95044661048E+02  0.13755036044E+01 -0.87154189953E+03  0.87672273395E+03  0.47000000000E+01 0.  1.
         13    1    4    4    0    0  0.20337649390E+01 -0.40275268836E+02 -0.85264283425E+03  0.85359594439E+03  0.00000000000E+00 0. -1.
        -14    1    4    4    0    0 -0.84527997955E+01 -0.65795028656E+02 -0.35458573127E+03  0.36073740649E+03  0.00000000000E+00 0.  1.
</event>
<event>
12    1  0.1594973E-001  0.2694957E+03  0.7818608E-02  0.1101976E+00
         21   -1    0    0  501  502  0.00000000000E+00  0.00000000000E+00  0.21153906978E+03  0.21153906978E+03  0.00000000000E+00 0.  1.
         21   -1    0    0  502  503 -0.00000000000E+00 -0.00000000000E+00 -0.11451218295E+04  0.11451218295E+04  0.00000000000E+00 0. -1.
         -6    2    1    2    0  503  0.18047543692E+02  0.20645597083E+03 -0.10363935884E+04  0.10708592700E+04  0.17227339998E+03 0.  0.
        -24    2    3    3    0    0  0.29094640048E+02  0.91411620497E+02 -0.77572051872E+03  0.78567550444E+03  0.79630978114E+02 0.  0.
          6    2    1    2  501    0 -0.18047543692E+02 -0.20645597083E+03  0.10281082873E+03  0.28580162924E+03  0.16781752902E+03 0.  0.
         24    2    5    5    0    0 -0.63427742672E+02 -0.12255199693E+03  0.10436201451E+03  0.19028338243E+03  0.79210258584E+02 0.  0.
          5    1    5    5  501    0  0.45380198981E+02 -0.83903973904E+02 -0.15511857839E+01  0.95518246811E+02  0.47000000000E+01 0. -1.
        -13    1    6    6    0    0 -0.20090148140E+02 -0.96632077033E+02  0.35496255798E+02  0.10488735167E+03  0.00000000000E+00 0.  1.
         14    1    6    6    0    0 -0.43337594532E+02 -0.25919919897E+02  0.68865758714E+02  0.85396030766E+02  0.00000000000E+00 0. -1.
         -5    1    3    3    0  503 -0.11047096357E+02  0.11504435034E+03 -0.26067306973E+03  0.28518376560E+03  0.47000000000E+01 0.  1.
         13    1    4    4    0    0 -0.16536488380E+02  0.67204287690E+02 -0.34537875441E+03  0.35224473840E+03  0.00000000000E+00 0. -1.
        -14    1    4    4    0    0  0.45631128428E+02  0.24207332808E+02 -0.43034176431E+03  0.43343076604E+03  0.00000000000E+00 0.  1.
</event>
<event>
12    1  0.1594973E-001  0.2133688E+03  0.7818608E-02  0.1138953E+00
         21   -1    0    0  503  502  0.00000000000E+00  0.00000000000E+00  0.14568003953E+03  0.14568003953E+03  0.00000000000E+00 0. -1.
         21   -1    0    0  501  503 -0.00000000000E+00 -0.00000000000E+00 -0.34233791505E+03  0.34233791505E+03  0.00000000000E+00 0.  1.
          6    2    1    2  501    0 -0.92749385331E+02 -0.85030736764E+02 -0.17063079472E+03  0.27320526284E+03  0.17231823136E+03 0.  0.
         24    2    3    3    0    0 -0.70295827793E+02 -0.36966364864E+02 -0.18607369482E+03  0.21775330835E+03  0.80529919018E+02 0.  0.
         -6    2    1    2    0  502  0.92749385331E+02  0.85030736764E+02 -0.26027080798E+02  0.21481269174E+03  0.17214647521E+03 0.  0.
        -24    2    5    5    0    0  0.69900719675E+01  0.95001729537E+02 -0.38888803654E+02  0.12739647791E+03  0.75122125997E+02 0.  0.
          5    1    3    3  501    0 -0.22453557538E+02 -0.48064371901E+02  0.15442900100E+02  0.55451954482E+02  0.47000000000E+01 0. -1.
        -11    1    4    4    0    0  0.17338526199E+02 -0.14063966888E+02 -0.42203405515E+02  0.47744602757E+02  0.00000000000E+00 0.  1.
         12    1    4    4    0    0 -0.87634353992E+02 -0.22902397976E+02 -0.14387028931E+03  0.17000870560E+03  0.00000000000E+00 0. -1.
         -5    1    5    5    0  502  0.85759313363E+02 -0.99709927725E+01  0.12861722856E+02  0.87416213829E+02  0.47000000000E+01 0.  1.
         11    1    6    6    0    0  0.49936359294E+01  0.93108418010E+01  0.20538245418E+02  0.23096486739E+02  0.00000000000E+00 0. -1.
        -12    1    6    6    0    0  0.19964360381E+01  0.85690887736E+02 -0.59427049072E+02  0.10429999118E+03  0.00000000000E+00 0.  1.
</event>
<event>
12    1  0.1594973E-001  0.2195039E+03  0.7818608E-02  0.1134373E+00
         21   -1    0    0  501  502  0.00000000000E+00  0.00000000000E+00  0.87024488594E+03  0.87024488594E+03  0.00000000000E+00 0.  1.
         21   -1    0    0  502  503 -0.00000000000E+00 -0.00000000000E+00 -0.16946438796E+03  0.16946438796E+03  0.00000000000E+00 0. -1.
         -6    2    1    2    0  503 -0.13483936630E+03  0.23167705905E+02 -0.76640759912E+02  0.23189383787E+03  0.17082900416E+03 0.  0.
        -24    2    3    3    0    0 -0.54784330897E+02  0.34978311922E+02 -0.10432746783E+03  0.14623788126E+03  0.79224315434E+02 0.  0.
          6    2    1    2  501    0  0.13483936630E+03 -0.23167705905E+02  0.77742125790E+03  0.80781543603E+03  0.17164955332E+03 0.  0.
         24    2    5    5    0    0  0.13814396668E+03  0.19878550335E+02  0.70421292060E+03  0.72269521981E+03  0.83027892290E+02 0.  0.
          5    1    5    5  501    0 -0.33046003778E+01 -0.43046256241E+02  0.73208337295E+02  0.85120216221E+02  0.47000000000E+01 0. -1.
        -11    1    6    6    0    0  0.29779277196E+02 -0.24089812105E+02  0.28186725011E+03  0.28445785467E+03  0.00000000000E+00 0.  1.
         12    1    6    6    0    0  0.10836468948E+03  0.43968362440E+02  0.42234567049E+03  0.43823736513E+03  0.00000000000E+00 0. -1.
         -5    1    3    3    0  503 -0.80055035401E+02 -0.11810606017E+02  0.27686707915E+02  0.85655956609E+02  0.47000000000E+01 0.  1.
         13    1    4    4    0    0 -0.12434573443E+02 -0.19708947763E+02 -0.59275128965E+02  0.63691460593E+02  0.00000000000E+00 0. -1.
        -14    1    4    4    0    0 -0.42349757454E+02  0.54687259685E+02 -0.45052338862E+02  0.82546420669E+02  0.00000000000E+00 0.  1.
</event>
<event>
12    1  0.1594973E-001  0.2576742E+03  0.7818608E-02  0.1108743E+00
         21   -1    0    0  501  502  0.00000000000E+00  0.00000000000E+00  0.39402129313E+03  0.39402129313E+03  0.00000000000E+00 0.  1.
         21   -1    0    0  502  503 -0.00000000000E+00 -0.00000000000E+00 -0.47216203047E+03  0.47216203047E+03  0.00000000000E+00 0. -1.
         -6    2    1    2    0  503  0.13424204796E+02 -0.19074690400E+03 -0.38682628317E+03  0.46408537963E+03  0.17081005701E+03 0.  0.
        -24    2    3    3    0    0  0.84202921295E+01 -0.42504153989E+02 -0.69745640926E+02  0.11399514018E+03  0.79075490074E+02 0.  0.
          6    2    1    2  501    0 -0.13424204796E+02  0.19074690400E+03  0.30868554584E+03  0.40209794397E+03  0.17271768777E+03 0.  0.
         24    2    5    5    0    0 -0.36787549060E+01  0.18160214430E+03  0.32507765426E+03  0.38043249585E+03  0.77849409424E+02 0.  0.
          5    1    5    5  501    0 -0.97454498896E+01  0.91447597029E+01 -0.16392108421E+02  0.21665448116E+02  0.47000000000E+01 0. -1.
        -13    1    6    6    0    0  0.24388287637E+02  0.16022824834E+03  0.25910689567E+03  0.30562111106E+03  0.00000000000E+00 0.  1.
         14    1    6    6    0    0 -0.28067042543E+02  0.21373895958E+02  0.65970758589E+02  0.74811384791E+02  0.00000000000E+00 0. -1.
         -5    1    3    3    0  503  0.50039126662E+01 -0.14824275002E+03 -0.31708064225E+03  0.35009023945E+03  0.47000000000E+01 0.  1.
         11    1    4    4    0    0  0.19761306633E+02  0.16836454179E+02 -0.69915584238E+01  0.26886005995E+02  0.00000000000E+00 0. -1.
        -12    1    4    4    0    0 -0.11341014503E+02 -0.59340608168E+02 -0.62754082502E+02  0.87109134185E+02  0.00000000000E+00 0.  1.
</event>
<event>
12    1  0.1594973E-001  0.2201412E+03  0.7818608E-02  0.1134015E+00
         21   -1    0    0  501  502  0.00000000000E+00  0.00000000000E+00  0.50715917677E+03  0.50715917677E+03  0.00000000000E+00 0. -1.
         21   -1    0    0  502  503 -0.00000000000E+00 -0.00000000000E+00 -0.95894145245E+02  0.95894145245E+02  0.00000000000E+00 0. -1.
         -6    2    1    2    0  503  0.13357047640E+03 -0.21475788567E+02  0.17603587152E+03  0.28088117147E+03  0.17205616165E+03 0.  0.
        -24    2    3    3    0    0  0.98082681352E+02  0.30560246644E+02  0.55057255005E+02  0.14440755419E+03  0.85253148467E+02 0.  0.
          6    2    1    2  501    0 -0.13357047640E+03  0.21475788567E+02  0.23522916000E+03  0.32217215054E+03  0.17366592990E+03 0.  0.
         24    2    5    5    0    0 -0.68371086341E+01 -0.21371222512E+02  0.65116134956E+02  0.10570565393E+03  0.80187898310E+02 0.  0.
          5    1    5    5  501    0 -0.12673336777E+03  0.42847011078E+02  0.17011302505E+03  0.21646649661E+03  0.47000000000E+01 0. -1.
        -11    1    6    6    0    0 -0.79936873610E+01  0.20279441977E+02 -0.65901918965E+01  0.22772470962E+02  0.00000000000E+00 0.  1.
         12    1    6    6    0    0  0.11565787269E+01 -0.41650664488E+02  0.71706326853E+02  0.82933182969E+02  0.00000000000E+00 0. -1.
         -5    1    3    3    0  503  0.35487795053E+02 -0.52036035211E+02  0.12097861652E+03  0.13647361728E+03  0.47000000000E+01 0.  1.
         13    1    4    4    0    0  0.62552960487E+02  0.27161871000E+02  0.76726442176E+02  0.10265274975E+03  0.00000000000E+00 0. -1.
        -14    1    4    4    0    0  0.35529720865E+02  0.33983756442E+01 -0.21669187170E+02  0.41754804447E+02  0.00000000000E+00 0.  1.
</event>
<event>
12    1  0.1594973E-001  0.1878419E+03  0.7818608E-02  0.1160538E+00
         21   -1    0    0  501  502  0.00000000000E+00  0.00000000000E+00  0.13908572742E+03  0.13908572742E+03  0.00000000000E+00 0. -1.
         21   -1    0    0  502  503 -0.00000000000E+00 -0.00000000000E+00 -0.25641672257E+03  0.25641672257E+03  0.00000000000E+00 0.  1.
         -6    2    1    2    0  503 -0.49201529934E+02 -0.58441820048E+02 -0.81387059111E+02  0.20425248858E+03  0.17105259081E+03 0.  0.
        -24    2    3    3    0    0 -0.57949919516E+02 -0.82548467660E+02 -0.10600433523E+03  0.16839492225E+03  0.83351593065E+02 0.  0.
          6    2    1    2  501    0  0.49201529934E+02  0.58441820048E+02 -0.35943936047E+02  0.19124996141E+03  0.17160519900E+03 0.  0.
         24    2    5    5    0    0  0.42370962315E+02 -0.47502826481E+01  0.32179167477E+02  0.97961453377E+02  0.82116282768E+02 0.  0.
          5    1    5    5  501    0  0.68305676196E+01  0.63192102696E+02 -0.68123103524E+02  0.93288508032E+02  0.47000000000E+01 0. -1.
        -13    1    6    6    0    0  0.20828108231E+02 -0.34650665396E+02 -0.10304258255E+02  0.41721174996E+02  0.00000000000E+00 0.  1.
         14    1    6    6    0    0  0.21542854084E+02  0.29900382748E+02  0.42483425732E+02  0.56240278381E+02  0.00000000000E+00 0. -1.
         -5    1    3    3    0  503  0.87483895816E+01  0.24106647612E+02  0.24617276123E+02  0.35857566330E+02  0.47000000000E+01 0.  1.
         13    1    4    4    0    0 -0.41575088373E+02 -0.21335772286E+02 -0.22037427334E+01  0.46782043931E+02  0.00000000000E+00 0. -1.
        -14    1    4    4    0    0 -0.16374831143E+02 -0.61212695373E+02 -0.10380059250E+03  0.12161287832E+03  0.00000000000E+00 0.  1.
</event>
<event>
12    1  0.1594973E-001  0.1772145E+03  0.7818608E-02  0.1170599E+00
         21   -1    0    0  503  502  0.00000000000E+00  0.00000000000E+00  0.33978454648E+03  0.33978454648E+03  0.00000000000E+00 0.  1.
         21   -1    0    0  501  503 -0.00000000000E+00 -0.00000000000E+00 -0.94095139512E+02  0.94095139512E+02  0.00000000000E+00 0.  1.
          6    2    1    2  501    0  0.34267564739E+02  0.19485940240E+02  0.15313231507E+03  0.23421032376E+03  0.17277442512E+03 0.  0.
         24    2    3    3    0    0 -0.17474673343E+02  0.66854222517E+02  0.78700240171E+02  0.13182264315E+03  0.80053920367E+02 0.  0.
         -6    2    1    2    0  502 -0.34267564739E+02 -0.19485940240E+02  0.92557091890E+02  0.19966936223E+03  0.17247339242E+03 0.  0.
        -24    2    5    5    0    0  0.30632625051E+02  0.11965363952E+02  0.93434248126E+02  0.12739157468E+03  0.80106971754E+02 0.  0.
          5    1    3    3  501    0  0.51742238082E+02 -0.47368282277E+02  0.74432074903E+02  0.10238768062E+03  0.47000000000E+01 0. -1.
        -13    1    4    4    0    0 -0.38392766206E+02  0.63532117143E+02  0.81750266880E+02  0.11042391290E+03  0.00000000000E+00 0.  1.
         14    1    4    4    0    0  0.20918092863E+02  0.33221053737E+01 -0.30500267086E+01  0.21398730244E+02  0.00000000000E+00 0. -1.
         -5    1    5    5    0  502 -0.64900189790E+02 -0.31451304192E+02 -0.87715623604E+00  0.72277787550E+02  0.47000000000E+01 0.  1.
         11    1    6    6    0    0 -0.24012842920E+01  0.20218435976E+02  0.91006043403E+02  0.93255837648E+02  0.00000000000E+00 0. -1.
        -12    1    6    6    0    0  0.33033909343E+02 -0.82530720239E+01  0.24282047234E+01  0.34135737029E+02  0.00000000000E+00 0.  1.
</event>
<event>
12    1  0.1594973E-001  0.1986052E+03  0.7818608E-02  0.1150961E+00
         21   -1    0    0  501  502  0.00000000000E+00  0.00000000000E+00  0.42286667046E+02  0.42286667046E+02  0.00000000000E+00 0.  1.
         21   -1    0    0  502  503 -0.00000000000E+00 -0.00000000000E+00 -0.13084006273E+04  0.13084006273E+04  0.00000000000E+00 0. -1.
         -6    2    1    2    0  503  0.64204378969E+02 -0.75438665228E+02 -0.99511833533E+03  0.10147071696E+04  0.17192133183E+03 0.  0.
        -24    2    3    3    0    0  0.98702559382E+02 -0.16201069160E+02 -0.63134543831E+03  0.64450178362E+03  0.82345714783E+02 0.  0.
          6    2    1    2  501    0 -0.64204378969E+02  0.75438665228E+02 -0.27099562496E+03  0.33598012473E+03  0.17213605368E+03 0.  0.
         24    2    5    5    0    0 -0.90902505443E+02  0.52823836499E+02 -0.27044024823E+03  0.30067263432E+03  0.78819299465E+02 0.  0.
          5    1    5    5  501    0  0.26698126474E+02  0.22614828729E+02 -0.55537672710E+00  0.35307490409E+02  0.47000000000E+01 0. -1.
        -13    1    6    6    0    0 -0.70429763855E+02  0.11791875478E+01 -0.10750274164E+03  0.12852463414E+03  0.00000000000E+00 0.  1.
         14    1    6    6    0    0 -0.20472741588E+02  0.51644648951E+02 -0.16293750659E+03  0.17214800018E+03  0.00000000000E+00 0. -1.
         -5    1    3    3    0  503 -0.34498180413E+02 -0.59237596068E+02 -0.36377289701E+03  0.37020538602E+03  0.47000000000E+01 0.  1.
         13    1    4    4    0    0  0.76093376268E+02  0.25123824785E+02 -0.45340699579E+03  0.46043383055E+03  0.00000000000E+00 0. -1.
        -14    1    4    4    0    0  0.22609183114E+02 -0.41324893945E+02 -0.17793844252E+03  0.18406795307E+03  0.00000000000E+00 0.  1.
</event>
<event>
12    1  0.1594973E-001  0.1866619E+03  0.7818608E-02  0.1161688E+00
         21   -1    0    0  501  502  0.00000000000E+00  0.00000000000E+00  0.15641233853E+03  0.15641233853E+03  0.00000000000E+00 0. -1.
         21   -1    0    0  502  503 -0.00000000000E+00 -0.00000000000E+00 -0.25157368010E+03  0.25157368010E+03  0.00000000000E+00 0. -1.
         -6    2    1    2    0  503  0.23597466704E+02 -0.65078190400E+02 -0.11763565850E+03  0.21997600549E+03  0.17250879265E+03 0.  0.
        -24    2    3    3    0    0  0.23128627680E+02 -0.33274582483E+02  0.78288624617E+01  0.90457183282E+02  0.80492730493E+02 0.  0.
          6    2    1    2  501    0 -0.23597466704E+02  0.65078190400E+02  0.22474316930E+02  0.18801001314E+03  0.17335125848E+03 0.  0.
         24    2    5    5    0    0 -0.81888271513E+02  0.35574150757E+02  0.61685473089E+01  0.12050983237E+03  0.80705387113E+02 0.  0.
          5    1    5    5  501    0  0.58290804809E+02  0.29504039643E+02  0.16305769621E+02  0.67500180766E+02  0.47000000000E+01 0. -1.
        -11    1    6    6    0    0 -0.31011585480E+02  0.45214765879E+02 -0.24797844415E+02  0.60174966349E+02  0.00000000000E+00 0.  1.
         12    1    6    6    0    0 -0.50876686033E+02 -0.96406151218E+01  0.30966391724E+02  0.60334866023E+02  0.00000000000E+00 0. -1.
         -5    1    3    3    0  503  0.46883902338E+00 -0.31803607918E+02 -0.12546452096E+03  0.12951882221E+03  0.47000000000E+01 0.  1.
         13    1    4    4    0    0 -0.62090013527E+01 -0.17883834383E+00 -0.30992523933E+02  0.31608863009E+02  0.00000000000E+00 0. -1.
        -14    1    4    4    0    0  0.29337629033E+02 -0.33095744139E+02  0.38821386395E+02  0.58848320273E+02  0.00000000000E+00 0.  1.
</event>
<event>
12    1  0.1594973E-001  0.1877764E+03  0.7818608E-02  0.1160674E+00
         21   -1    0    0  503  502  0.00000000000E+00  0.00000000000E+00  0.34127522176E+03  0.34127522176E+03  0.00000000000E+00 0. -1.
         21   -1    0    0  501  503 -0.00000000000E+00 -0.00000000000E+00 -0.13958956206E+03  0.13958956206E+03  0.00000000000E+00 0.  1.
          6    2    1    2  501    0  0.68921399782E+02 -0.25665800564E+02 -0.22324488277E+02  0.18909881356E+03  0.17277466784E+03 0.  0.
         24    2    3    3    0    0  0.31443439170E+02 -0.78631924329E+02  0.91543630718E+01  0.11682837783E+03  0.79958727562E+02 0.  0.
         -6    2    1    2    0  502 -0.68921399782E+02  0.25665800564E+02  0.22401014797E+03  0.29176597025E+03  0.17186605929E+03 0.  0.
        -24    2    5    5    0    0 -0.72598743895E+02  0.73809586479E+02  0.19698893298E+03  0.23623595097E+03  0.79273905807E+02 0.  0.
          5    1    3    3  501    0  0.37477960613E+02  0.52966123765E+02 -0.31478851349E+02  0.72270435730E+02  0.47000000000E+01 0. -1.
        -13    1    4    4    0    0 -0.26780850903E+02 -0.28457155578E+02 -0.21725074621E+01  0.39137494392E+02  0.00000000000E+00 0.  1.
         14    1    4    4    0    0  0.58224290072E+02 -0.50174768752E+02  0.11326870534E+02  0.77690883441E+02  0.00000000000E+00 0. -1.
         -5    1    5    5    0  502  0.36773441121E+01 -0.48143785916E+02  0.27021214998E+02  0.55530019287E+02  0.47000000000E+01 0.  1.
         11    1    6    6    0    0 -0.31505142787E+02 -0.13204335105E+02  0.52516548059E+02  0.62649152489E+02  0.00000000000E+00 0. -1.
        -12    1    6    6    0    0 -0.41093601107E+02  0.87013921584E+02  0.14447238492E+03  0.17358679848E+03  0.00000000000E+00 0.  1.
</event>
<event>
12    1  0.1594973E-001  0.1750334E+03  0.7818608E-02  0.1172933E+00
         21   -1    0    0  503  502  0.00000000000E+00  0.00000000000E+00  0.38804053547E+03  0.38804053547E+03  0.00000000000E+00 0. -1.
         21   -1    0    0  501  503 -0.00000000000E+00 -0.00000000000E+00 -0.79935236564E+02  0.79935236564E+02  0.00000000000E+00 0.  1.
          6    2    1    2  501    0  0.25836422695E+02 -0.22902410032E+02  0.18546821093E+03  0.25501987692E+03  0.17159440328E+03 0.  0.
         24    2    3    3    0    0 -0.41022284313E+02  0.18015858006E+02  0.13013009022E+03  0.15895329082E+03  0.79529298578E+02 0.  0.
         -6    2    1    2    0  502 -0.25836422695E+02  0.22902410032E+02  0.12263708798E+03  0.21295589511E+03  0.17064090011E+03 0.  0.
        -24    2    5    5    0    0 -0.21259722896E+02  0.49912962586E+02  0.14772720960E+03  0.17551099782E+03  0.77701365798E+02 0.  0.
          5    1    3    3  501    0  0.66858707008E+02 -0.40918268038E+02  0.55338120710E+02  0.96066586104E+02  0.47000000000E+01 0. -1.
        -13    1    4    4    0    0 -0.67397680945E+01  0.29102067537E+02  0.11676221113E+03  0.12052289723E+03  0.00000000000E+00 0.  1.
         14    1    4    4    0    0 -0.34282516219E+02 -0.11086209531E+02  0.13367879087E+02  0.38430393588E+02  0.00000000000E+00 0. -1.
         -5    1    5    5    0  502 -0.45766997983E+01 -0.27010552554E+02 -0.25090121622E+02  0.37444897294E+02  0.47000000000E+01 0.  1.
         11    1    6    6    0    0  0.32834737384E+01 -0.37816854973E+01  0.98541919955E+02  0.98669105263E+02  0.00000000000E+00 0. -1.
        -12    1    6    6    0    0 -0.24543196635E+02  0.53694648084E+02  0.49185289646E+02  0.76841892555E+02  0.00000000000E+00 0.  1.
</event>
<event>
12    1  0.1594973E-001  0.2107784E+03  0.7818608E-02  0.1141205E+00
         21   -1    0    0  501  502  0.00000000000E+00  0.00000000000E+00  0.27584176511E+03  0.27584176511E+03  0.00000000000E+00 0. -1.
         21   -1    0    0  502  503 -0.00000000000E+00 -0.00000000000E+00 -0.19032891031E+03  0.19032891031E+03  0.00000000000E+00 0. -1.
         -6    2    1    2    0  503 -0.10775298837E+02  0.11961886656E+03 -0.50055129571E+02  0.21664041523E+03  0.17321308615E+03 0.  0.
        -24    2    3    3    0    0  0.41625878723E+02  0.57747509231E+02  0.20654319564E+02  0.10895631954E+03  0.79858562782E+02 0.  0.
          6    2    1    2  501    0  0.10775298837E+02 -0.11961886656E+03  0.13556798437E+03  0.24953026019E+03  0.17164466802E+03 0.  0.
         24    2    5    5    0    0  0.67539945426E+02 -0.32560929592E+02  0.10809986112E+03  0.14192962224E+03  0.53259546846E+02 0.  0.
          5    1    5    5  501    0 -0.56764646589E+02 -0.87057936973E+02  0.27468123253E+02  0.10760063795E+03  0.47000000000E+01 0. -1.
        -13    1    6    6    0    0 -0.76715755564E+01 -0.81100259174E+01  0.24088994418E+02  0.26550051675E+02  0.00000000000E+00 0.  1.
         14    1    6    6    0    0  0.75211520983E+02 -0.24450903675E+02  0.84010866702E+02  0.11537957056E+03  0.00000000000E+00 0. -1.
         -5    1    3    3    0  503 -0.52401177560E+02  0.61871357333E+02 -0.70709449136E+02  0.10768409569E+03  0.47000000000E+01 0.  1.
         11    1    4    4    0    0  0.22413638191E+02  0.66147767561E+02  0.39950161696E+02  0.80460634784E+02  0.00000000000E+00 0. -1.
        -12    1    4    4    0    0  0.19212240533E+02 -0.84002583298E+01 -0.19295842132E+02  0.28495684759E+02  0.00000000000E+00 0.  1.
</event>
<event>
12    1  0.1594973E-001  0.2316451E+03  0.7818608E-02  0.1125594E+00
         21   -1    0    0  503  502  0.00000000000E+00  0.00000000000E+00  0.27942988843E+03  0.27942988843E+03  0.00000000000E+00 0.  1.
         21   -1    0    0  501  503 -0.00000000000E+00 -0.00000000000E+00 -0.55831035108E+03  0.55831035108E+03  0.00000000000E+00 0. -1.
          6    2    1    2  501    0 -0.67687171713E+02  0.13941516197E+03 -0.47888235086E+03  0.53170070691E+03  0.17134525136E+03 0.  0.
         24    2    3    3    0    0  0.15312136705E+02  0.75302532122E+02 -0.16733986584E+03  0.20294528950E+03  0.85318385813E+02 0.  0.
         -6    2    1    2    0  502  0.67687171713E+02 -0.13941516197E+03  0.20000188821E+03  0.30603953260E+03  0.17216648809E+03 0.  0.
        -24    2    5    5    0    0 -0.22209382175E+02 -0.73018341599E+02  0.49424813995E+02  0.11846161962E+03  0.75930285255E+02 0.  0.
          5    1    3    3  501    0 -0.82999308417E+02  0.64112629848E+02 -0.31154248502E+03  0.32875541741E+03  0.47000000000E+01 0. -1.
        -11    1    4    4    0    0  0.93472169754E+01 -0.13567374128E+02 -0.66003202735E+02  0.68028426978E+02  0.00000000000E+00 0.  1.
         12    1    4    4    0    0  0.59649197291E+01  0.88869906250E+02 -0.10133666311E+03  0.13491686252E+03  0.00000000000E+00 0. -1.
         -5    1    5    5    0  502  0.89896553888E+02 -0.66396820371E+02  0.15057707422E+03  0.18757791297E+03  0.47000000000E+01 0.  1.
         13    1    6    6    0    0 -0.28610797629E+02 -0.10764092296E+02  0.46705867199E+02  0.55820081106E+02  0.00000000000E+00 0. -1.
        -14    1    6    6    0    0  0.64014154539E+01 -0.62254249303E+02  0.27189467959E+01  0.62641538517E+02  0.00000000000E+00 0.  1.
</event>
<event>
12    1  0.1594973E-001  0.2595990E+03  0.7818608E-02  0.1107627E+00
         21   -1    0    0  503  502  0.00000000000E+00  0.00000000000E+00  0.35897184686E+03  0.35897184686E+03  0.00000000000E+00 0.  1.
         21   -1    0    0  501  503 -0.00000000000E+00 -0.00000000000E+00 -0.54534337538E+03  0.54534337538E+03  0.00000000000E+00 0. -1.
          6    2    1    2  501    0  0.13753357411E+03 -0.13414758995E+03 -0.46002590077E+03  0.52821912545E+03  0.17458681286E+03 0.  0.
         24    2    3    3    0    0 -0.21347103712E+01 -0.10477116033E+02 -0.13042370277E+03  0.14945625144E+03  0.72197658563E+02 0.  0.
         -6    2    1    2    0  502 -0.13753357411E+03  0.13414758995E+03  0.27365437225E+03  0.37609609678E+03  0.17219320157E+03 0.  0.
        -24    2    5    5    0    0 -0.80269097888E+02  0.13252642933E+02  0.17886459906E+03  0.21207780649E+03  0.79785278003E+02 0.  0.
          5    1    3    3  501    0  0.13966828448E+03 -0.12367047391E+03 -0.32960219799E+03  0.37876287401E+03  0.47000000000E+01 0. -1.
        -11    1    4    4    0    0  0.22031799821E+02  0.13963176457E+02 -0.10067546876E+03  0.10399961784E+03  0.00000000000E+00 0.  1.
         12    1    4    4    0    0 -0.24166510192E+02 -0.24440292490E+02 -0.29748234007E+02  0.45456633602E+02  0.00000000000E+00 0. -1.
         -5    1    5    5    0  502 -0.57264476217E+02  0.12089494701E+03  0.94789773183E+02  0.16401829029E+03  0.47000000000E+01 0.  1.
         13    1    6    6    0    0 -0.96970679562E+01  0.18271406141E+02  0.11474712994E+03  0.11659666050E+03  0.00000000000E+00 0. -1.
        -14    1    6    6    0    0 -0.70572029932E+02 -0.50187632078E+01  0.64117469118E+02  0.95481145987E+02  0.00000000000E+00 0.  1.
</event>
<event>
12    1  0.1594973E-001  0.1801901E+03  0.7818608E-02  0.1167947E+00
         21   -1    0    0  501  502  0.00000000000E+00  0.00000000000E+00  0.31523979813E+02  0.31523979813E+02  0.00000000000E+00 0.  1.
         21   -1    0    0  502  503 -0.00000000000E+00 -0.00000000000E+00 -0.14676580683E+04  0.14676580683E+04  0.00000000000E+00 0.  1.
         -6    2    1    2    0  503  0.47859031428E+02 -0.10915194881E+02 -0.30324548004E+03  0.35205298547E+03  0.17197050632E+03 0.  0.
        -24    2    3    3    0    0  0.37466042672E+01 -0.68629213226E+02 -0.20082396008E+03  0.22639841175E+03  0.78752599653E+02 0.  0.
          6    2    1    2  501    0 -0.47859031428E+02  0.10915194881E+02 -0.11328886084E+04  0.11471290626E+04  0.17337490836E+03 0.  0.
         24    2    5    5    0    0 -0.15133033961E+02 -0.52577219333E+02 -0.44842696198E+03  0.45893424062E+03  0.80873507878E+02 0.  0.
          5    1    5    5  501    0 -0.32725997466E+02  0.63492414214E+02 -0.68446164647E+03  0.68819482202E+03  0.47000000000E+01 0. -1.
        -11    1    6    6    0    0 -0.32537613387E+02  0.94256517191E+00 -0.82238365142E+02  0.88446217643E+02  0.00000000000E+00 0.  1.
         12    1    6    6    0    0  0.17404579425E+02 -0.53519784505E+02 -0.36618859683E+03  0.37048802298E+03  0.00000000000E+00 0. -1.
         -5    1    3    3    0  503  0.44112427160E+02  0.57714018345E+02 -0.10242151996E+03  0.12565457371E+03  0.47000000000E+01 0.  1.
         11    1    4    4    0    0  0.15601566192E+02 -0.13735182568E+02 -0.14749501635E+03  0.14895248893E+03  0.00000000000E+00 0. -1.
        -12    1    4    4    0    0 -0.11854961924E+02 -0.54894030658E+02 -0.53328943723E+02  0.77445922829E+02  0.00000000000E+00 0.  1.
</event>
<event>
12    1  0.1594973E-001  0.2803531E+03  0.7818608E-02  0.1095577E+00
         21   -1    0    0  501  502  0.00000000000E+00  0.00000000000E+00  0.30237541507E+03  0.30237541507E+03  0.00000000000E+00 0.  1.
         21   -1    0    0  502  503 -0.00000000000E+00 -0.00000000000E+00 -0.27068015690E+03  0.27068015690E+03  0.00000000000E+00 0.  1.
         -6    2    1    2    0  503  0.43055321305E+02  0.21659950512E+03  0.74399281648E+02  0.29005706624E+03  0.17270999466E+03 0.  0.
        -24    2    3    3    0    0 -0.37937571745E+02  0.75949938231E+02  0.44879856413E+02  0.12502483952E+03  0.80058456877E+02 0.  0.
          6    2    1    2  501    0 -0.43055321305E+02 -0.21659950512E+03 -0.42704023474E+02  0.28299850573E+03  0.17174229041E+03 0.  0.
         24    2    5    5    0    0 -0.13792169604E+02 -0.20586851069E+03 -0.79140759344E+02  0.23481954757E+03  0.79403353179E+02 0.  0.
          5    1    5    5  501    0 -0.29263151701E+02 -0.10730994429E+02  0.36436735870E+02  0.48178958164E+02  0.47000000000E+01 0. -1.
        -11    1    6    6    0    0 -0.40801153707E+02 -0.17138265719E+03 -0.72535333465E+02  0.19052066536E+03  0.00000000000E+00 0.  1.
         12    1    6    6    0    0  0.27008984103E+02 -0.34485853499E+02 -0.66054258789E+01  0.44298882208E+02  0.00000000000E+00 0. -1.
         -5    1    3    3    0  503  0.80992893050E+02  0.14064956689E+03  0.29519425235E+02  0.16503222672E+03  0.47000000000E+01 0.  1.
         13    1    4    4    0    0  0.60514391391E+01 -0.13011025640E+02  0.16368958186E+02  0.21768084343E+02  0.00000000000E+00 0. -1.
        -14    1    4    4    0    0 -0.43989010884E+02  0.88960963871E+02  0.28510898227E+02  0.10325675517E+03  0.00000000000E+00 0.  1.
</event>
<event>
12    1  0.1594973E-001  0.1739067E+03  0.7818608E-02  0.1173997E+00
         21   -1    0    0  501  502  0.00000000000E+00  0.00000000000E+00  0.53809616433E+02  0.53809616433E+02  0.00000000000E+00 0.  1.
         21   -1    0    0  502  503 -0.00000000000E+00 -0.00000000000E+00 -0.59698437625E+03  0.59698437625E+03  0.00000000000E+00 0.  1.
         -6    2    1    2    0  503 -0.25659617149E+02  0.16724119007E+02 -0.35307676542E+03  0.39358192025E+03  0.17118824014E+03 0.  0.
        -24    2    3    3    0    0  0.70065628061E+01 -0.53376842625E+02 -0.20566747333E+03  0.22705020097E+03  0.79715148634E+02 0.  0.
          6    2    1    2  501    0  0.25659617149E+02 -0.16724119007E+02 -0.19009799440E+03  0.25721207243E+03  0.17053647886E+03 0.  0.
         24    2    5    5    0    0 -0.38461643363E+02 -0.49238817613E+02 -0.10142538764E+03  0.14295944504E+03  0.79035020715E+02 0.  0.
          5    1    5    5  501    0  0.64121260512E+02  0.32514698606E+02 -0.88672606762E+02  0.11425262739E+03  0.47000000000E+01 0. -1.
        -11    1    6    6    0    0 -0.29710227453E+02 -0.49417711575E+02 -0.19949444840E+02  0.61014655469E+02  0.00000000000E+00 0.  1.
         12    1    6    6    0    0 -0.87514159098E+01  0.17889396156E+00 -0.81475942798E+02  0.81944789574E+02  0.00000000000E+00 0. -1.
         -5    1    3    3    0  503 -0.32666179955E+02  0.70100961632E+02 -0.14740929208E+03  0.16653171928E+03  0.47000000000E+01 0.  1.
         11    1    4    4    0    0  0.31736641302E+02  0.48522988613E+01 -0.55794457061E+02  0.64372203971E+02  0.00000000000E+00 0. -1.
        -12    1    4    4    0    0 -0.24730078496E+02 -0.58229141486E+02 -0.14987301627E+03  0.16267799700E+03  0.00000000000E+00 0.  1.
</event>
<event>
12    1  0.1594973E-001  0.1797733E+03  0.7818608E-02  0.1168165E+00
         21   -1    0    0  501  502  0.00000000000E+00  0.00000000000E+00  0.81615287696E+03  0.81615287696E+03  0.00000000000E+00 0.  1.
         21   -1    0    0  502  503 -0.00000000000E+00 -0.00000000000E+00 -0.14830938772E+03  0.14830938772E+03  0.00000000000E+00 0.  1.
         -6    2    1    2    0  503  0.33346332748E+02 -0.37022109828E+02 -0.79333075147E+02  0.19596290460E+03  0.17211946039E+03 0.  0.
        -24    2    3    3    0    0 -0.26944633013E+02 -0.73295503044E+01  0.98783318774E+01  0.84171072222E+02  0.78787387332E+02 0.  0.
          6    2    1    2  501    0 -0.33346332748E+02  0.37022109828E+02  0.74717656439E+03  0.76849936008E+03  0.17273052290E+03 0.  0.
         24    2    5    5    0    0 -0.69959203154E+02  0.69798127120E+02  0.45705096518E+03  0.47420406126E+03  0.78789836202E+02 0.  0.
          5    1    5    5  501    0  0.36612870406E+02 -0.32776017292E+02  0.29012559920E+03  0.29429529881E+03  0.47000000000E+01 0. -1.
        -11    1    6    6    0    0  0.14300607983E+02  0.19503750300E+02  0.14756632374E+03  0.14953502455E+03  0.00000000000E+00 0.  1.
         12    1    6    6    0    0 -0.84259811137E+02  0.50294376821E+02  0.30948464144E+03  0.32466903671E+03  0.00000000000E+00 0. -1.
         -5    1    3    3    0  503  0.60290965761E+02 -0.29692559524E+02 -0.89211407025E+02  0.11179183238E+03  0.47000000000E+01 0.  1.
         11    1    4    4    0    0  0.16678959420E+02 -0.29804163416E+02  0.79166162099E+01  0.35059216427E+02  0.00000000000E+00 0. -1.
        -12    1    4    4    0    0 -0.43623592433E+02  0.22474613112E+02  0.19617156675E+01  0.49111855795E+02  0.00000000000E+00 0.  1.
</event>
<event>
12    1  0.1594973E-001  0.2392451E+03  0.7818608E-02  0.1121093E+00
         21   -1    0    0  501  502  0.00000000000E+00  0.00000000000E+00  0.27132866832E+03  0.27132866832E+03  0.00000000000E+00 0.  1.
         21   -1    0    0  502  503 -0.00000000000E+00 -0.00000000000E+00 -0.23373216702E+03  0.23373216702E+03  0.00000000000E+00 0. -1.
         -6    2    1    2    0  503 -0.70974354925E+02  0.14383290192E+03 -0.67052045673E+02  0.24392955219E+03  0.17111512753E+03 0.  0.
        -24    2    3    3    0    0 -0.40642274326E+02  0.12520477446E+02 -0.37571058283E+02  0.10589257688E+03  0.89404119592E+02 0.  0.
          6    2    1    2  501    0  0.70974354925E+02 -0.14383290192E+03  0.10464854697E+03  0.26113128316E+03  0.17751891710E+03 0.  0.
         24    2    5    5    0    0 -0.44202442862E+01 -0.72135275477E+02 -0.20405577870E+02  0.98387560183E+02  0.63566405144E+02 0.  0.
          5    1    5    5  501    0  0.75394599211E+02 -0.71697626445E+02  0.12505412484E+03  0.16274372298E+03  0.47000000000E+01 0. -1.
        -13    1    6    6    0    0 -0.11546438239E+02 -0.60033406773E+02  0.12688699940E+02  0.62436634045E+02  0.00000000000E+00 0.  1.
         14    1    6    6    0    0  0.71261939533E+01 -0.12101868704E+02 -0.33094277810E+02  0.35950926138E+02  0.00000000000E+00 0. -1.
         -5    1    3    3    0  503 -0.30332080599E+02  0.13131242447E+03 -0.29480987389E+02  0.13803697531E+03  0.47000000000E+01 0.  1.
         11    1    4    4    0    0 -0.64325023959E+02  0.15591576923E+02 -0.45961110406E+02  0.80580578603E+02  0.00000000000E+00 0. -1.
        -12    1    4    4    0    0  0.23682749633E+02 -0.30710994761E+01  0.83900521223E+01  0.25311998277E+02  0.00000000000E+00 0.  1.
</event>
<event>
12    1  0.1594973E-001  0.1748962E+03  0.7818608E-02  0.1172936E+00
         21   -1    0    0  503  502  0.00000000000E+00  0.00000000000E+00  0.48993464128E+02  0.48993464128E+02  0.00000000000E+00 0.  1.
         21   -1    0    0  501  503 -0.00000000000E+00 -0.00000000000E+00 -0.73579625941E+03  0.73579625941E+03  0.00000000000E+00 0.  1.
          6    2    1    2  501    0 -0.28087126462E+02  0.36390478492E+01 -0.49676013049E+03  0.52651684250E+03  0.17218370669E+03 0.  0.
         24    2    3    3    0    0 -0.14209051294E+02  0.58015014018E+02 -0.41531686063E+03  0.42749945578E+03  0.81853839130E+02 0.  0.
         -6    2    1    2    0  502  0.28087126462E+02 -0.36390478492E+01 -0.19004266479E+03  0.25827288103E+03  0.17258776694E+03 0.  0.
        -24    2    5    5    0    0 -0.28380864313E+01 -0.66042735477E+02 -0.10987994948E+03  0.15197734986E+03  0.81570913498E+02 0.  0.
          5    1    3    3  501    0 -0.13878075168E+02 -0.54375966169E+02 -0.81443269867E+02  0.99017386725E+02  0.47000000000E+01 0. -1.
        -11    1    4    4    0    0 -0.47710989059E+02  0.37289300613E+02 -0.28482065123E+03  0.29118659616E+03  0.00000000000E+00 0.  1.
         12    1    4    4    0    0  0.33501937765E+02  0.20725713405E+02 -0.13049620940E+03  0.13631285962E+03  0.00000000000E+00 0. -1.
         -5    1    5    5    0  502  0.30925212893E+02  0.62403687628E+02 -0.80162715311E+02  0.10629553118E+03  0.47000000000E+01 0.  1.
         13    1    6    6    0    0  0.30403578996E+02 -0.63847442187E+02 -0.64742923677E+02  0.95877628547E+02  0.00000000000E+00 0. -1.
        -14    1    6    6    0    0 -0.33241665427E+02 -0.21952932894E+01 -0.45137025799E+02  0.56099721309E+02  0.00000000000E+00 0.  1.
</event>
<event>
12    1  0.1594973E-001  0.1753814E+03  0.7818608E-02  0.1172663E+00
         21   -1    0    0  503  502  0.00000000000E+00  0.00000000000E+00  0.15934366383E+03  0.15934366383E+03  0.00000000000E+00 0. -1.
         21   -1    0    0  501  503 -0.00000000000E+00 -0.00000000000E+00 -0.19640735436E+03  0.19640735436E+03  0.00000000000E+00 0. -1.
          6    2    1    2  501    0  0.26880224422E+02 -0.43898101930E+01 -0.46245644390E+02  0.18137609803E+03  0.17325360722E+03 0.  0.
         24    2    3    3    0    0 -0.44359297170E+02  0.11394820269E+02  0.51475329870E+01  0.92002876782E+02  0.79626899135E+02 0.  0.
         -6    2    1    2    0  502 -0.26880224422E+02  0.43898101930E+01  0.91819538521E+01  0.17437492016E+03  0.17198978925E+03 0.  0.
        -24    2    5    5    0    0 -0.66088182022E+02  0.17933276158E+02  0.48636634706E+02  0.11693407014E+03  0.81356034366E+02 0.  0.
          5    1    3    3  501    0  0.71239521592E+02 -0.15784630462E+02 -0.51393177377E+02  0.89373221249E+02  0.47000000000E+01 0. -1.
        -11    1    4    4    0    0 -0.27742083878E+02  0.21105559145E+02  0.39466041138E+02  0.52655828242E+02  0.00000000000E+00 0.  1.
         12    1    4    4    0    0 -0.16617213292E+02 -0.97107388759E+01 -0.34318508151E+02  0.39347048540E+02  0.00000000000E+00 0. -1.
         -5    1    5    5    0  502  0.39207957601E+02 -0.13543465965E+02 -0.39454680853E+02  0.57440850018E+02  0.47000000000E+01 0.  1.
         13    1    6    6    0    0 -0.35088816009E+02 -0.31697360361E+02  0.27599657380E+02  0.54751152958E+02  0.00000000000E+00 0. -1.
        -14    1    6    6    0    0 -0.30999366014E+02  0.49630636519E+02  0.21036977326E+02  0.62182917184E+02  0.00000000000E+00 0.  1.
</event>
<event>
12    1  0.1594973E-001  0.1899372E+03  0.7818608E-02  0.1158592E+00
         21   -1    0    0  501  502  0.00000000000E+00  0.00000000000E+00  0.11931093866E+03  0.11931093866E+03  0.00000000000E+00 0.  1.
         21   -1    0    0  502  503 -0.00000000000E+00 -0.00000000000E+00 -0.46059117201E+03  0.46059117201E+03  0.00000000000E+00 0. -1.
         -6    2    1    2    0  503 -0.68526522019E+02 -0.39454142448E+02 -0.34095607701E+03  0.39029116661E+03  0.17269520754E+03 0.  0.
        -24    2    3    3    0    0 -0.15189634612E+02 -0.46411157057E+02 -0.85626378527E+02  0.12931498276E+03  0.83700463365E+02 0.  0.
          6    2    1    2  501    0  0.68526522019E+02  0.39454142448E+02 -0.32415633965E+00  0.18961094406E+03  0.17233598421E+03 0.  0.
         24    2    5    5    0    0  0.82824020945E+02 -0.19349538718E+02 -0.32211263223E+02  0.12104587293E+03  0.79876872624E+02 0.  0.
          5    1    5    5  501    0 -0.14297498926E+02  0.58803681166E+02  0.31887106884E+02  0.68565071134E+02  0.47000000000E+01 0. -1.
        -11    1    6    6    0    0  0.72517305680E+01 -0.14866194036E+02  0.22294663825E+02  0.27760463909E+02  0.00000000000E+00 0.  1.
         12    1    6    6    0    0  0.75572290377E+02 -0.44833446820E+01 -0.54505927048E+02  0.93285409018E+02  0.00000000000E+00 0. -1.
         -5    1    3    3    0  503 -0.53336887407E+02  0.69570146091E+01 -0.25532969849E+03  0.26097618385E+03  0.47000000000E+01 0.  1.
         13    1    4    4    0    0 -0.31762308773E+02 -0.62740020867E+02 -0.77553636394E+02  0.10468868609E+03  0.00000000000E+00 0. -1.
        -14    1    4    4    0    0  0.16572674161E+02  0.16328863811E+02 -0.80727421337E+01  0.24626296672E+02  0.00000000000E+00 0.  1.
</event>
<event>
12    1  0.1594973E-001  0.1818504E+03  0.7818608E-02  0.1167448E+00
         21   -1    0    0  501  502  0.00000000000E+00  0.00000000000E+00  0.47039119014E+03  0.47039119014E+03  0.00000000000E+00 0. -1.
         21   -1    0    0  502  503 -0.00000000000E+00 -0.00000000000E+00 -0.92724653618E+02  0.92724653618E+02  0.00000000000E+00 0. -1.
         -6    2    1    2    0  503  0.44500408261E+02 -0.36170672324E+02  0.45890245090E+02  0.18755128780E+03  0.17257162887E+03 0.  0.
        -24    2    3    3    0    0  0.52476680812E+02  0.40344111760E+02  0.23317836312E+02  0.10724103475E+03  0.81089263539E+02 0.  0.
          6    2    1    2  501    0 -0.44500408261E+02  0.36170672324E+02  0.33177629143E+03  0.37556455595E+03  0.16638697143E+03 0.  0.
         24    2    5    5    0    0  0.14396640154E+02  0.45283640781E+02  0.27933634042E+03  0.29604130798E+03  0.85754262764E+02 0.  0.
          5    1    5    5  501    0 -0.58897048415E+02 -0.91129684566E+01  0.52439951013E+02  0.79523247974E+02  0.47000000000E+01 0. -1.
        -11    1    6    6    0    0 -0.17611123148E+02 -0.16272111013E+02  0.38021138036E+02  0.44950419274E+02  0.00000000000E+00 0.  1.
         12    1    6    6    0    0  0.32007763303E+02  0.61555751793E+02  0.24131520238E+03  0.25109088870E+03  0.00000000000E+00 0. -1.
         -5    1    3    3    0  503 -0.79762725509E+01 -0.76514784084E+02  0.22572408778E+02  0.80310253052E+02  0.47000000000E+01 0.  1.
         11    1    4    4    0    0  0.45289524898E+02 -0.15690735742E+02  0.70099958769E+01  0.48440481994E+02  0.00000000000E+00 0. -1.
        -12    1    4    4    0    0  0.71871559136E+01  0.56034847502E+02  0.16307840435E+02  0.58800552755E+02  0.00000000000E+00 0.  1.
</event>
<event>
12    1  0.1594973E-001  0.1796780E+03  0.7818608E-02  0.1168294E+00
         21   -1    0    0  501  502  0.00000000000E+00  0.00000000000E+00  0.70879478452E+02  0.70879478452E+02  0.00000000000E+00 0. -1.
         21   -1    0    0  502  503 -0.00000000000E+00 -0.00000000000E+00 -0.45622055959E+03  0.45622055959E+03  0.00000000000E+00 0. -1.
         -6    2    1    2    0  503 -0.37642708819E+02 -0.37262260687E+02 -0.17238048365E+03  0.24846692279E+03  0.17092492790E+03 0.  0.
        -24    2    3    3    0    0  0.33931868227E+02 -0.13743833225E+02 -0.14112519860E+03  0.16676613116E+03  0.80958978428E+02 0.  0.
          6    2    1    2  501    0  0.37642708819E+02  0.37262260687E+02 -0.21296059749E+03  0.27863311526E+03  0.17169376003E+03 0.  0.
         24    2    5    5    0    0  0.68402729862E+02  0.33977624836E+02 -0.22054210985E+03  0.24643781969E+03  0.79116144457E+02 0.  0.
          5    1    5    5  501    0 -0.30760021043E+02  0.32846358503E+01  0.75815123542E+01  0.32195295570E+02  0.47000000000E+01 0. -1.
        -13    1    6    6    0    0  0.52513278499E+02 -0.17144913634E+02 -0.13004724405E+03  0.14129358855E+03  0.00000000000E+00 0.  1.
         14    1    6    6    0    0  0.15889451363E+02  0.51122538470E+02 -0.90494865799E+02  0.10514423113E+03  0.00000000000E+00 0. -1.
         -5    1    3    3    0  503 -0.71574577046E+02 -0.23518427462E+02 -0.31255285046E+02  0.81700791630E+02  0.47000000000E+01 0.  1.
         13    1    4    4    0    0  0.12991622811E+02 -0.18238064450E+02  0.15940685218E+01  0.22448837667E+02  0.00000000000E+00 0. -1.
        -14    1    4    4    0    0  0.20940245417E+02  0.44942312254E+01 -0.14271926712E+03  0.14431729349E+03  0.00000000000E+00 0.  1.
</event>
<event>
12    1  0.1594973E-001  0.3310546E+03  0.7818608E-02  0.1070803E+00
         21   -1    0    0  501  502  0.00000000000E+00  0.00000000000E+00  0.63358742423E+03  0.63358742423E+03  0.00000000000E+00 0.  1.
         21   -1    0    0  502  503 -0.00000000000E+00 -0.00000000000E+00 -0.29550640515E+03  0.29550640515E+03  0.00000000000E+00 0. -1.
         -6    2    1    2    0  503 -0.16878735589E+03 -0.22625817890E+03 -0.13067323388E+03  0.35591103688E+03  0.17296021823E+03 0.  0.
        -24    2    3    3    0    0 -0.45638581373E+02 -0.37835151753E+02 -0.10001924359E+02  0.10046532295E+03  0.80491389637E+02 0.  0.
          6    2    1    2  501    0  0.16878735589E+03  0.22625817890E+03  0.46875425295E+03  0.57318279250E+03  0.17066349619E+03 0.  0.
         24    2    5    5    0    0  0.16433810160E+03  0.21887930926E+03  0.34004381687E+03  0.44409867288E+03  0.81723131412E+02 0.  0.
          5    1    5    5  501    0  0.44492542872E+01  0.73788696471E+01  0.12871043608E+03  0.12908411962E+03  0.47000000000E+01 0. -1.
        -11    1    6    6    0    0  0.10910066924E+03  0.16477763297E+03  0.18432647673E+03  0.27024225129E+03  0.00000000000E+00 0.  1.
         12    1    6    6    0    0  0.55237432360E+02  0.54101676284E+02  0.15571734014E+03  0.17385642160E+03  0.00000000000E+00 0. -1.
         -5    1    3    3    0  503 -0.12314877452E+03 -0.18842302715E+03 -0.12067130952E+03  0.25544571393E+03  0.47000000000E+01 0.  1.
         11    1    4    4    0    0 -0.65233383199E+02 -0.12182148781E+02  0.97857564913E+00  0.66368340667E+02  0.00000000000E+00 0. -1.
        -12    1    4    4    0    0  0.19594801826E+02 -0.25653002972E+02 -0.10980500008E+02  0.34096982278E+02  0.00000000000E+00 0.  1.
</event>
<event>
12    1  0.1594973E-001  0.2780465E+03  0.7818608E-02  0.1096839E+00
         21   -1    0    0  501  502  0.00000000000E+00  0.00000000000E+00  0.10177196909E+03  0.10177196909E+03  0.00000000000E+00 0. -1.
         21   -1    0    0  502  503 -0.00000000000E+00 -0.00000000000E+00 -0.14194477924E+04  0.14194477924E+04  0.00000000000E+00 0.  1.
         -6    2    1    2    0  503 -0.10384617454E+03 -0.19155498013E+03 -0.11783824072E+04  0.12107414828E+04  0.17272087953E+03 0.  0.
        -24    2    3    3    0    0 -0.11470942838E+03 -0.21263610282E+03 -0.11128755852E+04  0.11409155725E+04  0.69454375935E+02 0.  0.
          6    2    1    2  501    0  0.10384617454E+03  0.19155498013E+03 -0.13929341617E+03  0.31047827874E+03  0.17180444523E+03 0.  0.
         24    2    5    5    0    0  0.38926283084E+02  0.19504358416E+03 -0.12731379414E+03  0.24420336638E+03  0.62203108720E+02 0.  0.
          5    1    5    5  501    0  0.64919891455E+02 -0.34886040284E+01 -0.11979622023E+02  0.66274912361E+02  0.47000000000E+01 0. -1.
        -11    1    6    6    0    0  0.53839846671E+02  0.13182675980E+03 -0.98510396455E+02  0.17315115333E+03  0.00000000000E+00 0.  1.
         12    1    6    6    0    0 -0.14913563587E+02  0.63216824357E+02 -0.28803397689E+02  0.71052213049E+02  0.00000000000E+00 0. -1.
         -5    1    3    3    0  503  0.10863253840E+02  0.21081122688E+02 -0.65506822034E+02  0.69825910311E+02  0.47000000000E+01 0.  1.
         13    1    4    4    0    0 -0.48687372729E+02 -0.42810033102E+02 -0.20769951284E+03  0.21758273560E+03  0.00000000000E+00 0. -1.
        -14    1    4    4    0    0 -0.66022055651E+02 -0.16982606971E+03 -0.90517607231E+03  0.92333283689E+03  0.00000000000E+00 0.  1.
</event>
<event>
12    1  0.1594973E-001  0.1813935E+03  0.7818608E-02  0.1166605E+00
         21   -1    0    0  503  502  0.00000000000E+00  0.00000000000E+00  0.40733738410E+03  0.40733738410E+03  0.00000000000E+00 0.  1.
         21   -1    0    0  501  503 -0.00000000000E+00 -0.00000000000E+00 -0.25031162673E+03  0.25031162673E+03  0.00000000000E+00 0.  1.
          6    2    1    2  501    0  0.16949763294E+02 -0.53506637363E+02 -0.19235697791E+03  0.26398432815E+03  0.17186117606E+03 0.  0.
         24    2    3    3    0    0 -0.28342765266E+02 -0.40548505871E+02 -0.19442314358E+03  0.21659566541E+03  0.81644533450E+02 0.  0.
         -6    2    1    2    0  502 -0.16949763294E+02  0.53506637363E+02  0.34938273528E+03  0.39366468269E+03  0.17249154172E+03 0.  0.
        -24    2    5    5    0    0  0.41690158675E+01  0.98835823179E+02  0.21247076166E+03  0.24783013109E+03  0.80560838360E+02 0.  0.
          5    1    3    3  501    0  0.45292528560E+02 -0.12958131493E+02  0.20661656747E+01  0.47388662735E+02  0.47000000000E+01 0. -1.
        -11    1    4    4    0    0 -0.16747840911E+02  0.22432402698E+02 -0.88464077121E+02  0.92787907654E+02  0.00000000000E+00 0.  1.
         12    1    4    4    0    0 -0.11594924356E+02 -0.62980908569E+02 -0.10595906646E+03  0.12380775776E+03  0.00000000000E+00 0. -1.
         -5    1    5    5    0  502 -0.21118779161E+02 -0.45329185815E+02  0.13691197362E+03  0.14583455160E+03  0.47000000000E+01 0.  1.
         11    1    6    6    0    0  0.12750464060E+02  0.16921763001E+02  0.13709350928E+01  0.21232047943E+02  0.00000000000E+00 0. -1.
        -12    1    6    6    0    0 -0.85814481920E+01  0.81914060178E+02  0.21109982657E+03  0.22659808314E+03  0.00000000000E+00 0.  1.
</event>
<event>
12    1  0.1594973E-001  0.3204664E+03  0.7818608E-02  0.1075496E+00
         21   -1    0    0  503  502  0.00000000000E+00  0.00000000000E+00  0.16899908632E+03  0.16899908632E+03  0.00000000000E+00 0. -1.
         21   -1    0    0  501  503 -0.00000000000E+00 -0.00000000000E+00 -0.67556162656E+03  0.67556162656E+03  0.00000000000E+00 0.  1.
          6    2    1    2  501    0 -0.14754372789E+02 -0.26888205612E+03 -0.11863286481E+03  0.34171990932E+03  0.17373395808E+03 0.  0.
         24    2    3    3    0    0  0.57057544673E+02 -0.13480934874E+03 -0.74498482927E+02  0.18328261567E+03  0.81322624991E+02 0.  0.
         -6    2    1    2    0  502  0.14754372789E+02  0.26888205612E+03 -0.38792967543E+03  0.50284080357E+03  0.17275470768E+03 0.  0.
        -24    2    5    5    0    0  0.69882246564E+02  0.13096744202E+03 -0.16725703552E+03  0.23679940217E+03  0.77865535909E+02 0.  0.
          5    1    3    3  501    0 -0.71811917462E+02 -0.13407270739E+03 -0.44134381879E+02  0.15843729365E+03  0.47000000000E+01 0. -1.
        -13    1    4    4    0    0 -0.20596524550E+02 -0.19336637574E+02 -0.14313790987E+02  0.31670285579E+02  0.00000000000E+00 0.  1.
         14    1    4    4    0    0  0.77654069223E+02 -0.11547271116E+03 -0.60184691941E+02  0.15161233009E+03  0.00000000000E+00 0. -1.
         -5    1    5    5    0  502 -0.55127873775E+02  0.13791461410E+03 -0.22067263991E+03  0.26604140140E+03  0.47000000000E+01 0.  1.
         13    1    6    6    0    0  0.53001602577E+02  0.92983554437E+02 -0.62133527152E+02  0.12375656131E+03  0.00000000000E+00 0. -1.
        -14    1    6    6    0    0  0.16880643987E+02  0.37983887584E+02 -0.10512350837E+03  0.11304284086E+03  0.00000000000E+00 0.  1.
</event>
<event>
12    1  0.1594973E-001  0.2479041E+03  0.7818608E-02  0.1114694E+00
         21   -1    0    0  503  502  0.00000000000E+00  0.00000000000E+00  0.42315424203E+02  0.42315424203E+02  0.00000000000E+00 0. -1.
         21   -1    0    0  501  503 -0.00000000000E+00 -0.00000000000E+00 -0.14538841026E+04  0.14538841026E+04  0.00000000000E+00 0. -1.
          6    2    1    2  501    0  0.78085689266E+02  0.16051784747E+03 -0.66790010726E+03  0.71229942834E+03  0.17151258879E+03 0.  0.
         24    2    3    3    0    0  0.29648397022E+02  0.27382881415E+02 -0.14563684854E+03  0.17114132587E+03  0.80314457763E+02 0.  0.
         -6    2    1    2    0  502 -0.78085689266E+02 -0.16051784747E+03 -0.74366857113E+03  0.78390009846E+03  0.17202635394E+03 0.  0.
        -24    2    5    5    0    0 -0.56466232046E+01 -0.13669208121E+03 -0.60623021744E+03  0.62665355161E+03  0.80392709812E+02 0.  0.
          5    1    3    3  501    0  0.48437292244E+02  0.13313496605E+03 -0.52226325871E+03  0.54115810247E+03  0.47000000000E+01 0. -1.
        -11    1    4    4    0    0  0.22358848206E+02  0.52192095519E+01 -0.14601249357E+03  0.14780665249E+03  0.00000000000E+00 0.  1.
         12    1    4    4    0    0  0.72895488161E+01  0.22163671863E+02  0.37564502944E+00  0.23334673377E+02  0.00000000000E+00 0. -1.
         -5    1    5    5    0  502 -0.72439066062E+02 -0.23825766260E+02 -0.13743835369E+03  0.15724654685E+03  0.47000000000E+01 0.  1.
         11    1    6    6    0    0 -0.12932606486E+02 -0.12383942828E+03 -0.37869917595E+03  0.39864335210E+03  0.00000000000E+00 0. -1.
        -12    1    6    6    0    0  0.72859832812E+01 -0.12852652923E+02 -0.22753104149E+03  0.22801019951E+03  0.00000000000E+00 0.  1.
</event>
<event>
12    1  0.1594973E-001  0.1997480E+03  0.7818608E-02  0.1150678E+00
         21   -1    0    0  501  502  0.00000000000E+00  0.00000000000E+00  0.23000518051E+03  0.23000518051E+03  0.00000000000E+00 0.  1.
         21   -1    0    0  502  503 -0.00000000000E+00 -0.00000000000E+00 -0.43205358133E+03  0.43205358133E+03  0.00000000000E+00 0.  1.
         -6    2    1    2    0  503  0.41843960235E+02 -0.79107388989E+02 -0.35891099383E+03  0.41075097672E+03  0.17857874279E+03 0.  0.
        -24    2    3    3    0    0 -0.14432913088E+02  0.39144391421E+01 -0.70999736091E+02  0.10583345877E+03  0.77046263085E+02 0.  0.
          6    2    1    2  501    0 -0.41843960235E+02  0.79107388989E+02  0.15686259301E+03  0.25130778513E+03  0.17475935963E+03 0.  0.
         24    2    5    5    0    0  0.29613625411E+02  0.86737740640E+02  0.11957449676E+03  0.17020969061E+03  0.79201490139E+02 0.  0.
          5    1    5    5  501    0 -0.71457585646E+02 -0.76303516510E+01  0.37288096248E+02  0.81098094518E+02  0.47000000000E+01 0. -1.
        -11    1    6    6    0    0  0.14920741092E+02 -0.13315292420E+02  0.20521195098E+02  0.28653882376E+02  0.00000000000E+00 0.  1.
         12    1    6    6    0    0  0.14692884319E+02  0.10005303306E+03  0.99053301662E+02  0.14155580823E+03  0.00000000000E+00 0. -1.
         -5    1    3    3    0  503  0.56276873323E+02 -0.83021828131E+02 -0.28791125774E+03  0.30491751795E+03  0.47000000000E+01 0.  1.
         11    1    4    4    0    0 -0.28961768820E+02 -0.29627600521E+02 -0.43638725552E+02  0.60174056981E+02  0.00000000000E+00 0. -1.
        -12    1    4    4    0    0  0.14528855732E+02  0.33542039663E+02 -0.27361010539E+02  0.45659401785E+02  0.00000000000E+00 0.  1.
</event>
<event>
12    1  0.1594973E-001  0.2206925E+03  0.7818608E-02  0.1133745E+00
         21   -1    0    0  503  502  0.00000000000E+00  0.00000000000E+00  0.21789310187E+03  0.21789310187E+03  0.00000000000E+00 0. -1.
         21   -1    0    0  501  503 -0.00000000000E+00 -0.00000000000E+00 -0.27794766053E+03  0.27794766053E+03  0.00000000000E+00 0.  1.
          6    2    1    2  501    0 -0.62942999280E+02 -0.12306933829E+03 -0.14187890351E+03  0.26236383513E+03  0.17203858734E+03 0.  0.
         24    2    3    3    0    0  0.11911431614E+02 -0.11455296836E+03 -0.11768120663E+03  0.18309635809E+03  0.80069627132E+02 0.  0.
         -6    2    1    2    0  502  0.62942999280E+02  0.12306933829E+03  0.81824344854E+02  0.23347692727E+03  0.16943544190E+03 0.  0.
        -24    2    5    5    0    0 -0.13952289166E+02  0.10432275921E+03  0.80644971542E+02  0.15418127459E+03  0.78678774378E+02 0.  0.
          5    1    3    3  501    0 -0.74854430894E+02 -0.85163699312E+01 -0.24197696883E+02  0.79267477037E+02  0.47000000000E+01 0. -1.
        -13    1    4    4    0    0 -0.31834811719E+02 -0.36850989945E+02 -0.58303265260E+02  0.75965264675E+02  0.00000000000E+00 0.  1.
         14    1    4    4    0    0  0.43746243333E+02 -0.77701978411E+02 -0.59377941371E+02  0.10713109341E+03  0.00000000000E+00 0. -1.
         -5    1    5    5    0  502  0.76895288446E+02  0.18746579081E+02  0.11793733120E+01  0.79295652680E+02  0.47000000000E+01 0.  1.
         13    1    6    6    0    0 -0.25869010094E+02  0.36435763535E+02  0.71968045100E+02  0.84712278113E+02  0.00000000000E+00 0. -1.
        -14    1    6    6    0    0  0.11916720928E+02  0.67886995671E+02  0.86769264421E+01  0.69468996476E+02  0.00000000000E+00 0.  1.
</event>
<event>
12    1  0.1594973E-001  0.1803008E+03  0.7818608E-02  0.1167672E+00
         21   -1    0    0  503  502  0.00000000000E+00  0.00000000000E+00  0.29533374940E+03  0.29533374940E+03  0.00000000000E+00 0.  1.
         21   -1    0    0  501  503 -0.00000000000E+00 -0.00000000000E+00 -0.41510773085E+03  0.41510773085E+03  0.00000000000E+00 0.  1.
          6    2    1    2  501    0  0.15549302215E+02 -0.50237466818E+02 -0.36461999714E+03  0.40676296300E+03  0.17246095757E+03 0.  0.
         24    2    3    3    0    0  0.17485440953E+02 -0.10060495702E+03 -0.27664306195E+03  0.30526092446E+03  0.78903423616E+02 0.  0.
         -6    2    1    2    0  502 -0.15549302215E+02  0.50237466818E+02  0.24484601569E+03  0.30367851724E+03  0.17177161164E+03 0.  0.
        -24    2    5    5    0    0  0.17214292897E+02  0.46460639101E+02  0.55360818600E+02  0.11128712578E+03  0.82855785939E+02 0.  0.
          5    1    3    3  501    0 -0.19361387385E+01  0.50367490201E+02 -0.87976935191E+02  0.10150203854E+03  0.47000000000E+01 0. -1.
        -13    1    4    4    0    0  0.19915417474E+02 -0.84774813148E+02 -0.12255809439E+03  0.15034586559E+03  0.00000000000E+00 0.  1.
         14    1    4    4    0    0 -0.24299765206E+01 -0.15830143871E+02 -0.15408496755E+03  0.15491505888E+03  0.00000000000E+00 0. -1.
         -5    1    5    5    0  502 -0.32763595112E+02  0.37768277164E+01  0.18948519709E+03  0.19239139146E+03  0.47000000000E+01 0.  1.
         11    1    6    6    0    0 -0.21656513662E+02 -0.12146060606E+02  0.65408455851E+01  0.25677111076E+02  0.00000000000E+00 0. -1.
        -12    1    6    6    0    0  0.38870806559E+02  0.58606699708E+02  0.48819973015E+02  0.85610014708E+02  0.00000000000E+00 0.  1.
</event>
<event>
12    1  0.1594973E-001  0.2002546E+03  0.7818608E-02  0.1149617E+00
         21   -1    0    0  503  502  0.00000000000E+00  0.00000000000E+00  0.35160164153E+03  0.35160164153E+03  0.00000000000E+00 0.  1.
         21   -1    0    0  501  503 -0.00000000000E+00 -0.00000000000E+00 -0.17537295180E+03  0.17537295180E+03  0.00000000000E+00 0.  1.
          6    2    1    2  501    0 -0.37639133886E+02  0.94114693077E+02 -0.67940868503E+02  0.21146603540E+03  0.17270681128E+03 0.  0.
         24    2    3    3    0    0  0.24918779454E+02  0.10347303369E+03 -0.71140659982E+02  0.14795698308E+03  0.74179923635E+02 0.  0.
         -6    2    1    2    0  502  0.37639133886E+02 -0.94114693077E+02  0.24416955824E+03  0.31550855794E+03  0.17219929474E+03 0.  0.
        -24    2    5    5    0    0  0.38072044866E+02 -0.12523137487E+03  0.23755436168E+03  0.28334823886E+03  0.81986412653E+02 0.  0.
          5    1    3    3  501    0 -0.62557913340E+02 -0.93583406110E+01  0.31997914787E+01  0.63509052315E+02  0.47000000000E+01 0. -1.
        -11    1    4    4    0    0 -0.12963218527E+02  0.57990708050E+02 -0.56643963000E+01  0.59691311262E+02  0.00000000000E+00 0.  1.
         12    1    4    4    0    0  0.37881997980E+02  0.45482325638E+02 -0.65476263682E+02  0.88265671822E+02  0.00000000000E+00 0. -1.
         -5    1    5    5    0  502 -0.43291097967E+00  0.31116681791E+02  0.66151965534E+01  0.32160319076E+02  0.47000000000E+01 0.  1.
         13    1    6    6    0    0  0.72523720654E+01 -0.28534511212E+02  0.53368639354E+01  0.29921519803E+02  0.00000000000E+00 0. -1.
        -14    1    6    6    0    0  0.30819672801E+02 -0.96696863657E+02  0.23221749775E+03  0.25342671906E+03  0.00000000000E+00 0.  1.
</event>
<event>
12    1  0.1594973E-001  0.1791825E+03  0.7818608E-02  0.1168822E+00
         21   -1    0    0  501  502  0.00000000000E+00  0.00000000000E+00  0.13713541929E+03  0.13713541929E+03  0.00000000000E+00 0.  1.
         21   -1    0    0  502  503 -0.00000000000E+00 -0.00000000000E+00 -0.73915478710E+03  0.73915478710E+03  0.00000000000E+00 0.  1.
         -6    2    1    2    0  503  0.43616268044E+02  0.10319285136E+02 -0.66385331359E+03  0.68761004489E+03  0.17348626856E+03 0.  0.
        -24    2    3    3    0    0 -0.20358692923E+02 -0.43912508004E+02 -0.27978543219E+03  0.29446362109E+03  0.78013789455E+02 0.  0.
          6    2    1    2  501    0 -0.43616268044E+02 -0.10319285136E+02  0.61833945779E+02  0.18868016150E+03  0.17253376484E+03 0.  0.
         24    2    5    5    0    0  0.29722779361E+02  0.25284307356E+02  0.32962222899E+02  0.10206666339E+03  0.88364901552E+02 0.  0.
          5    1    5    5  501    0 -0.73339047405E+02 -0.35603592492E+02  0.28871722880E+02  0.86613498109E+02  0.47000000000E+01 0. -1.
        -11    1    6    6    0    0 -0.29874582320E+02  0.40085315222E+00  0.20652496579E+02  0.36320475864E+02  0.00000000000E+00 0.  1.
         12    1    6    6    0    0  0.59597361681E+02  0.24883454204E+02  0.12309726320E+02  0.65746187528E+02  0.00000000000E+00 0. -1.
         -5    1    3    3    0  503  0.63974960967E+02  0.54231793141E+02 -0.38406788140E+03  0.39314642380E+03  0.47000000000E+01 0.  1.
         11    1    4    4    0    0  0.72485307118E+01 -0.41334836903E+02 -0.61678186064E+02  0.74600995807E+02  0.00000000000E+00 0. -1.
        -12    1    4    4    0    0 -0.27607223635E+02 -0.25776711013E+01 -0.21810724613E+03  0.21986262529E+03  0.00000000000E+00 0.  1.
</event>
<event>
12    1  0.1594973E-001  0.2709328E+03  0.7818608E-02  0.1100820E+00
         21   -1    0    0  503  502  0.00000000000E+00  0.00000000000E+00  0.19325837848E+04  0.19325837848E+04  0.00000000000E+00 0.  1.
         21   -1    0    0  501  503 -0.00000000000E+00 -0.00000000000E+00 -0.39258474278E+02  0.39258474278E+02  0.00000000000E+00 0. -1.
          6    2    1    2  501    0 -0.20668899764E+03 -0.25689710819E+02  0.76487028861E+03  0.81143770956E+03  0.17327520048E+03 0.  0.
         24    2    3    3    0    0 -0.12543306214E+03  0.25347038759E+02  0.61549242140E+03  0.63383389745E+03  0.80861383268E+02 0.  0.
         -6    2    1    2    0  502  0.20668899764E+03  0.25689710819E+02  0.11284550219E+04  0.11604045495E+04  0.17247515498E+03 0.  0.
        -24    2    5    5    0    0  0.67491187321E+02  0.62653456935E+02  0.62846273795E+03  0.64006165974E+03  0.78949346071E+02 0.  0.
          5    1    3    3  501    0 -0.81255935505E+02 -0.51036749578E+02  0.14937786721E+03  0.17760381210E+03  0.47000000000E+01 0. -1.
        -13    1    4    4    0    0 -0.11899193512E+03  0.41411218260E+02  0.44582392562E+03  0.46328494717E+03  0.00000000000E+00 0.  1.
         14    1    4    4    0    0 -0.64411270172E+01 -0.16064179500E+02  0.16966849578E+03  0.17054895028E+03  0.00000000000E+00 0. -1.
         -5    1    5    5    0  502  0.13919781032E+03 -0.36963746117E+02  0.49999228395E+03  0.52034288977E+03  0.47000000000E+01 0.  1.
         13    1    6    6    0    0 -0.91396886195E+01  0.39726185430E+02  0.18432493980E+03  0.18877867239E+03  0.00000000000E+00 0. -1.
        -14    1    6    6    0    0  0.76630875940E+02  0.22927271505E+02  0.44413779814E+03  0.45128298734E+03  0.00000000000E+00 0.  1.
</event>
<event>
12    1  0.1594973E-001  0.2120868E+03  0.7818608E-02  0.1140024E+00
         21   -1    0    0  503  502  0.00000000000E+00  0.00000000000E+00  0.39163516706E+03  0.39163516706E+03  0.00000000000E+00 0. -1.
         21   -1    0    0  501  503 -0.00000000000E+00 -0.00000000000E+00 -0.13275398163E+03  0.13275398163E+03  0.00000000000E+00 0.  1.
          6    2    1    2  501    0  0.10283697910E+03  0.67395820014E+02  0.22632214537E+03  0.30981774696E+03  0.17218502264E+03 0.  0.
         24    2    3    3    0    0  0.80851031845E+02  0.53794124399E+02  0.51891218888E+02  0.13341869335E+03  0.75346877624E+02 0.  0.
         -6    2    1    2    0  502 -0.10283697910E+03 -0.67395820014E+02  0.32559040050E+02  0.21457140173E+03  0.17280959037E+03 0.  0.
        -24    2    5    5    0    0 -0.43309467815E+02  0.32772987195E+02  0.15849100205E+02  0.96763818664E+02  0.78500088745E+02 0.  0.
          5    1    3    3  501    0  0.21985947257E+02  0.13601695614E+02  0.17443092649E+03  0.17639905361E+03  0.47000000000E+01 0. -1.
        -13    1    4    4    0    0  0.19649480884E+02  0.68228668922E+01 -0.19349221450E+02  0.28408554739E+02  0.00000000000E+00 0.  1.
         14    1    4    4    0    0  0.61201550961E+02  0.46971257507E+02  0.71240440338E+02  0.10501013861E+03  0.00000000000E+00 0. -1.
         -5    1    5    5    0  502 -0.59527511288E+02 -0.10016880721E+03  0.16709939845E+02  0.11780758306E+03  0.47000000000E+01 0.  1.
         13    1    6    6    0    0 -0.15848818852E+02 -0.25962302656E+02  0.21401153235E+01  0.30492725555E+02  0.00000000000E+00 0. -1.
        -14    1    6    6    0    0 -0.27460648963E+02  0.58735289850E+02  0.13708984882E+02  0.66271093108E+02  0.00000000000E+00 0.  1.
</event>
<event>
12    1  0.1594973E-001  0.1880072E+03  0.7818608E-02  0.1160699E+00
         21   -1    0    0  501  502  0.00000000000E+00  0.00000000000E+00  0.64620053563E+02  0.64620053563E+02  0.00000000000E+00 0.  1.
         21   -1    0    0  502  503 -0.00000000000E+00 -0.00000000000E+00 -0.87917154011E+03  0.87917154011E+03  0.00000000000E+00 0.  1.
         -6    2    1    2    0  503  0.59624730066E+02 -0.46172804487E+02 -0.70093674885E+03  0.72571277810E+03  0.17221984237E+03 0.  0.
        -24    2    3    3    0    0  0.97099906437E+02 -0.10471381690E+02 -0.37150386504E+03  0.39220551376E+03  0.79195969722E+02 0.  0.
          6    2    1    2  501    0 -0.59624730066E+02  0.46172804487E+02 -0.11361473769E+03  0.21807881557E+03  0.17018526631E+03 0.  0.
         24    2    5    5    0    0 -0.56774596026E+02 -0.19069198403E+02 -0.11437582394E+03  0.15260125103E+03  0.81353080042E+02 0.  0.
          5    1    5    5  501    0 -0.28501340402E+01  0.65242002890E+02  0.76108624825E+00  0.65477564535E+02  0.47000000000E+01 0. -1.
        -11    1    6    6    0    0  0.12189936554E+02  0.11318989180E+02 -0.12638788204E+01  0.16682669418E+02  0.00000000000E+00 0.  1.
         12    1    6    6    0    0 -0.68964532581E+02 -0.30388187582E+02 -0.11311194512E+03  0.13591858161E+03  0.00000000000E+00 0. -1.
         -5    1    3    3    0  503 -0.37475176371E+02 -0.35701422797E+02 -0.32943288381E+03  0.33350726434E+03  0.47000000000E+01 0.  1.
         11    1    4    4    0    0  0.54185486693E+02 -0.15969250636E+02 -0.82533994555E+02  0.10001471987E+03  0.00000000000E+00 0. -1.
        -12    1    4    4    0    0  0.42914419745E+02  0.54978689456E+01 -0.28896987048E+03  0.29219079389E+03  0.00000000000E+00 0.  1.
</event>
<event>
12    1  0.1594973E-001  0.2030845E+03  0.7818608E-02  0.1149793E+00
         21   -1    0    0  503  502  0.00000000000E+00  0.00000000000E+00  0.12050737615E+03  0.12050737615E+03  0.00000000000E+00 0.  1.
         21   -1    0    0  501  503 -0.00000000000E+00 -0.00000000000E+00 -0.36169892843E+03  0.36169892843E+03  0.00000000000E+00 0.  1.
          6    2    1    2  501    0  0.83701754472E+02 -0.69467289632E+02 -0.19726323090E+03  0.27442509869E+03  0.15673118546E+03 0.  0.
         24    2    3    3    0    0  0.10031235131E+03 -0.57198761064E+02 -0.20778218101E+03  0.25077838577E+03  0.79888033717E+02 0.  0.
         -6    2    1    2    0  502 -0.83701754472E+02  0.69467289632E+02 -0.43928321387E+02  0.20778120589E+03  0.17149823343E+03 0.  0.
        -24    2    5    5    0    0 -0.17490993809E+02  0.81650033227E+02 -0.70957166978E+02  0.13508366423E+03  0.78993759283E+02 0.  0.
          5    1    3    3  501    0 -0.16610596843E+02 -0.12268528568E+02  0.10518950107E+02  0.23646712924E+02  0.47000000000E+01 0. -1.
        -11    1    4    4    0    0  0.37528792269E+02  0.16801470801E+02 -0.83688374851E+02  0.93244001177E+02  0.00000000000E+00 0.  1.
         12    1    4    4    0    0  0.62783559045E+02 -0.74000231864E+02 -0.12409380615E+03  0.15753438459E+03  0.00000000000E+00 0. -1.
         -5    1    5    5    0  502 -0.66210760662E+02 -0.12182743595E+02  0.27028845592E+02  0.72697541657E+02  0.47000000000E+01 0.  1.
         13    1    6    6    0    0  0.24081637265E+02  0.37233588843E+01 -0.50612945061E+01  0.24887855609E+02  0.00000000000E+00 0. -1.
        -14    1    6    6    0    0 -0.41572631074E+02  0.77926674343E+02 -0.65895872472E+02  0.11019580862E+03  0.00000000000E+00 0.  1.
</event>
<event>
12    1  0.1594973E-001  0.1825654E+03  0.7818608E-02  0.1165699E+00
         21   -1    0    0  503  502  0.00000000000E+00  0.00000000000E+00  0.65426356642E+02  0.65426356642E+02  0.00000000000E+00 0. -1.
         21   -1    0    0  501  503 -0.00000000000E+00 -0.00000000000E+00 -0.50848651576E+03  0.50848651576E+03  0.00000000000E+00 0.  1.
          6    2    1    2  501    0 -0.91608638914E+01  0.61870667967E+02 -0.24342854431E+03  0.30338949993E+03  0.16992890131E+03 0.  0.
         24    2    3    3    0    0  0.49903951674E+01 -0.31383724162E+02 -0.12979826920E+03  0.15563778520E+03  0.79785257459E+02 0.  0.
         -6    2    1    2    0  502  0.91608638914E+01 -0.61870667967E+02 -0.19963161481E+03  0.27052337247E+03  0.17151738233E+03 0.  0.
        -24    2    5    5    0    0 -0.10452710106E+02  0.16976920156E+02 -0.48714251419E+02  0.99059746565E+02  0.83918294380E+02 0.  0.
          5    1    3    3  501    0 -0.14151259059E+02  0.93254392129E+02 -0.11363027511E+03  0.14775171473E+03  0.47000000000E+01 0. -1.
        -11    1    4    4    0    0 -0.13670614245E+02  0.20672679030E+02 -0.69666385331E+02  0.73943563595E+02  0.00000000000E+00 0.  1.
         12    1    4    4    0    0  0.18661009413E+02 -0.52056403192E+02 -0.60131883874E+02  0.81694221606E+02  0.00000000000E+00 0. -1.
         -5    1    5    5    0  502  0.19613573997E+02 -0.78847588123E+02 -0.15091736339E+03  0.17146362591E+03  0.47000000000E+01 0.  1.
         13    1    6    6    0    0 -0.27512581542E+02 -0.26979943362E+02 -0.16289143213E+02  0.41835340007E+02  0.00000000000E+00 0. -1.
        -14    1    6    6    0    0  0.17059871436E+02  0.43956863518E+02 -0.32425108206E+02  0.57224406558E+02  0.00000000000E+00 0.  1.
</event>
<event>
12    1  0.1594973E-001  0.1759592E+03  0.7818608E-02  0.1172584E+00
         21   -1    0    0  503  502  0.00000000000E+00  0.00000000000E+00  0.80012255902E+03  0.80012255902E+03  0.00000000000E+00 0.  1.
         21   -1    0    0  501  503 -0.00000000000E+00 -0.00000000000E+00 -0.53300048712E+03  0.53300048712E+03  0.00000000000E+00 0.  1.
          6    2    1    2  501    0 -0.25118482650E+02  0.31582664038E+02 -0.50871660428E+03  0.53828824814E+03  0.17126952962E+03 0.  0.
         24    2    3    3    0    0 -0.33619924516E+01 -0.42346435282E+02 -0.35487571030E+03  0.36616048381E+03  0.79575163022E+02 0.  0.
         -6    2    1    2    0  502  0.25118482650E+02 -0.31582664038E+02  0.77583867618E+03  0.79483479800E+03  0.16795327270E+03 0.  0.
        -24    2    5    5    0    0  0.23651707774E+02 -0.82732789338E+02  0.44296538724E+03  0.45801852280E+03  0.78476208011E+02 0.  0.
          5    1    3    3  501    0 -0.21756490198E+02  0.73929099320E+02 -0.15384089398E+03  0.17212776433E+03  0.47000000000E+01 0. -1.
        -13    1    4    4    0    0 -0.45221914396E+01  0.34814135685E+01 -0.26686751921E+03  0.26692853588E+03  0.00000000000E+00 0.  1.
         14    1    4    4    0    0  0.11601989880E+01 -0.45827848850E+02 -0.88008191082E+02  0.99231947928E+02  0.00000000000E+00 0. -1.
         -5    1    5    5    0  502  0.14667748752E+01  0.51150125300E+02  0.33287328894E+03  0.33681627519E+03  0.47000000000E+01 0.  1.
         11    1    6    6    0    0  0.10289084646E+02 -0.67515800472E+02  0.15545114462E+03  0.16979195193E+03  0.00000000000E+00 0. -1.
        -12    1    6    6    0    0  0.13362623129E+02 -0.15216988866E+02  0.28751424262E+03  0.28822657088E+03  0.00000000000E+00 0.  1.
</event>
<event>
12    1  0.1594973E-001  0.3640677E+03  0.7818608E-02  0.1057153E+00
         21   -1    0    0  503  502  0.00000000000E+00  0.00000000000E+00  0.11002941162E+04  0.11002941162E+04  0.00000000000E+00 0. -1.
         21   -1    0    0  501  503 -0.00000000000E+00 -0.00000000000E+00 -0.16509248035E+03  0.16509248035E+03  0.00000000000E+00 0. -1.
          6    2    1    2  501    0  0.38499136376E+02  0.31690191924E+03  0.13574560477E+03  0.38693612856E+03  0.17141670995E+03 0.  0.
         24    2    3    3    0    0 -0.28612140052E+02  0.17282309663E+03  0.27230027201E+02  0.19442547658E+03  0.79833040004E+02 0.  0.
         -6    2    1    2    0  502 -0.38499136376E+02 -0.31690191924E+03  0.79945603105E+03  0.87845046797E+03  0.17503219464E+03 0.  0.
        -24    2    5    5    0    0 -0.35873522316E+02 -0.11074576619E+03  0.45792743826E+03  0.47948790959E+03  0.81606264460E+02 0.  0.
          5    1    3    3  501    0  0.67111276428E+02  0.14407882262E+03  0.10851557757E+03  0.19251065198E+03  0.47000000000E+01 0. -1.
        -11    1    4    4    0    0  0.18219848216E+01 -0.80633386231E+01 -0.24249135842E+01  0.86149442443E+01  0.00000000000E+00 0.  1.
         12    1    4    4    0    0 -0.30434124874E+02  0.18088643525E+03  0.29654940786E+02  0.18581053234E+03  0.00000000000E+00 0. -1.
         -5    1    5    5    0  502 -0.26256140600E+01 -0.20615615305E+03  0.34152859279E+03  0.39896255837E+03  0.47000000000E+01 0.  1.
         11    1    6    6    0    0 -0.84472710800E+01 -0.11391058358E+03  0.38116062235E+03  0.39790752376E+03  0.00000000000E+00 0. -1.
        -12    1    6    6    0    0 -0.27426251236E+02  0.31648173906E+01  0.76766815914E+02  0.81580385826E+02  0.00000000000E+00 0.  1.
</event>
<event>
12    1  0.1594973E-001  0.1819170E+03  0.7818608E-02  0.1166222E+00
         21   -1    0    0  501  502  0.00000000000E+00  0.00000000000E+00  0.58227887981E+03  0.58227887981E+03  0.00000000000E+00 0. -1.
         21   -1    0    0  502  503 -0.00000000000E+00 -0.00000000000E+00 -0.80479243977E+02  0.80479243977E+02  0.00000000000E+00 0. -1.
         -6    2    1    2    0  503  0.10697150611E+02 -0.56604948991E+02  0.70524881472E+02  0.19510911844E+03  0.17255509239E+03 0.  0.
        -24    2    3    3    0    0  0.43192627521E+02  0.49803350538E+01  0.82417446412E+01  0.10156777804E+03  0.91420349878E+02 0.  0.
          6    2    1    2  501    0 -0.10697150611E+02  0.56604948991E+02  0.43127475437E+03  0.46764900535E+03  0.17140341062E+03 0.  0.
         24    2    5    5    0    0  0.27920548743E+02  0.93658000380E+02  0.27812921798E+03  0.30535328565E+03  0.79582592832E+02 0.  0.
          5    1    5    5  501    0 -0.38617699354E+02 -0.37053051389E+02  0.15314553638E+03  0.16229571971E+03  0.47000000000E+01 0. -1.
        -11    1    6    6    0    0 -0.69381794665E+01  0.14479281269E+02  0.22318653647E+01  0.16210155563E+02  0.00000000000E+00 0.  1.
         12    1    6    6    0    0  0.34858728209E+02  0.79178719111E+02  0.27589735262E+03  0.28914313008E+03  0.00000000000E+00 0. -1.
         -5    1    3    3    0  503 -0.32495476910E+02 -0.61585284045E+02  0.62283136831E+02  0.93541340401E+02  0.47000000000E+01 0.  1.
         13    1    4    4    0    0  0.40487303647E+02  0.37246439211E+02  0.29898591528E+02  0.62613455150E+02  0.00000000000E+00 0. -1.
        -14    1    4    4    0    0  0.27053238738E+01 -0.32266104157E+02 -0.21656846887E+02  0.38954322890E+02  0.00000000000E+00 0.  1.
</event>
<event>
12    1  0.1594973E-001  0.1969472E+03  0.7818608E-02  0.1153517E+00
         21   -1    0    0  503  502  0.00000000000E+00  0.00000000000E+00  0.13348844382E+03  0.13348844382E+03  0.00000000000E+00 0. -1.
         21   -1    0    0  501  503 -0.00000000000E+00 -0.00000000000E+00 -0.43163611322E+03  0.43163611322E+03  0.00000000000E+00 0. -1.
          6    2    1    2  501    0 -0.78727389190E+02  0.27263886270E+02 -0.31370154197E+03  0.36756409489E+03  0.17249169578E+03 0.  0.
         24    2    3    3    0    0 -0.70534555244E+02  0.16500364151E+02 -0.32902995232E+03  0.34658729579E+03  0.81330551337E+02 0.  0.
         -6    2    1    2    0  502  0.78727389190E+02 -0.27263886270E+02  0.15553872570E+02  0.19756046216E+03  0.17845697507E+03 0.  0.
        -24    2    5    5    0    0  0.11990314578E+03  0.35105468387E+01  0.30253622823E+02  0.14388848324E+03  0.73481464376E+02 0.  0.
          5    1    3    3  501    0 -0.81928339461E+01  0.10763522118E+02  0.15328410350E+02  0.20976799096E+02  0.47000000000E+01 0. -1.
        -11    1    4    4    0    0  0.11851650885E+02  0.22228484362E+02 -0.57496581722E+02  0.62772797098E+02  0.00000000000E+00 0.  1.
         12    1    4    4    0    0 -0.82386206129E+02 -0.57281202107E+01 -0.27153337060E+03  0.28381449870E+03  0.00000000000E+00 0. -1.
         -5    1    5    5    0  502 -0.41175756590E+02 -0.30774433108E+02 -0.14699750253E+02  0.53671978922E+02  0.47000000000E+01 0.  1.
         13    1    6    6    0    0  0.40221915414E+02 -0.14924083663E+02 -0.20590303127E+02  0.47586671827E+02  0.00000000000E+00 0. -1.
        -14    1    6    6    0    0  0.79681230367E+02  0.18434630502E+02  0.50843925950E+02  0.96301811409E+02  0.00000000000E+00 0.  1.
</event>
<event>
12    1  0.1594973E-001  0.2261945E+03  0.7818608E-02  0.1129386E+00
         21   -1    0    0  501  502  0.00000000000E+00  0.00000000000E+00  0.46072043742E+02  0.46072043742E+02  0.00000000000E+00 0.  1.
         21   -1    0    0  502  503 -0.00000000000E+00 -0.00000000000E+00 -0.19130908410E+04  0.19130908410E+04  0.00000000000E+00 0.  1.
         -6    2    1    2    0  503 -0.12981560709E+03 -0.69504705473E+02 -0.15681437195E+04  0.15843425857E+04  0.17141676675E+03 0.  0.
        -24    2    3    3    0    0 -0.45304903850E+02  0.27916692416E+02 -0.59917497382E+03  0.60681739020E+03  0.79905067232E+02 0.  0.
          6    2    1    2  501    0  0.12981560709E+03  0.69504705473E+02 -0.29887507771E+03  0.37482029900E+03  0.17170017046E+03 0.  0.
         24    2    5    5    0    0  0.25781170071E+02 -0.78824681532E+01 -0.17853927997E+03  0.19786060600E+03  0.80905765427E+02 0.  0.
          5    1    5    5  501    0  0.10403443702E+03  0.77387173626E+02 -0.12033579774E+03  0.17695969300E+03  0.47000000000E+01 0. -1.
        -13    1    6    6    0    0  0.49419976306E+02  0.86777107870E+01 -0.14591825564E+03  0.15430416084E+03  0.00000000000E+00 0.  1.
         14    1    6    6    0    0 -0.23638806235E+02 -0.16560178940E+02 -0.32621024331E+02  0.43556445162E+02  0.00000000000E+00 0. -1.
         -5    1    3    3    0  503 -0.84510703240E+02 -0.97421397889E+02 -0.96896874568E+03  0.97752519550E+03  0.47000000000E+01 0.  1.
         13    1    4    4    0    0 -0.25107204360E+02  0.46798557825E+02 -0.20822643540E+03  0.21489235706E+03  0.00000000000E+00 0. -1.
        -14    1    4    4    0    0 -0.20197699490E+02 -0.18881865409E+02 -0.39094853842E+03  0.39192503313E+03  0.00000000000E+00 0.  1.
</event>
<event>
12    1  0.1594973E-001  0.3123348E+03  0.7818608E-02  0.1079307E+00
         21   -1    0    0  503  502  0.00000000000E+00  0.00000000000E+00  0.52253526585E+03  0.52253526585E+03  0.00000000000E+00 0. -1.
         21   -1    0    0  501  503 -0.00000000000E+00 -0.00000000000E+00 -0.19835025789E+03  0.19835025789E+03  0.00000000000E+00 0.  1.
          6    2    1    2  501    0 -0.86655272247E+01  0.25984730039E+03  0.25104088286E+03  0.40071755018E+03  0.17308182825E+03 0.  0.
         24    2    3    3    0    0  0.47025819186E+02  0.84959236603E+02  0.12609374438E+03  0.17863369589E+03  0.81122533127E+02 0.  0.
         -6    2    1    2    0  502  0.86655272247E+01 -0.25984730039E+03  0.73144125100E+02  0.32016797356E+03  0.17193532904E+03 0.  0.
        -24    2    5    5    0    0  0.39006891452E+02 -0.67134810384E+02  0.52051493986E+02  0.12388834834E+03  0.81304025001E+02 0.  0.
          5    1    3    3  501    0 -0.55691346411E+02  0.17488806379E+03  0.12494713848E+03  0.22208385429E+03  0.47000000000E+01 0. -1.
        -13    1    4    4    0    0 -0.12445196734E+02 -0.18433187854E+01 -0.21340669785E+01  0.12760681320E+02  0.00000000000E+00 0.  1.
         14    1    4    4    0    0  0.59471015920E+02  0.86802555388E+02  0.12822781136E+03  0.16587301457E+03  0.00000000000E+00 0. -1.
         -5    1    5    5    0  502 -0.30341364227E+02 -0.19271249001E+03  0.21092631114E+02  0.19627962522E+03  0.47000000000E+01 0.  1.
         13    1    6    6    0    0  0.68471523245E+01 -0.19730794418E+02  0.62289204822E+02  0.65697281379E+02  0.00000000000E+00 0. -1.
        -14    1    6    6    0    0  0.32159739128E+02 -0.47404015966E+02 -0.10237710836E+02  0.58191066957E+02  0.00000000000E+00 0.  1.
</event>
<event>
12    1  0.1594973E-001  0.2047733E+03  0.7818608E-02  0.1146034E+00
         21   -1    0    0  501  502  0.00000000000E+00  0.00000000000E+00  0.28108581253E+02  0.28108581253E+02  0.00000000000E+00 0.  1.
         21   -1    0    0  502  503 -0.00000000000E+00 -0.00000000000E+00 -0.19706170853E+04  0.19706170853E+04  0.00000000000E+00 0.  1.
         -6    2    1    2    0  503 -0.60168289516E+02 -0.91694352268E+02 -0.14663263377E+04  0.14803806486E+04  0.17142304080E+03 0.  0.
        -24    2    3    3    0    0  0.14428694610E+02 -0.87494909799E+02 -0.11363416239E+04  0.11420105160E+04  0.71078729852E+02 0.  0.
          6    2    1    2  501    0  0.60168289516E+02  0.91694352268E+02 -0.47618216636E+03  0.51834501793E+03  0.17292780215E+03 0.  0.
         24    2    5    5    0    0  0.36676031217E+01 -0.21980748020E+02 -0.17762029709E+03  0.19388294654E+03  0.74464907342E+02 0.  0.
          5    1    5    5  501    0  0.56500686394E+02  0.11367510029E+03 -0.29856186927E+03  0.32446207139E+03  0.47000000000E+01 0. -1.
        -13    1    6    6    0    0 -0.63176387555E+01  0.12175314272E+02 -0.10439594812E+01  0.13756478054E+02  0.00000000000E+00 0.  1.
         14    1    6    6    0    0  0.99852418772E+01 -0.34156062292E+02 -0.17657633761E+03  0.18012646849E+03  0.00000000000E+00 0. -1.
         -5    1    3    3    0  503 -0.74596984126E+02 -0.41994424689E+01 -0.32998471372E+03  0.33837013261E+03  0.47000000000E+01 0.  1.
         13    1    4    4    0    0  0.99893001502E+01  0.65050475042E+01 -0.42854496284E+02  0.44481564859E+02  0.00000000000E+00 0. -1.
        -14    1    4    4    0    0  0.44393944599E+01 -0.93999957303E+02 -0.10934871277E+04  0.10975289511E+04  0.00000000000E+00 0.  1.
</event>
<event>
12    1  0.1594973E-001  0.2052460E+03  0.7818608E-02  0.1145397E+00
         21   -1    0    0  501  502  0.00000000000E+00  0.00000000000E+00  0.79819682565E+03  0.79819682565E+03  0.00000000000E+00 0. -1.
         21   -1    0    0  502  503 -0.00000000000E+00 -0.00000000000E+00 -0.92706618847E+02  0.92706618847E+02  0.00000000000E+00 0. -1.
         -6    2    1    2    0  503 -0.73824220149E+02 -0.85586608019E+02  0.60377568398E+02  0.21394246426E+03  0.17132088109E+03 0.  0.
        -24    2    3    3    0    0 -0.78639307660E+02 -0.10815948543E+03  0.80858237947E+01  0.15659059929E+03  0.81071698159E+02 0.  0.
          6    2    1    2  501    0  0.73824220149E+02  0.85586608019E+02  0.64511263840E+03  0.67696098023E+03  0.17126228300E+03 0.  0.
         24    2    5    5    0    0 -0.16857796609E+02  0.53973090024E+02  0.43267051747E+03  0.44377352896E+03  0.80832472228E+02 0.  0.
          5    1    5    5  501    0  0.90682016758E+02  0.31613517996E+02  0.21244212093E+03  0.23318745127E+03  0.47000000000E+01 0. -1.
        -11    1    6    6    0    0 -0.30342689928E+02 -0.10335608678E+02  0.11532479875E+03  0.11969675370E+03  0.00000000000E+00 0.  1.
         12    1    6    6    0    0  0.13484893319E+02  0.64308698702E+02  0.31734571872E+03  0.32407677526E+03  0.00000000000E+00 0. -1.
         -5    1    3    3    0  503  0.48150875110E+01  0.22572877408E+02  0.52291744603E+02  0.57351864973E+02  0.47000000000E+01 0.  1.
         11    1    4    4    0    0 -0.26530487165E+02 -0.24416643132E+02 -0.33811340495E+02  0.49429201461E+02  0.00000000000E+00 0. -1.
        -12    1    4    4    0    0 -0.52108820494E+02 -0.83742842296E+02  0.41897164290E+02  0.10716139783E+03  0.00000000000E+00 0.  1.
</event>
<event>
12    1  0.1594973E-001  0.2095510E+03  0.7818608E-02  0.1142076E+00
         21   -1    0    0  503  502  0.00000000000E+00  0.00000000000E+00  0.47379302023E+03  0.47379302023E+03  0.00000000000E+00 0.  1.
         21   -1    0    0  501  503 -0.00000000000E+00 -0.00000000000E+00 -0.35639234990E+03  0.35639234990E+03  0.00000000000E+00 0. -1.
          6    2    1    2  501    0 -0.10598780955E+03  0.53925935866E+02 -0.29856561486E+03  0.36476439800E+03  0.17254048029E+03 0.  0.
         24    2    3    3    0    0 -0.13519388991E+03  0.36220889768E+02 -0.18121062122E+03  0.24245026014E+03  0.79721381534E+02 0.  0.
         -6    2    1    2    0  502  0.10598780955E+03 -0.53925935866E+02  0.41596628519E+03  0.46542097212E+03  0.17160218104E+03 0.  0.
        -24    2    5    5    0    0  0.80119061155E+02 -0.87894879688E+02  0.20625047853E+03  0.25135114507E+03  0.80582655696E+02 0.  0.
          5    1    3    3  501    0  0.29206080361E+02  0.17705046098E+02 -0.11735499365E+03  0.12231413786E+03  0.47000000000E+01 0. -1.
        -11    1    4    4    0    0 -0.57549818724E+02 -0.20251217072E+02 -0.97801028972E+02  0.11526983428E+03  0.00000000000E+00 0.  1.
         12    1    4    4    0    0 -0.77644071188E+02  0.56472106840E+02 -0.83409592248E+02  0.12718042585E+03  0.00000000000E+00 0. -1.
         -5    1    5    5    0  502  0.25868748395E+02  0.33968943822E+02  0.20971580666E+03  0.21406982705E+03  0.47000000000E+01 0.  1.
         13    1    6    6    0    0  0.68504731352E+01 -0.26353398811E+02  0.38859383084E+01  0.27505110936E+02  0.00000000000E+00 0. -1.
        -14    1    6    6    0    0  0.73268588020E+02 -0.61541480878E+02  0.20236454023E+03  0.22384603414E+03  0.00000000000E+00 0.  1.
</event>
<event>
12    1  0.1594973E-001  0.1808722E+03  0.7818608E-02  0.1167551E+00
         21   -1    0    0  503  502  0.00000000000E+00  0.00000000000E+00  0.21116135373E+03  0.21116135373E+03  0.00000000000E+00 0.  1.
         21   -1    0    0  501  503 -0.00000000000E+00 -0.00000000000E+00 -0.26162821514E+03  0.26162821514E+03  0.00000000000E+00 0.  1.
          6    2    1    2  501    0 -0.31887923239E+02  0.33772680804E+02 -0.17755938458E+03  0.25173012077E+03  0.17228837753E+03 0.  0.
         24    2    3    3    0    0 -0.64995962564E+02  0.72400080822E+02 -0.11339054821E+03  0.16970605198E+03  0.80476585424E+02 0.  0.
         -6    2    1    2    0  502  0.31887923239E+02 -0.33772680804E+02  0.12709252317E+03  0.22105944810E+03  0.17480656891E+03 0.  0.
        -24    2    5    5    0    0  0.45073275432E+02  0.12297719348E+02  0.67381283779E+01  0.91430725869E+02  0.78302881170E+02 0.  0.
          5    1    3    3  501    0  0.33108039325E+02 -0.38627400018E+02 -0.64168836368E+02  0.82024068790E+02  0.47000000000E+01 0. -1.
        -11    1    4    4    0    0 -0.74002420517E+02  0.25159531949E+02 -0.69124397277E+02  0.10434338786E+03  0.00000000000E+00 0.  1.
         12    1    4    4    0    0  0.90064579522E+01  0.47240548873E+02 -0.44266150936E+02  0.65362664123E+02  0.00000000000E+00 0. -1.
         -5    1    5    5    0  502 -0.13185352192E+02 -0.46070400152E+02  0.12035439479E+03  0.12962872223E+03  0.47000000000E+01 0.  1.
         13    1    6    6    0    0  0.64701234017E+02  0.11531986920E+02  0.18828927102E+02  0.68364939124E+02  0.00000000000E+00 0. -1.
        -14    1    6    6    0    0 -0.19627958585E+02  0.76573242723E+00 -0.12090798724E+02  0.23065786745E+02  0.00000000000E+00 0.  1.
</event>
<event>
12    1  0.1594973E-001  0.2206962E+03  0.7818608E-02  0.1133888E+00
         21   -1    0    0  503  502  0.00000000000E+00  0.00000000000E+00  0.15785625461E+03  0.15785625461E+03  0.00000000000E+00 0. -1.
         21   -1    0    0  501  503 -0.00000000000E+00 -0.00000000000E+00 -0.31746625600E+03  0.31746625600E+03  0.00000000000E+00 0. -1.
          6    2    1    2  501    0 -0.13477992889E+03 -0.36279950067E+02 -0.32542595790E+02  0.22308252410E+03  0.17095299942E+03 0.  0.
         24    2    3    3    0    0 -0.58586257257E+02  0.45164053321E+02 -0.70184153083E+01  0.10857411797E+03  0.79164005003E+02 0.  0.
         -6    2    1    2    0  502  0.13477992889E+03  0.36279950067E+02 -0.12706740560E+03  0.25223998651E+03  0.16732310426E+03 0.  0.
        -24    2    5    5    0    0  0.11547511303E+03  0.21090453224E+02 -0.22127718120E+02  0.14436123634E+03  0.81063072366E+02 0.  0.
          5    1    3    3  501    0 -0.76193671636E+02 -0.81444003388E+02 -0.25524180482E+02  0.11450840613E+03  0.47000000000E+01 0. -1.
        -11    1    4    4    0    0  0.70740641770E+01 -0.15785491733E+02 -0.78159685299E+01  0.18981925543E+02  0.00000000000E+00 0.  1.
         12    1    4    4    0    0 -0.65660321434E+02  0.60949545054E+02  0.79755322153E+00  0.89592192429E+02  0.00000000000E+00 0. -1.
         -5    1    5    5    0  502  0.19304815866E+02  0.15189496843E+02 -0.10493968748E+03  0.10787875017E+03  0.47000000000E+01 0.  1.
         11    1    6    6    0    0  0.79339953390E+02 -0.25431785683E+02 -0.74227154239E+01  0.83646282830E+02  0.00000000000E+00 0. -1.
        -12    1    6    6    0    0  0.36135159637E+02  0.46522238907E+02 -0.14705002696E+02  0.60714953506E+02  0.00000000000E+00 0.  1.
</event>
<event>
12    1  0.1594973E-001  0.3620425E+03  0.7818608E-02  0.1057863E+00
         21   -1    0    0  501  502  0.00000000000E+00  0.00000000000E+00  0.41725457740E+03  0.41725457740E+03  0.00000000000E+00 0.  1.
         21   -1    0    0  502  503 -0.00000000000E+00 -0.00000000000E+00 -0.31586687292E+03  0.31586687292E+03  0.00000000000E+00 0.  1.
         -6    2    1    2    0  503 -0.21541338840E+03  0.23371146655E+03  0.18180596732E+02  0.36164036967E+03  0.17154954206E+03 0.  0.
        -24    2    3    3    0    0 -0.64546055089E+02  0.82754737685E+02 -0.47391443508E+02  0.13832295273E+03  0.76633873036E+02 0.  0.
          6    2    1    2  501    0  0.21541338840E+03 -0.23371146655E+03  0.83207107747E+02  0.37148108065E+03  0.17335164551E+03 0.  0.
         24    2    5    5    0    0  0.18856598323E+03 -0.16830241613E+03  0.45636094294E+01  0.26562260499E+03  0.81558006609E+02 0.  0.
          5    1    5    5  501    0  0.26847405164E+02 -0.65409050420E+02  0.78643498318E+02  0.10585847566E+03  0.47000000000E+01 0. -1.
        -11    1    6    6    0    0  0.19011273571E+03 -0.15806683935E+03  0.18874565592E+02  0.24796013230E+03  0.00000000000E+00 0.  1.
         12    1    6    6    0    0 -0.15467524815E+01 -0.10235576776E+02 -0.14310956162E+02  0.17662472688E+02  0.00000000000E+00 0. -1.
         -5    1    3    3    0  503 -0.15086733331E+03  0.15095672886E+03  0.65572040241E+02  0.22331741694E+03  0.47000000000E+01 0.  1.
         13    1    4    4    0    0 -0.60498588415E+02  0.33593897465E+02  0.10211758081E+01  0.69207455863E+02  0.00000000000E+00 0. -1.
        -14    1    4    4    0    0 -0.40474666741E+01  0.49160840220E+02 -0.48412619317E+02  0.69115496864E+02  0.00000000000E+00 0.  1.
</event>
<event>
12    1  0.1594973E-001  0.2621198E+03  0.7818608E-02  0.1106076E+00
         21   -1    0    0  503  502  0.00000000000E+00  0.00000000000E+00  0.31569468389E+02  0.31569468389E+02  0.00000000000E+00 0.  1.
         21   -1    0    0  501  503 -0.00000000000E+00 -0.00000000000E+00 -0.24491563256E+04  0.24491563256E+04  0.00000000000E+00 0. -1.
          6    2    1    2  501    0 -0.18707437968E+03 -0.58566526306E+02 -0.78924086580E+03  0.83162967933E+03  0.17401125757E+03 0.  0.
         24    2    3    3    0    0 -0.94436231329E+02 -0.36008117235E+02 -0.65033087328E+03  0.66308062305E+03  0.80813870317E+02 0.  0.
         -6    2    1    2    0  502  0.18707437968E+03  0.58566526306E+02 -0.16283459914E+04  0.16490961146E+04  0.17198972670E+03 0.  0.
        -24    2    5    5    0    0  0.18008685649E+03  0.19407551487E+02 -0.15324075974E+04  0.15451321005E+04  0.79700906935E+02 0.  0.
          5    1    3    3  501    0 -0.92638148355E+02 -0.22558409071E+02 -0.13890999252E+03  0.16854905628E+03  0.47000000000E+01 0. -1.
        -11    1    4    4    0    0 -0.39183407210E+02 -0.53466445729E+02 -0.25268384391E+03  0.26123385154E+03  0.00000000000E+00 0.  1.
         12    1    4    4    0    0 -0.55252824119E+02  0.17458328494E+02 -0.39764702937E+03  0.40184677151E+03  0.00000000000E+00 0. -1.
         -5    1    5    5    0  502  0.69875231937E+01  0.39158974818E+02 -0.95938394032E+02  0.10396401415E+03  0.47000000000E+01 0.  1.
         11    1    6    6    0    0 -0.24400116798E+01 -0.10843616080E+02 -0.49825504677E+02  0.51050157522E+02  0.00000000000E+00 0. -1.
        -12    1    6    6    0    0  0.18252686817E+03  0.30251167567E+02 -0.14825820927E+04  0.14940819430E+04  0.00000000000E+00 0.  1.
</event>
<event>
12    1  0.1594973E-001  0.1848475E+03  0.7818608E-02  0.1163255E+00
         21   -1    0    0  501  502  0.00000000000E+00  0.00000000000E+00  0.15398271439E+03  0.15398271439E+03  0.00000000000E+00 0.  1.
         21   -1    0    0  502  503 -0.00000000000E+00 -0.00000000000E+00 -0.29491819827E+03  0.29491819827E+03  0.00000000000E+00 0.  1.
         -6    2    1    2    0  503  0.47361250544E+01 -0.68177350118E+02 -0.18243542012E+03  0.25971387565E+03  0.17174991338E+03 0.  0.
        -24    2    3    3    0    0  0.28962121163E+02 -0.84054645367E+02 -0.58489932644E+02  0.13234213131E+03  0.78672610415E+02 0.  0.
          6    2    1    2  501    0 -0.47361250544E+01  0.68177350118E+02  0.41499936231E+02  0.18918703700E+03  0.17146109854E+03 0.  0.
         24    2    5    5    0    0 -0.69967577376E+02  0.35397530608E+02  0.20529668775E+02  0.11308512470E+03  0.78856395246E+02 0.  0.
          5    1    5    5  501    0  0.65231452321E+02  0.32779819510E+02  0.20970267457E+02  0.76101912304E+02  0.47000000000E+01 0. -1.
        -11    1    6    6    0    0 -0.21507702387E+02  0.28079989846E+02  0.45861118899E+02  0.57916399390E+02  0.00000000000E+00 0.  1.
         12    1    6    6    0    0 -0.48459874989E+02  0.73175407612E+01 -0.25331450124E+02  0.55168725308E+02  0.00000000000E+00 0. -1.
         -5    1    3    3    0  503 -0.24225996109E+02  0.15877295249E+02 -0.12394548747E+03  0.12737174434E+03  0.47000000000E+01 0.  1.
         13    1    4    4    0    0  0.44154643843E+02 -0.13100382487E+02 -0.20128600238E+02  0.50263437425E+02  0.00000000000E+00 0. -1.
        -14    1    4    4    0    0 -0.15192522680E+02 -0.70954262880E+02 -0.38361332406E+02  0.82078693887E+02  0.00000000000E+00 0.  1.
</event>
<event>
12    1  0.1594973E-001  0.2341210E+03  0.7818608E-02  0.1123957E+00
         21   -1    0    0  501  502  0.00000000000E+00  0.00000000000E+00  0.78122366507E+02  0.78122366507E+02  0.00000000000E+00 0.  1.
         21   -1    0    0  502  503 -0.00000000000E+00 -0.00000000000E+00 -0.70173026079E+03  0.70173026079E+03  0.00000000000E+00 0. -1.
         -6    2    1    2    0  503 -0.49845974197E+02  0.15040588387E+03 -0.33928044489E+03  0.41221823809E+03  0.17235458939E+03 0.  0.
        -24    2    3    3    0    0 -0.16257755354E+02  0.63523662866E+02 -0.28731473964E+03  0.30545113973E+03  0.80318545753E+02 0.  0.
          6    2    1    2  501    0  0.49845974197E+02 -0.15040588387E+03 -0.28432744939E+03  0.36763438921E+03  0.17089878468E+03 0.  0.
         24    2    5    5    0    0  0.51754283981E+02 -0.99494904027E+02 -0.85171514675E+02  0.16201156497E+03  0.80098804202E+02 0.  0.
          5    1    5    5  501    0 -0.19083097841E+01 -0.50910979839E+02 -0.19915593472E+03  0.20562282424E+03  0.47000000000E+01 0. -1.
        -13    1    6    6    0    0  0.22367239528E+02 -0.79866253357E+02 -0.94227845140E+02  0.12553007062E+03  0.00000000000E+00 0.  1.
         14    1    6    6    0    0  0.29387044454E+02 -0.19628650670E+02  0.90563304646E+01  0.36481494355E+02  0.00000000000E+00 0. -1.
         -5    1    3    3    0  503 -0.33588218843E+02  0.86882221000E+02 -0.51965705254E+02  0.10676709837E+03  0.47000000000E+01 0.  1.
         11    1    4    4    0    0 -0.33486164808E+02  0.69480123267E+02 -0.16935486027E+03  0.18609105153E+03  0.00000000000E+00 0. -1.
        -12    1    4    4    0    0  0.17228409454E+02 -0.59564604016E+01 -0.11795987937E+03  0.11936008819E+03  0.00000000000E+00 0.  1.
</event>
<event>
12    1  0.1594973E-001  0.1784608E+03  0.7818608E-02  0.1169858E+00
         21   -1    0    0  503  502  0.00000000000E+00  0.00000000000E+00  0.50838304515E+03  0.50838304515E+03  0.00000000000E+00 0.  1.
         21   -1    0    0  501  503 -0.00000000000E+00 -0.00000000000E+00 -0.67339158106E+02  0.67339158106E+02  0.00000000000E+00 0. -1.
          6    2    1    2  501    0  0.12387716951E+02 -0.45895185378E+02  0.30137384167E+03  0.34910361231E+03  0.16966825310E+03 0.  0.
         24    2    3    3    0    0 -0.95052850865E+01 -0.73846365611E+02  0.29265921433E+03  0.31224432929E+03  0.79394390756E+02 0.  0.
         -6    2    1    2    0  502 -0.12387716951E+02  0.45895185378E+02  0.13967004537E+03  0.22661859095E+03  0.17201290828E+03 0.  0.
        -24    2    5    5    0    0  0.58699135492E+01  0.45961549059E+02  0.14462856593E+02  0.99999968313E+02  0.87429397600E+02 0.  0.
          5    1    3    3  501    0  0.21893002037E+02  0.27951180233E+02  0.87146273355E+01  0.36859283013E+02  0.47000000000E+01 0. -1.
        -13    1    4    4    0    0 -0.42756176860E+02 -0.51352766967E+02  0.15358234427E+03  0.16748950357E+03  0.00000000000E+00 0.  1.
         14    1    4    4    0    0  0.33250891773E+02 -0.22493598645E+02  0.13907687006E+03  0.14475482572E+03  0.00000000000E+00 0. -1.
         -5    1    5    5    0  502 -0.18257630500E+02 -0.66363681206E-01  0.12520718878E+03  0.12661862264E+03  0.47000000000E+01 0.  1.
         11    1    6    6    0    0  0.37175604855E+02  0.50128404033E+02  0.24222078421E+02  0.66944690381E+02  0.00000000000E+00 0. -1.
        -12    1    6    6    0    0 -0.31305691305E+02 -0.41668549734E+01 -0.97592218272E+01  0.33055277932E+02  0.00000000000E+00 0.  1.
</event>
<event>
12    1  0.1594973E-001  0.2358502E+03  0.7818608E-02  0.1122845E+00
         21   -1    0    0  503  502  0.00000000000E+00  0.00000000000E+00  0.16419255890E+03  0.16419255890E+03  0.00000000000E+00 0. -1.
         21   -1    0    0  501  503 -0.00000000000E+00 -0.00000000000E+00 -0.38303981946E+03  0.38303981946E+03  0.00000000000E+00 0. -1.
          6    2    1    2  501    0 -0.15722047179E+03 -0.31960282296E+02 -0.20435886498E+03  0.31093755497E+03  0.17082119600E+03 0.  0.
         24    2    3    3    0    0 -0.13553898742E+03  0.35440263797E+02 -0.15570346586E+03  0.22490059639E+03  0.81913854561E+02 0.  0.
         -6    2    1    2    0  502  0.15722047179E+03  0.31960282296E+02 -0.14488395593E+02  0.23629482339E+03  0.17287450234E+03 0.  0.
        -24    2    5    5    0    0  0.11492075506E+03  0.84449061314E+02  0.11708011749E+02  0.16381945022E+03  0.79757826148E+02 0.  0.
          5    1    3    3  501    0 -0.21681484371E+02 -0.67400546094E+02 -0.48655399117E+02  0.86036958579E+02  0.47000000000E+01 0. -1.
        -11    1    4    4    0    0  0.16571987151E+01  0.21682624175E+02 -0.37200824597E+02  0.43090414821E+02  0.00000000000E+00 0.  1.
         12    1    4    4    0    0 -0.13719618613E+03  0.13757639622E+02 -0.11850264126E+03  0.18181018157E+03  0.00000000000E+00 0. -1.
         -5    1    5    5    0  502  0.42299716729E+02 -0.52488779018E+02 -0.26196407342E+02  0.72475373167E+02  0.47000000000E+01 0.  1.
         11    1    6    6    0    0  0.39701095097E+02 -0.10699280568E+02  0.10856772639E+02  0.42526710062E+02  0.00000000000E+00 0. -1.
        -12    1    6    6    0    0  0.75219659962E+02  0.95148341882E+02  0.85123911026E+00  0.12129274016E+03  0.00000000000E+00 0.  1.
</event>
<event>
12    1  0.1594973E-001  0.2823631E+03  0.7818608E-02  0.1094557E+00
         21   -1    0    0  503  502  0.00000000000E+00  0.00000000000E+00  0.17988403218E+03  0.17988403218E+03  0.00000000000E+00 0. -1.
         21   -1    0    0  501  503 -0.00000000000E+00 -0.00000000000E+00 -0.44158103797E+03  0.44158103797E+03  0.00000000000E+00 0. -1.
          6    2    1    2  501    0 -0.10450752498E+03  0.19702727954E+03 -0.13559340094E+03  0.31222236435E+03  0.17133494320E+03 0.  0.
         24    2    3    3    0    0 -0.42773602542E+02  0.14333181542E+03 -0.15341579358E+03  0.22835337290E+03  0.78963705656E+02 0.  0.
         -6    2    1    2    0  502  0.10450752498E+03 -0.19702727954E+03 -0.12610360486E+03  0.30924270579E+03  0.17316858915E+03 0.  0.
        -24    2    5    5    0    0  0.48341182150E+01 -0.15439786774E+03 -0.79083104834E+02  0.19098420847E+03  0.79741834393E+02 0.  0.
          5    1    3    3  501    0 -0.61733922443E+02  0.53695464114E+02  0.17822392642E+02  0.83868991446E+02  0.47000000000E+01 0. -1.
        -13    1    4    4    0    0 -0.36974964513E+02  0.24927993986E+02 -0.71472840421E+02  0.84243218141E+02  0.00000000000E+00 0.  1.
         14    1    4    4    0    0 -0.57986380285E+01  0.11840382144E+03 -0.81942953157E+02  0.14411015476E+03  0.00000000000E+00 0. -1.
         -5    1    5    5    0  502  0.99673406769E+02 -0.42629411802E+02 -0.47020500022E+02  0.11825849733E+03  0.47000000000E+01 0.  1.
         13    1    6    6    0    0 -0.28187561093E+02 -0.23819805188E+02 -0.30244552508E+02  0.47714302635E+02  0.00000000000E+00 0. -1.
        -14    1    6    6    0    0  0.33021679308E+02 -0.13057806255E+03 -0.48838552326E+02  0.14326990583E+03  0.00000000000E+00 0.  1.
</event>
<event>
12    1  0.1594973E-001  0.3506787E+03  0.7818608E-02  0.1062566E+00
         21   -1    0    0  503  502  0.00000000000E+00  0.00000000000E+00  0.17810993554E+03  0.17810993554E+03  0.00000000000E+00 0. -1.
         21   -1    0    0  501  503 -0.00000000000E+00 -0.00000000000E+00 -0.76286903572E+03  0.76286903572E+03  0.00000000000E+00 0.  1.
          6    2    1    2  501    0 -0.36938592351E+02 -0.30425654592E+03 -0.44250600689E+03  0.56461237722E+03  0.17040852396E+03 0.  0.
         24    2    3    3    0    0 -0.35117887070E+02 -0.12661899153E+03 -0.11216809516E+03  0.18950753638E+03  0.77883180241E+02 0.  0.
         -6    2    1    2    0  502  0.36938592351E+02  0.30425654592E+03 -0.14225309329E+03  0.37636659404E+03  0.16576901163E+03 0.  0.
        -24    2    5    5    0    0  0.10374297515E+02  0.13930546551E+03 -0.13176355678E+03  0.20889527988E+03  0.82231163752E+02 0.  0.
          5    1    3    3  501    0 -0.18207052812E+01 -0.17763755439E+03 -0.33033791173E+03  0.37510484084E+03  0.47000000000E+01 0. -1.
        -11    1    4    4    0    0 -0.10188084576E+01  0.93973783321E+01 -0.18796956388E+02  0.21039825561E+02  0.00000000000E+00 0.  1.
         12    1    4    4    0    0 -0.34099078612E+02 -0.13601636987E+03 -0.93371138770E+02  0.16846771082E+03  0.00000000000E+00 0. -1.
         -5    1    5    5    0  502  0.26564294836E+02  0.16495108042E+03 -0.10489536513E+02  0.16747131416E+03  0.47000000000E+01 0.  1.
         13    1    6    6    0    0 -0.82186122208E-02  0.27223520284E+02  0.89890087907E+01  0.28669189093E+02  0.00000000000E+00 0. -1.
        -14    1    6    6    0    0  0.10382516127E+02  0.11208194522E+03 -0.14075256557E+03  0.18022609078E+03  0.00000000000E+00 0.  1.
</event>
<event>
12    1  0.1594973E-001  0.2259478E+03  0.7818608E-02  0.1129801E+00
         21   -1    0    0  501  502  0.00000000000E+00  0.00000000000E+00  0.13740907468E+03  0.13740907468E+03  0.00000000000E+00 0. -1.
         21   -1    0    0  502  503 -0.00000000000E+00 -0.00000000000E+00 -0.46764580041E+03  0.46764580041E+03  0.00000000000E+00 0. -1.
         -6    2    1    2    0  503  0.14336863970E+03 -0.31422411800E+02 -0.30448413215E+03  0.37916091958E+03  0.17178615019E+03 0.  0.
        -24    2    3    3    0    0  0.97445723545E+02 -0.80665600631E+02 -0.15516950696E+03  0.21529892530E+03  0.79205070443E+02 0.  0.
          6    2    1    2  501    0 -0.14336863970E+03  0.31422411800E+02 -0.25752593579E+02  0.22589395551E+03  0.16977322595E+03 0.  0.
         24    2    5    5    0    0 -0.66784737419E+02 -0.42785031358E+02 -0.36732132962E+02  0.11858841515E+03  0.80144884769E+02 0.  0.
          5    1    5    5  501    0 -0.76583902276E+02  0.74207443158E+02  0.10979539382E+02  0.10730554036E+03  0.47000000000E+01 0. -1.
        -11    1    6    6    0    0  0.12777133508E+02 -0.13766705605E+02 -0.27633630485E+02  0.33412495532E+02  0.00000000000E+00 0.  1.
         12    1    6    6    0    0 -0.79561870927E+02 -0.29018325754E+02 -0.90985024767E+01  0.85175919615E+02  0.00000000000E+00 0. -1.
         -5    1    3    3    0  503  0.45922916151E+02  0.49243188831E+02 -0.14931462519E+03  0.16386199428E+03  0.47000000000E+01 0.  1.
         13    1    4    4    0    0  0.56200088071E+02 -0.17050897818E+02 -0.11586749487E+03  0.12990172972E+03  0.00000000000E+00 0. -1.
        -14    1    4    4    0    0  0.41245635474E+02 -0.63614702813E+02 -0.39302012087E+02  0.85397195585E+02  0.00000000000E+00 0.  1.
</event>
<event>
12    1  0.1594973E-001  0.2622049E+03  0.7818608E-02  0.1106049E+00
         21   -1    0    0  503  502  0.00000000000E+00  0.00000000000E+00  0.51212238973E+03  0.51212238973E+03  0.00000000000E+00 0. -1.
         21   -1    0    0  501  503 -0.00000000000E+00 -0.00000000000E+00 -0.19863589641E+03  0.19863589641E+03  0.00000000000E+00 0.  1.
          6    2    1    2  501    0  0.19252321359E+03 -0.50097737558E+02 -0.47087725305E+02  0.26492742087E+03  0.16850612267E+03 0.  0.
         24    2    3    3    0    0  0.15644960533E+03 -0.92478051002E+02 -0.15297084609E+02  0.20066132549E+03  0.83679733644E+02 0.  0.
         -6    2    1    2    0  502 -0.19252321359E+03  0.50097737558E+02  0.36057421862E+03  0.44583086528E+03  0.17081107171E+03 0.  0.
        -24    2    5    5    0    0 -0.80647010588E+02 -0.98601682489E+01  0.25987919935E+03  0.28374196321E+03  0.79819422433E+02 0.  0.
          5    1    3    3  501    0  0.36073608255E+02  0.42380313445E+02 -0.31790640696E+02  0.64266095385E+02  0.47000000000E+01 0. -1.
        -11    1    4    4    0    0  0.12072707603E+03 -0.24563470932E+02 -0.57696084193E+01  0.12333563708E+03  0.00000000000E+00 0.  1.
         12    1    4    4    0    0  0.35722529300E+02 -0.67914580070E+02 -0.95274761896E+01  0.77325688411E+02  0.00000000000E+00 0. -1.
         -5    1    5    5    0  502 -0.11187620300E+03  0.59957905806E+02  0.10069501927E+03  0.16208890206E+03  0.47000000000E+01 0.  1.
         11    1    6    6    0    0  0.12848357498E+02  0.12285566712E+02  0.38012290934E+02  0.41963671216E+02  0.00000000000E+00 0. -1.
        -12    1    6    6    0    0 -0.93495368086E+02 -0.22145734961E+02  0.22186690842E+03  0.24177829200E+03  0.00000000000E+00 0.  1.
</event>
<event>
12    1  0.1594973E-001  0.1806673E+03  0.7818608E-02  0.1168016E+00
         21   -1    0    0  501  502  0.00000000000E+00  0.00000000000E+00  0.29427598523E+03  0.29427598523E+03  0.00000000000E+00 0.  1.
         21   -1    0    0  502  503 -0.00000000000E+00 -0.00000000000E+00 -0.16132199334E+04  0.16132199334E+04  0.00000000000E+00 0.  1.
         -6    2    1    2    0  503 -0.62715305434E+02 -0.24100496200E+01 -0.15800663624E+04  0.15899654640E+04  0.16565460904E+03 0.  0.
        -24    2    3    3    0    0 -0.26706463780E+02 -0.63486906304E+02 -0.90235576571E+03  0.90853992745E+03  0.80343321969E+02 0.  0.
          6    2    1    2  501    0  0.62715305434E+02  0.24100496200E+01  0.26112241416E+03  0.31753045462E+03  0.16941563258E+03 0.  0.
         24    2    5    5    0    0  0.66152980164E+02  0.53290294653E+02  0.12003839001E+03  0.16743911972E+03  0.80066044289E+02 0.  0.
          5    1    5    5  501    0 -0.34376747300E+01 -0.50880245033E+02  0.14108402415E+03  0.15009133490E+03  0.47000000000E+01 0. -1.
        -13    1    6    6    0    0  0.25188496825E+02 -0.15641610619E+02  0.10013577711E+02  0.31295240751E+02  0.00000000000E+00 0.  1.
         14    1    6    6    0    0  0.40964483339E+02  0.68931905272E+02  0.11002481230E+03  0.13614387897E+03  0.00000000000E+00 0. -1.
         -5    1    3    3    0  503 -0.36008841654E+02  0.61076856684E+02 -0.67771059666E+03  0.68142553660E+03  0.47000000000E+01 0.  1.
         13    1    4    4    0    0 -0.54594144268E+01  0.15511739502E+02 -0.32518779697E+03  0.32560332088E+03  0.00000000000E+00 0. -1.
        -14    1    4    4    0    0 -0.21247049353E+02 -0.78998645806E+02 -0.57716796874E+03  0.58293660657E+03  0.00000000000E+00 0.  1.
</event>
<event>
12    1  0.1594973E-001  0.2050241E+03  0.7818608E-02  0.1145661E+00
         21   -1    0    0  503  502  0.00000000000E+00  0.00000000000E+00  0.32372132779E+03  0.32372132779E+03  0.00000000000E+00 0. -1.
         21   -1    0    0  501  503 -0.00000000000E+00 -0.00000000000E+00 -0.23698096451E+03  0.23698096451E+03  0.00000000000E+00 0.  1.
          6    2    1    2  501    0  0.87940988992E+02 -0.68718437037E+02 -0.14535405427E+03  0.25132186809E+03  0.17198557832E+03 0.  0.
         24    2    3    3    0    0  0.96443193329E+02 -0.26565293395E+02 -0.33654116285E+02  0.13153814154E+03  0.78502731068E+02 0.  0.
         -6    2    1    2    0  502 -0.87940988992E+02  0.68718437037E+02  0.23209441755E+03  0.30938042422E+03  0.17144266417E+03 0.  0.
        -24    2    5    5    0    0 -0.12752615517E+03  0.59721481895E+02  0.19766648619E+03  0.25594538852E+03  0.81279926727E+02 0.  0.
          5    1    3    3  501    0 -0.85022043375E+01 -0.42153143643E+02 -0.11169993799E+03  0.11978372654E+03  0.47000000000E+01 0. -1.
        -13    1    4    4    0    0  0.45103911910E+02 -0.49021001727E+02 -0.35478714336E+02  0.75472913359E+02  0.00000000000E+00 0.  1.
         14    1    4    4    0    0  0.51339281419E+02  0.22455708333E+02  0.18245980509E+01  0.56065228185E+02  0.00000000000E+00 0. -1.
         -5    1    5    5    0  502  0.39585166175E+02  0.89969551424E+01  0.34427931358E+02  0.53435035702E+02  0.47000000000E+01 0.  1.
         11    1    6    6    0    0 -0.49474662545E+02  0.66151917548E+02  0.11969824761E+03  0.14543551461E+03  0.00000000000E+00 0. -1.
        -12    1    6    6    0    0 -0.78051492622E+02 -0.64304356531E+01  0.77968238577E+02  0.11050987390E+03  0.00000000000E+00 0.  1.
</event>
<event>
12    1  0.1594973E-001  0.2235696E+03  0.7818608E-02  0.1131274E+00
         21   -1    0    0  503  502  0.00000000000E+00  0.00000000000E+00  0.55487460838E+02  0.55487460838E+02  0.00000000000E+00 0.  1.
         21   -1    0    0  501  503 -0.00000000000E+00 -0.00000000000E+00 -0.93729719431E+03  0.93729719431E+03  0.00000000000E+00 0.  1.
          6    2    1    2  501    0  0.34718214996E+02  0.13905203567E+03 -0.34236202725E+03  0.40889500983E+03  0.17158831045E+03 0.  0.
         24    2    3    3    0    0  0.84852411490E+02  0.91619712291E+02 -0.27258338017E+03  0.31063813960E+03  0.81241930138E+02 0.  0.
         -6    2    1    2    0  502 -0.34718214996E+02 -0.13905203567E+03 -0.53944770622E+03  0.58388964532E+03  0.17141314735E+03 0.  0.
        -24    2    5    5    0    0 -0.33275634387E+02 -0.12445188516E+02 -0.30304322779E+03  0.31567230395E+03  0.80942294350E+02 0.  0.
          5    1    3    3  501    0 -0.50134196494E+02  0.47432323378E+02 -0.69778647076E+02  0.98256870227E+02  0.47000000000E+01 0. -1.
        -11    1    4    4    0    0  0.16754545557E+01  0.30826714987E+02 -0.13653887130E+03  0.13998555954E+03  0.00000000000E+00 0.  1.
         12    1    4    4    0    0  0.83176956935E+02  0.60792997304E+02 -0.13604450887E+03  0.17065258006E+03  0.00000000000E+00 0. -1.
         -5    1    5    5    0  502 -0.14425806098E+01 -0.12660684715E+03 -0.23640447844E+03  0.26821734137E+03  0.47000000000E+01 0.  1.
         13    1    6    6    0    0  0.23592096413E+02  0.73701127523E+01 -0.13307717620E+03  0.13535302140E+03  0.00000000000E+00 0. -1.
        -14    1    6    6    0    0 -0.56867730799E+02 -0.19815301269E+02 -0.16996605158E+03  0.18031928256E+03  0.00000000000E+00 0.  1.
</event>
<event>
12    1  0.1594973E-001  0.1962200E+03  0.7818608E-02  0.1153123E+00
         21   -1    0    0  501  502  0.00000000000E+00  0.00000000000E+00  0.37101191029E+03  0.37101191029E+03  0.00000000000E+00 0. -1.
         21   -1    0    0  502  503 -0.00000000000E+00 -0.00000000000E+00 -0.10847679591E+03  0.10847679591E+03  0.00000000000E+00 0. -1.
         -6    2    1    2    0  503 -0.86437316030E+02 -0.37510840374E+02  0.18337678444E+03  0.26856907903E+03  0.17211575288E+03 0.  0.
        -24    2    3    3    0    0 -0.35471930302E+02 -0.87849191021E+02  0.10035827930E+03  0.15881671101E+03  0.78582601586E+02 0.  0.
          6    2    1    2  501    0  0.86437316030E+02  0.37510840374E+02  0.79158329941E+02  0.21091962717E+03  0.17129674596E+03 0.  0.
         24    2    5    5    0    0  0.68922392635E+02  0.69904254514E+02  0.10875173224E+03  0.16344368294E+03  0.72456864559E+02 0.  0.
          5    1    5    5  501    0  0.17514923395E+02 -0.32393414140E+02 -0.29593402297E+02  0.47475944232E+02  0.47000000000E+01 0. -1.
        -13    1    6    6    0    0 -0.84981379084E+01 -0.83621521949E+01  0.10481384830E+02  0.15874613860E+02  0.00000000000E+00 0.  1.
         14    1    6    6    0    0  0.77420530544E+02  0.78266406709E+02  0.98270347408E+02  0.14756906908E+03  0.00000000000E+00 0. -1.
         -5    1    3    3    0  503 -0.50965385729E+02  0.50338350647E+02  0.83018505143E+02  0.10975236801E+03  0.47000000000E+01 0.  1.
         13    1    4    4    0    0  0.13368859436E+02 -0.17803197980E+02  0.60719781888E+02  0.64672808609E+02  0.00000000000E+00 0. -1.
        -14    1    4    4    0    0 -0.48840789738E+02 -0.70045993041E+02  0.39638497408E+02  0.94143902405E+02  0.00000000000E+00 0.  1.
</event>
<event>
12    1  0.1594973E-001  0.2035896E+03  0.7818608E-02  0.1146777E+00
         21   -1    0    0  503  502  0.00000000000E+00  0.00000000000E+00  0.22640922622E+02  0.22640922622E+02  0.00000000000E+00 0.  1.
         21   -1    0    0  501  503 -0.00000000000E+00 -0.00000000000E+00 -0.28722944532E+04  0.28722944532E+04  0.00000000000E+00 0. -1.
          6    2    1    2  501    0 -0.97113431638E+02 -0.48912949803E+02 -0.22967117910E+04  0.23057042839E+04  0.17194097429E+03 0.  0.
         24    2    3    3    0    0 -0.51858834796E+02  0.39845169542E+02 -0.13038742800E+04  0.13078694301E+04  0.78468667491E+02 0.  0.
         -6    2    1    2    0  502  0.97113431638E+02  0.48912949803E+02 -0.55294173961E+03  0.58923109194E+03  0.17211977531E+03 0.  0.
        -24    2    5    5    0    0  0.41572227211E+02  0.42292233924E+02 -0.15653573981E+03  0.18887067189E+03  0.87474623397E+02 0.  0.
          5    1    3    3  501    0 -0.45254596842E+02 -0.88758119345E+02 -0.99283751098E+03  0.99783485382E+03  0.47000000000E+01 0. -1.
        -11    1    4    4    0    0 -0.56227925213E+02  0.78522899072E+01 -0.47729649389E+03  0.48066119160E+03  0.00000000000E+00 0.  1.
         12    1    4    4    0    0  0.43690904174E+01  0.31992879635E+02 -0.82657778613E+03  0.82720823849E+03  0.00000000000E+00 0. -1.
         -5    1    5    5    0  502  0.55541204427E+02  0.66207158793E+01 -0.39640599980E+03  0.40036042005E+03  0.47000000000E+01 0.  1.
         11    1    6    6    0    0  0.62224497237E+02  0.90065101335E+01 -0.11915218083E+03  0.13472285432E+03  0.00000000000E+00 0. -1.
        -12    1    6    6    0    0 -0.20652270026E+02  0.33285723790E+02 -0.37383558982E+02  0.54147817570E+02  0.00000000000E+00 0.  1.
</event>
<event>
12    1  0.1594973E-001  0.1822892E+03  0.7818608E-02  0.1165608E+00
         21   -1    0    0  501  502  0.00000000000E+00  0.00000000000E+00  0.22859263286E+03  0.22859263286E+03  0.00000000000E+00 0.  1.
         21   -1    0    0  502  503 -0.00000000000E+00 -0.00000000000E+00 -0.16252977805E+03  0.16252977805E+03  0.00000000000E+00 0.  1.
         -6    2    1    2    0  503 -0.42206105774E+01  0.58129577934E+02 -0.30533626821E+02  0.18482875799E+03  0.17272089054E+03 0.  0.
        -24    2    3    3    0    0 -0.27088239909E+02  0.42132299008E+02  0.44959622128E+02  0.10420517558E+03  0.79551540740E+02 0.  0.
          6    2    1    2  501    0  0.42206105774E+01 -0.58129577934E+02  0.96596481632E+02  0.20629365292E+03  0.17271169499E+03 0.  0.
         24    2    5    5    0    0 -0.61180391635E+02 -0.31671387790E+02  0.80762932605E+02  0.13383595360E+03  0.81506405072E+02 0.  0.
          5    1    5    5  501    0  0.65401002213E+02 -0.26458190144E+02  0.15833549027E+02  0.72457699321E+02  0.47000000000E+01 0. -1.
        -13    1    6    6    0    0 -0.37841004075E+02  0.23941239962E+02  0.46124081719E+02  0.64284955276E+02  0.00000000000E+00 0.  1.
         14    1    6    6    0    0 -0.23339387560E+02 -0.55612627752E+02  0.34638850886E+02  0.69550998324E+02  0.00000000000E+00 0. -1.
         -5    1    3    3    0  503  0.22867629332E+02  0.15997278926E+02 -0.75493248949E+02  0.80623582413E+02  0.47000000000E+01 0.  1.
         11    1    4    4    0    0  0.21403123975E+01  0.44425823867E+02 -0.65294528575E+01  0.44954071207E+02  0.00000000000E+00 0. -1.
        -12    1    4    4    0    0 -0.29228552307E+02 -0.22935248591E+01  0.51489074986E+02  0.59251104370E+02  0.00000000000E+00 0.  1.
</event>
<event>
12    1  0.1594973E-001  0.1792571E+03  0.7818608E-02  0.1169043E+00
         21   -1    0    0  501  502  0.00000000000E+00  0.00000000000E+00  0.98516024976E+03  0.98516024976E+03  0.00000000000E+00 0.  1.
         21   -1    0    0  502  503 -0.00000000000E+00 -0.00000000000E+00 -0.72395619456E+02  0.72395619456E+02  0.00000000000E+00 0. -1.
         -6    2    1    2    0  503 -0.20019688957E+02  0.44474137911E+02  0.63743998929E+02  0.19025349062E+03  0.17249451123E+03 0.  0.
        -24    2    3    3    0    0  0.37118181705E+02 -0.95369423760E+01  0.66150170678E+02  0.11145112568E+03  0.81097445410E+02 0.  0.
          6    2    1    2  501    0  0.20019688957E+02 -0.44474137911E+02  0.84902063138E+03  0.86730237860E+03  0.17028988969E+03 0.  0.
         24    2    5    5    0    0  0.58133169107E+02  0.23306964695E+02  0.37915420035E+03  0.39102150743E+03  0.72230406842E+02 0.  0.
          5    1    5    5  501    0 -0.38113480151E+02 -0.67781102606E+02  0.46986643103E+03  0.47628087117E+03  0.47000000000E+01 0. -1.
        -11    1    6    6    0    0  0.20737854861E+02 -0.49699321898E+01  0.28542918788E+03  0.28622470219E+03  0.00000000000E+00 0.  1.
         12    1    6    6    0    0  0.37395314246E+02  0.28276896885E+02  0.93725012472E+02  0.10479680524E+03  0.00000000000E+00 0. -1.
         -5    1    3    3    0  503 -0.57137870661E+02  0.54011080287E+02 -0.24061717485E+01  0.78802364939E+02  0.47000000000E+01 0.  1.
         11    1    4    4    0    0  0.95068243675E+01  0.35089287801E+02  0.34781427894E+02  0.50312876625E+02  0.00000000000E+00 0. -1.
        -12    1    4    4    0    0  0.27611357337E+02 -0.44626230177E+02  0.31368742783E+02  0.61138249056E+02  0.00000000000E+00 0.  1.
</event>
<event>
12    1  0.1594973E-001  0.2123278E+03  0.7818608E-02  0.1139745E+00
         21   -1    0    0  501  502  0.00000000000E+00  0.00000000000E+00  0.12172815962E+03  0.12172815962E+03  0.00000000000E+00 0.  1.
         21   -1    0    0  502  503 -0.00000000000E+00 -0.00000000000E+00 -0.70719991430E+03  0.70719991430E+03  0.00000000000E+00 0.  1.
         -6    2    1    2    0  503  0.84321682240E+02  0.89591210561E+02 -0.57879549057E+03  0.61649535235E+03  0.17299008198E+03 0.  0.
        -24    2    3    3    0    0 -0.15561485093E+02  0.21083626448E+02 -0.29355283263E+03  0.30656729602E+03  0.84401198552E+02 0.  0.
          6    2    1    2  501    0 -0.84321682240E+02 -0.89591210561E+02 -0.66762641161E+01  0.21243272156E+03  0.17305015915E+03 0.  0.
         24    2    5    5    0    0 -0.47117709822E+02 -0.26073009282E+02  0.61368799009E+02  0.11207875765E+03  0.76783058240E+02 0.  0.
          5    1    5    5  501    0 -0.37203972418E+02 -0.63518201280E+02 -0.68045063125E+02  0.10035396391E+03  0.47000000000E+01 0. -1.
        -13    1    6    6    0    0  0.49128352348E+01 -0.38280085779E+02  0.36546884603E+02  0.53152381805E+02  0.00000000000E+00 0.  1.
         14    1    6    6    0    0 -0.52030545057E+02  0.12207076498E+02  0.24821914405E+02  0.58926375845E+02  0.00000000000E+00 0. -1.
         -5    1    3    3    0  503  0.99883167333E+02  0.68507584114E+02 -0.28524265793E+03  0.30992805633E+03  0.47000000000E+01 0.  1.
         11    1    4    4    0    0  0.17607375791E+02 -0.18317149212E+02 -0.18119461672E+03  0.18296728333E+03  0.00000000000E+00 0. -1.
        -12    1    4    4    0    0 -0.33168860884E+02  0.39400775660E+02 -0.11235821591E+03  0.12360001269E+03  0.00000000000E+00 0.  1.
</event>
<event>
12    1  0.1594973E-001  0.2406099E+03  0.7818608E-02  0.1121569E+00
         21   -1    0    0  501  502  0.00000000000E+00  0.00000000000E+00  0.17395755061E+03  0.17395755061E+03  0.00000000000E+00 0. -1.
         21   -1    0    0  502  503 -0.00000000000E+00 -0.00000000000E+00 -0.35974432269E+03  0.35974432269E+03  0.00000000000E+00 0. -1.
         -6    2    1    2    0  503 -0.14326505080E+03  0.44475055747E+02 -0.18436096490E+03  0.29308779109E+03  0.17148930738E+03 0.  0.
        -24    2    3    3    0    0 -0.23128149944E+02  0.54466887484E+02 -0.41034906059E+02  0.10574542858E+03  0.77438226988E+02 0.  0.
          6    2    1    2  501    0  0.14326505080E+03 -0.44475055747E+02 -0.14258071812E+01  0.24061408220E+03  0.18812282760E+03 0.  0.
         24    2    5    5    0    0  0.79683702827E+02  0.88657098342E+01  0.68586292137E+02  0.13193285506E+03  0.79209251147E+02 0.  0.
          5    1    5    5  501    0  0.63581347973E+02 -0.53340765581E+02 -0.70012099319E+02  0.10868122715E+03  0.47000000000E+01 0. -1.
        -13    1    6    6    0    0  0.62384929011E+02  0.35204401191E+02  0.20619301365E+02  0.74541161915E+02  0.00000000000E+00 0.  1.
         14    1    6    6    0    0  0.17298773815E+02 -0.26338691357E+02  0.47966990772E+02  0.57391693142E+02  0.00000000000E+00 0. -1.
         -5    1    3    3    0  503 -0.12013690086E+03 -0.99918317375E+01 -0.14332605884E+03  0.18734236251E+03  0.47000000000E+01 0.  1.
         11    1    4    4    0    0 -0.20379257948E+02 -0.97748545545E+01  0.89419916579E+01  0.24306812849E+02  0.00000000000E+00 0. -1.
        -12    1    4    4    0    0 -0.27488919956E+01  0.64241742039E+02 -0.49976897717E+02  0.81438615735E+02  0.00000000000E+00 0.  1.
</event>
<event>
12    1  0.1594973E-001  0.1874155E+03  0.7818608E-02  0.1161151E+00
         21   -1    0    0  503  502  0.00000000000E+00  0.00000000000E+00  0.19646474651E+04  0.19646474651E+04  0.00000000000E+00 0.  1.
         21   -1    0    0  501  503 -0.00000000000E+00 -0.00000000000E+00 -0.17832771673E+02  0.17832771673E+02  0.00000000000E+00 0.  1.
          6    2    1    2  501    0  0.30418778809E+02  0.61703650466E+02  0.10416276056E+04  0.10580949109E+04  0.17275453490E+03 0.  0.
         24    2    3    3    0    0  0.21556277252E+02  0.18932354149E+02  0.97196287881E+03  0.97573477572E+03  0.80767615025E+02 0.  0.
         -6    2    1    2    0  502 -0.30418778809E+02 -0.61703650466E+02  0.90518708783E+03  0.92438532579E+03  0.17433279659E+03 0.  0.
        -24    2    5    5    0    0  0.19052131994E+01  0.27683694043E+01  0.73575189664E+03  0.74017931118E+03  0.80766735565E+02 0.  0.
          5    1    3    3  501    0  0.88625015568E+01  0.42771296316E+02  0.69664726747E+02  0.82360135230E+02  0.47000000000E+01 0. -1.
        -13    1    4    4    0    0 -0.28467046104E+02  0.19210803289E+02  0.31383116082E+03  0.31570464865E+03  0.00000000000E+00 0.  1.
         14    1    4    4    0    0  0.50023323355E+02 -0.27844913921E+00  0.65813171799E+03  0.66003012707E+03  0.00000000000E+00 0. -1.
         -5    1    5    5    0  502 -0.32323992008E+02 -0.64472019870E+02  0.16943519119E+03  0.18420601461E+03  0.47000000000E+01 0.  1.
         11    1    6    6    0    0 -0.97553451570E+01  0.39596845027E+01  0.72213795722E+03  0.72221470154E+03  0.00000000000E+00 0. -1.
        -12    1    6    6    0    0  0.11660558356E+02 -0.11913150984E+01  0.13613939424E+02  0.17964609639E+02  0.00000000000E+00 0.  1.
</event>
<event>
12    1  0.1594973E-001  0.1808547E+03  0.7818608E-02  0.1167394E+00
         21   -1    0    0  503  502  0.00000000000E+00  0.00000000000E+00  0.10966336919E+03  0.10966336919E+03  0.00000000000E+00 0.  1.
         21   -1    0    0  501  503 -0.00000000000E+00 -0.00000000000E+00 -0.49050537519E+03  0.49050537519E+03  0.00000000000E+00 0.  1.
          6    2    1    2  501    0 -0.44314175408E+02  0.31887287467E+02 -0.38020844667E+03  0.42103072861E+03  0.17241770868E+03 0.  0.
         24    2    3    3    0    0 -0.85742707985E+02 -0.15269824146E+02 -0.25536920795E+03  0.28121999221E+03  0.79286014829E+02 0.  0.
         -6    2    1    2    0  502  0.44314175408E+02 -0.31887287467E+02 -0.63355932738E+00  0.17913801577E+03  0.17061501122E+03 0.  0.
        -24    2    5    5    0    0  0.12778165438E+02 -0.49121983947E+02 -0.55327026393E+02  0.11352536434E+03  0.85150911217E+02 0.  0.
          5    1    3    3  501    0  0.41428532577E+02  0.47157111613E+02 -0.12483923872E+03  0.13981073640E+03  0.47000000000E+01 0. -1.
        -13    1    4    4    0    0 -0.16602453069E+02 -0.12820100296E+01 -0.16848233826E+03  0.16930322887E+03  0.00000000000E+00 0.  1.
         14    1    4    4    0    0 -0.69140254915E+02 -0.13987814116E+02 -0.86886869688E+02  0.11191676335E+03  0.00000000000E+00 0. -1.
         -5    1    5    5    0  502  0.31536009970E+02  0.17234696480E+02  0.54693467066E+02  0.65612651427E+02  0.47000000000E+01 0.  1.
         11    1    6    6    0    0  0.35075958771E+02 -0.62904509856E+02 -0.47078552412E+02  0.86044699669E+02  0.00000000000E+00 0. -1.
        -12    1    6    6    0    0 -0.22297793334E+02  0.13782525909E+02 -0.82484739817E+01  0.27480664675E+02  0.00000000000E+00 0.  1.
</event>
<event>
12    1  0.1594973E-001  0.1734018E+03  0.7818608E-02  0.1174536E+00
         21   -1    0    0  501  502  0.00000000000E+00  0.00000000000E+00  0.48561217797E+02  0.48561217797E+02  0.00000000000E+00 0. -1.
         21   -1    0    0  502  503 -0.00000000000E+00 -0.00000000000E+00 -0.96247680468E+03  0.96247680468E+03  0.00000000000E+00 0. -1.
         -6    2    1    2    0  503  0.31499749775E+01  0.19269850807E+02 -0.76066844502E+03  0.78018245285E+03  0.17229894659E+03 0.  0.
        -24    2    3    3    0    0  0.50407994540E+02 -0.10972919199E+02 -0.27099594811E+03  0.28728369065E+03  0.80198155541E+02 0.  0.
          6    2    1    2  501    0 -0.31499749775E+01 -0.19269850807E+02 -0.15324714187E+03  0.23085556963E+03  0.17154695580E+03 0.  0.
         24    2    5    5    0    0 -0.32874843954E+02  0.47585806787E+02 -0.85348405275E+02  0.13092771956E+03  0.80700390916E+02 0.  0.
          5    1    5    5  501    0  0.29724868976E+02 -0.66855657594E+02 -0.67898736591E+02  0.99927850065E+02  0.47000000000E+01 0. -1.
        -13    1    6    6    0    0  0.53353808453E+01  0.34489163241E+02 -0.83492307159E+02  0.90492729125E+02  0.00000000000E+00 0.  1.
         14    1    6    6    0    0 -0.38210224799E+02  0.13096643546E+02 -0.18560981162E+01  0.40434990436E+02  0.00000000000E+00 0. -1.
         -5    1    3    3    0  503 -0.47258019563E+02  0.30242770007E+02 -0.48967249691E+03  0.49289876220E+03  0.47000000000E+01 0.  1.
         13    1    4    4    0    0  0.57329415991E+01  0.10305207228E+02 -0.20218050588E+03  0.20252412418E+03  0.00000000000E+00 0. -1.
        -14    1    4    4    0    0  0.44675052941E+02 -0.21278126428E+02 -0.68815442231E+02  0.84759566475E+02  0.00000000000E+00 0.  1.
</event>
<event>
12    1  0.1594973E-001  0.2417489E+03  0.7818608E-02  0.1119452E+00
         21   -1    0    0  503  502  0.00000000000E+00  0.00000000000E+00  0.30143404600E+03  0.30143404600E+03  0.00000000000E+00 0.  1.
         21   -1    0    0  501  503 -0.00000000000E+00 -0.00000000000E+00 -0.20954229866E+03  0.20954229866E+03  0.00000000000E+00 0.  1.
          6    2    1    2  501    0  0.57618986368E+02  0.15466620138E+03 -0.32571376239E+02  0.23906903298E+03  0.16985737116E+03 0.  0.
         24    2    3    3    0    0  0.83738283310E+01  0.15265976521E+03 -0.59939971011E+02  0.18249835722E+03  0.79609831976E+02 0.  0.
         -6    2    1    2    0  502 -0.57618986368E+02 -0.15466620138E+03  0.12446312358E+03  0.27190731168E+03  0.17663786562E+03 0.  0.
        -24    2    5    5    0    0 -0.46259916643E+02 -0.95937876584E+02  0.59940959021E+00  0.13427608614E+03  0.81765836185E+02 0.  0.
          5    1    3    3  501    0  0.49245158037E+02  0.20064361720E+01  0.27368594773E+02  0.56570675761E+02  0.47000000000E+01 0. -1.
        -11    1    4    4    0    0  0.36633091809E+02  0.53577087682E+02 -0.43571059502E+02  0.78172405400E+02  0.00000000000E+00 0.  1.
         12    1    4    4    0    0 -0.28259263478E+02  0.99082677529E+02 -0.16368911509E+02  0.10432595182E+03  0.00000000000E+00 0. -1.
         -5    1    5    5    0  502 -0.11359069726E+02 -0.58728324798E+02  0.12386371399E+03  0.13763122553E+03  0.47000000000E+01 0.  1.
         11    1    6    6    0    0 -0.18017674107E+02 -0.54021282224E+02 -0.39879003763E+02  0.69521726492E+02  0.00000000000E+00 0. -1.
        -12    1    6    6    0    0 -0.28242242536E+02 -0.41916594361E+02  0.40478413354E+02  0.64754359651E+02  0.00000000000E+00 0.  1.
</event>
<event>
12    1  0.1594973E-001  0.2099751E+03  0.7818608E-02  0.1141771E+00
         21   -1    0    0  503  502  0.00000000000E+00  0.00000000000E+00  0.54855334970E+03  0.54855334970E+03  0.00000000000E+00 0. -1.
         21   -1    0    0  501  503 -0.00000000000E+00 -0.00000000000E+00 -0.17300150269E+03  0.17300150269E+03  0.00000000000E+00 0. -1.
          6    2    1    2  501    0 -0.49123944674E+02  0.10788061940E+03 -0.76527047610E+02  0.22348584598E+03  0.17331515904E+03 0.  0.
         24    2    3    3    0    0 -0.86949748352E+02  0.86582789301E+02 -0.13915261027E+02  0.14715292510E+03  0.80021939077E+02 0.  0.
         -6    2    1    2    0  502  0.49123944674E+02 -0.10788061940E+03  0.45207889462E+03  0.49806900641E+03  0.17218019107E+03 0.  0.
        -24    2    5    5    0    0  0.43780818840E+02 -0.10404592781E+03  0.46374973113E+03  0.48387209554E+03  0.79536636350E+02 0.  0.
          5    1    3    3  501    0  0.37825803678E+02  0.21297830103E+02 -0.62611786584E+02  0.76332920881E+02  0.47000000000E+01 0. -1.
        -11    1    4    4    0    0 -0.52620635594E+02  0.25937018915E+02  0.28864257124E+02  0.65381997368E+02  0.00000000000E+00 0.  1.
         12    1    4    4    0    0 -0.34329112758E+02  0.60645770386E+02 -0.42779518151E+02  0.81770927729E+02  0.00000000000E+00 0. -1.
         -5    1    5    5    0  502  0.53431258342E+01 -0.38346915923E+01 -0.11670836513E+02  0.14196910868E+02  0.47000000000E+01 0.  1.
         13    1    6    6    0    0  0.58259713589E+02 -0.49021404762E+02  0.32720672777E+03  0.33594870896E+03  0.00000000000E+00 0. -1.
        -14    1    6    6    0    0 -0.14478894750E+02 -0.55024523050E+02  0.13654300337E+03  0.14792338658E+03  0.00000000000E+00 0.  1.
</event>
<event>
12    1  0.1594973E-001  0.2588606E+03  0.7818608E-02  0.1108064E+00
         21   -1    0    0  503  502  0.00000000000E+00  0.00000000000E+00  0.84395751798E+03  0.84395751798E+03  0.00000000000E+00 0. -1.
         21   -1    0    0  501  503 -0.00000000000E+00 -0.00000000000E+00 -0.10186947192E+03  0.10186947192E+03  0.00000000000E+00 0.  1.
          6    2    1    2  501    0  0.15232881922E+03 -0.11848623859E+03  0.14574113566E+03  0.29572051977E+03  0.17019720706E+03 0.  0.
         24    2    3    3    0    0  0.11445291822E+03 -0.10384550682E+03  0.34619610944E+02  0.17731858500E+03  0.79749629149E+02 0.  0.
         -6    2    1    2    0  502 -0.15232881922E+03  0.11848623859E+03  0.59634691040E+03  0.65010647013E+03  0.17252746754E+03 0.  0.
        -24    2    5    5    0    0 -0.10486576332E+03  0.10186223411E+03  0.56912970217E+03  0.59273081654E+03  0.77771845357E+02 0.  0.
          5    1    3    3  501    0  0.37875901005E+02 -0.14640731778E+02  0.11112152471E+03  0.11840193477E+03  0.47000000000E+01 0. -1.
        -13    1    4    4    0    0  0.99704890187E+02 -0.82229111954E+02  0.58527194872E+02  0.14187362165E+03  0.00000000000E+00 0.  1.
         14    1    4    4    0    0  0.14748028032E+02 -0.21616394863E+02 -0.23907583928E+02  0.35444963352E+02  0.00000000000E+00 0. -1.
         -5    1    5    5    0  502 -0.47463055905E+02  0.16624004487E+02  0.27217208236E+02  0.57375653592E+02  0.47000000000E+01 0.  1.
         13    1    6    6    0    0 -0.26743973436E+02  0.35875839391E+02  0.68898737360E+02  0.82154439789E+02  0.00000000000E+00 0. -1.
        -14    1    6    6    0    0 -0.78121789884E+02  0.65986394717E+02  0.50023096480E+03  0.51057637675E+03  0.00000000000E+00 0.  1.
</event>
<event>
12    1  0.1594973E-001  0.3828231E+03  0.7818608E-02  0.1049944E+00
         21   -1    0    0  503  502  0.00000000000E+00  0.00000000000E+00  0.99184539231E+03  0.99184539231E+03  0.00000000000E+00 0.  1.
         21   -1    0    0  501  503 -0.00000000000E+00 -0.00000000000E+00 -0.14885527341E+03  0.14885527341E+03  0.00000000000E+00 0. -1.
          6    2    1    2  501    0  0.31756946105E+03  0.12789363342E+03  0.47457071183E+03  0.60939436726E+03  0.17010876009E+03 0.  0.
         24    2    3    3    0    0  0.11700327906E+03  0.10693034738E+03  0.18717340008E+03  0.25827393561E+03  0.80917721289E+02 0.  0.
         -6    2    1    2    0  502 -0.31756946105E+03 -0.12789363342E+03  0.36841940707E+03  0.53130629846E+03  0.17130784924E+03 0.  0.
        -24    2    5    5    0    0 -0.21930667534E+03 -0.12137208841E+03  0.17920223145E+03  0.31794431694E+03  0.78412672615E+02 0.  0.
          5    1    3    3  501    0  0.20056618199E+03  0.20963286048E+02  0.28739731175E+03  0.35112043165E+03  0.47000000000E+01 0. -1.
        -13    1    4    4    0    0  0.51066561039E+02  0.87397539182E+02  0.72310174328E+02  0.12439809011E+03  0.00000000000E+00 0.  1.
         14    1    4    4    0    0  0.65936718024E+02  0.19532808195E+02  0.11486322575E+03  0.13387584550E+03  0.00000000000E+00 0. -1.
         -5    1    5    5    0  502 -0.98262785712E+02 -0.65215450097E+01  0.18921717562E+03  0.21336198152E+03  0.47000000000E+01 0.  1.
         13    1    6    6    0    0 -0.55295789576E+02  0.37842680306E+01  0.27558640488E+02  0.61898495094E+02  0.00000000000E+00 0. -1.
        -14    1    6    6    0    0 -0.16401088576E+03 -0.12515635645E+03  0.15164359096E+03  0.25604582185E+03  0.00000000000E+00 0.  1.
</event>
<event>
12    1  0.1594973E-001  0.1742952E+03  0.7818608E-02  0.1173635E+00
         21   -1    0    0  501  502  0.00000000000E+00  0.00000000000E+00  0.93122739492E+03  0.93122739492E+03  0.00000000000E+00 0.  1.
         21   -1    0    0  502  503 -0.00000000000E+00 -0.00000000000E+00 -0.10226082898E+03  0.10226082898E+03  0.00000000000E+00 0.  1.
         -6    2    1    2    0  503 -0.15082089695E+02 -0.21860210924E+02 -0.12092703821E+02  0.17471423069E+03  0.17225995085E+03 0.  0.
        -24    2    3    3    0    0 -0.36171856508E+02 -0.30124266871E+02 -0.67474481151E+02  0.11469503255E+03  0.79914142848E+02 0.  0.
          6    2    1    2  501    0  0.15082089695E+02  0.21860210924E+02  0.84105926976E+03  0.85877399321E+03  0.17148392904E+03 0.  0.
         24    2    5    5    0    0 -0.53448528238E+02  0.25943953112E+02  0.55584379460E+03  0.56537481153E+03  0.84596215273E+02 0.  0.
          5    1    5    5  501    0  0.68530617933E+02 -0.40837421878E+01  0.28521547516E+03  0.29339918168E+03  0.47000000000E+01 0. -1.
        -11    1    6    6    0    0 -0.15373043420E+02  0.39629499309E+02  0.45093825442E+03  0.45293723294E+03  0.00000000000E+00 0.  1.
         12    1    6    6    0    0 -0.38075484819E+02 -0.13685546197E+02  0.10490554018E+03  0.11243757859E+03  0.00000000000E+00 0. -1.
         -5    1    3    3    0  503  0.21089766813E+02  0.82640559471E+01  0.55381777331E+02  0.60019198139E+02  0.47000000000E+01 0.  1.
         11    1    4    4    0    0 -0.56900219384E+02 -0.28970651689E+02 -0.27236884410E+02  0.69417443756E+02  0.00000000000E+00 0. -1.
        -12    1    4    4    0    0  0.20728362875E+02 -0.11536151817E+01 -0.40237596741E+02  0.45277588794E+02  0.00000000000E+00 0.  1.
</event>
<event>
12    1  0.1594973E-001  0.1801911E+03  0.7818608E-02  0.1168046E+00
         21   -1    0    0  501  502  0.00000000000E+00  0.00000000000E+00  0.24570623262E+03  0.24570623262E+03  0.00000000000E+00 0.  1.
         21   -1    0    0  502  503 -0.00000000000E+00 -0.00000000000E+00 -0.19608568710E+03  0.19608568710E+03  0.00000000000E+00 0.  1.
         -6    2    1    2    0  503  0.22767189910E+02  0.40301316004E+02 -0.10251240043E+03  0.20731045364E+03  0.17414445423E+03 0.  0.
        -24    2    3    3    0    0 -0.41658268612E+02  0.54851468009E+02 -0.92065805726E+02  0.14027637298E+03  0.80357036691E+02 0.  0.
          6    2    1    2  501    0 -0.22767189910E+02 -0.40301316004E+02  0.15213294595E+03  0.23448146608E+03  0.17232116435E+03 0.  0.
         24    2    5    5    0    0 -0.38252272903E+02 -0.88044366877E+02  0.12654756322E+03  0.17794927603E+03  0.80228499683E+02 0.  0.
          5    1    5    5  501    0  0.15485082993E+02  0.47743050873E+02  0.25585382731E+02  0.56532190047E+02  0.47000000000E+01 0. -1.
        -11    1    6    6    0    0 -0.44679356566E+02 -0.86484114145E+02  0.13548610872E+03  0.16682995102E+03  0.00000000000E+00 0.  1.
         12    1    6    6    0    0  0.64270836631E+01 -0.15602527326E+01 -0.89385454976E+01  0.11119325007E+02  0.00000000000E+00 0. -1.
         -5    1    3    3    0  503  0.64425458522E+02 -0.14550152005E+02 -0.10446594703E+02  0.67034080660E+02  0.47000000000E+01 0.  1.
         13    1    4    4    0    0 -0.19524885241E+02 -0.81555859436E+01  0.56677551394E+01  0.21905665342E+02  0.00000000000E+00 0. -1.
        -14    1    4    4    0    0 -0.22133383371E+02  0.63007053953E+02 -0.97733560865E+02  0.11837070764E+03  0.00000000000E+00 0.  1.
</event>
<event>
12    1  0.1594973E-001  0.2417788E+03  0.7818608E-02  0.1118655E+00
         21   -1    0    0  501  502  0.00000000000E+00  0.00000000000E+00  0.65067388354E+03  0.65067388354E+03  0.00000000000E+00 0. -1.
         21   -1    0    0  502  503 -0.00000000000E+00 -0.00000000000E+00 -0.99323819432E+02  0.99323819432E+02  0.00000000000E+00 0.  1.
         -6    2    1    2    0  503 -0.16608609115E+03 -0.33895000651E+02  0.15911178209E+03  0.28922893957E+03  0.17205626854E+03 0.  0.
        -24    2    3    3    0    0 -0.67044078276E+02 -0.55522673321E+02  0.34035498444E+02  0.12815987591E+03  0.87686161702E+02 0.  0.
          6    2    1    2  501    0  0.16608609115E+03  0.33895000651E+02  0.39223828202E+03  0.46076876340E+03  0.17240511217E+03 0.  0.
         24    2    5    5    0    0  0.17690204587E+03  0.22974640112E+02  0.24826307035E+03  0.31589919887E+03  0.79596380749E+02 0.  0.
          5    1    5    5  501    0 -0.10815954719E+02  0.10920360539E+02  0.14397521167E+03  0.14486956453E+03  0.47000000000E+01 0. -1.
        -13    1    6    6    0    0  0.58666411014E+02 -0.27316997723E+02  0.62019012616E+02  0.89634391122E+02  0.00000000000E+00 0.  1.
         14    1    6    6    0    0  0.11823563485E+03  0.50291637835E+02  0.18624405773E+03  0.22626480775E+03  0.00000000000E+00 0. -1.
         -5    1    3    3    0  503 -0.99042012874E+02  0.21627672669E+02  0.12507628364E+03  0.16106906366E+03  0.47000000000E+01 0.  1.
         11    1    4    4    0    0 -0.31681197214E+02 -0.57109872043E+02  0.56397492663E+02  0.86289703443E+02  0.00000000000E+00 0. -1.
        -12    1    4    4    0    0 -0.35362881062E+02  0.15871987222E+01 -0.22361994219E+02  0.41870172465E+02  0.00000000000E+00 0.  1.
</event>
<event>
12    1  0.1594973E-001  0.1927625E+03  0.7818608E-02  0.1156396E+00
         21   -1    0    0  501  502  0.00000000000E+00  0.00000000000E+00  0.90070538546E+03  0.90070538546E+03  0.00000000000E+00 0. -1.
         21   -1    0    0  502  503 -0.00000000000E+00 -0.00000000000E+00 -0.42333677302E+02  0.42333677302E+02  0.00000000000E+00 0. -1.
         -6    2    1    2    0  503  0.37532554546E+02 -0.75250820313E+02  0.34336184103E+03  0.39376989854E+03  0.17345316519E+03 0.  0.
        -24    2    3    3    0    0  0.54096094504E+02 -0.11006930014E+03  0.22544261333E+03  0.26961792854E+03  0.82630606986E+02 0.  0.
          6    2    1    2  501    0 -0.37532554546E+02  0.75250820313E+02  0.51500986713E+03  0.54926916422E+03  0.17143533159E+03 0.  0.
         24    2    5    5    0    0  0.24021603041E+02  0.34451376884E+02  0.13850682361E+03  0.16556336458E+03  0.80393735593E+02 0.  0.
          5    1    5    5  501    0 -0.61554157588E+02  0.40799443429E+02  0.37650304352E+03  0.38370579964E+03  0.47000000000E+01 0. -1.
        -11    1    6    6    0    0 -0.26416062824E+02  0.27633279371E+02  0.74975606162E+02  0.84159063821E+02  0.00000000000E+00 0.  1.
         12    1    6    6    0    0  0.50437665865E+02  0.68180975134E+01  0.63531217449E+02  0.81404300760E+02  0.00000000000E+00 0. -1.
         -5    1    3    3    0  503 -0.16563539957E+02  0.34818479830E+02  0.11791922770E+03  0.12415197000E+03  0.47000000000E+01 0.  1.
         13    1    4    4    0    0  0.26412735068E+02  0.14291244726E+01  0.16503576217E+02  0.31177604118E+02  0.00000000000E+00 0. -1.
        -14    1    4    4    0    0  0.27683359435E+02 -0.11149842462E+03  0.20893903711E+03  0.23844032442E+03  0.00000000000E+00 0.  1.
</event>
<event>
12    1  0.1594973E-001  0.1943636E+03  0.7818608E-02  0.1155407E+00
         21   -1    0    0  503  502  0.00000000000E+00  0.00000000000E+00  0.34203702715E+03  0.34203702715E+03  0.00000000000E+00 0.  1.
         21   -1    0    0  501  503 -0.00000000000E+00 -0.00000000000E+00 -0.17039840200E+03  0.17039840200E+03  0.00000000000E+00 0.  1.
          6    2    1    2  501    0 -0.42297324191E+02  0.70718751808E+02 -0.69326367832E+02  0.20285287878E+03  0.17190968460E+03 0.  0.
         24    2    3    3    0    0  0.42870414328E+02  0.42161925879E+02 -0.51181298744E+02  0.11109030730E+03  0.78141094287E+02 0.  0.
         -6    2    1    2    0  502  0.42297324191E+02 -0.70718751808E+02  0.24096499299E+03  0.30958255037E+03  0.17603131017E+03 0.  0.
        -24    2    5    5    0    0  0.31067804294E+02 -0.71324957686E+02  0.26201779970E+03  0.28525601603E+03  0.81640732906E+02 0.  0.
          5    1    3    3  501    0 -0.85167738519E+02  0.28556825929E+02 -0.18145069089E+02  0.91762571475E+02  0.47000000000E+01 0. -1.
        -13    1    4    4    0    0  0.30178412881E+02 -0.17530381782E+02 -0.31374444587E+02  0.46929805695E+02  0.00000000000E+00 0.  1.
         14    1    4    4    0    0  0.12692001446E+02  0.59692307661E+02 -0.19806854157E+02  0.64160501605E+02  0.00000000000E+00 0. -1.
         -5    1    5    5    0  502  0.11229519897E+02  0.60620587814E+00 -0.21052806713E+02  0.24326534344E+02  0.47000000000E+01 0.  1.
         11    1    6    6    0    0 -0.26913354983E+02 -0.17838376615E+02  0.55841231448E+02  0.64504104415E+02  0.00000000000E+00 0. -1.
        -12    1    6    6    0    0  0.57981159277E+02 -0.53486581072E+02  0.20617656825E+03  0.22075191162E+03  0.00000000000E+00 0.  1.
</event>
<event>
12    1  0.1594973E-001  0.3238822E+03  0.7818608E-02  0.1073966E+00
         21   -1    0    0  501  502  0.00000000000E+00  0.00000000000E+00  0.92203845209E+03  0.92203845209E+03  0.00000000000E+00 0.  1.
         21   -1    0    0  502  503 -0.00000000000E+00 -0.00000000000E+00 -0.20218570175E+03  0.20218570175E+03  0.00000000000E+00 0. -1.
         -6    2    1    2    0  503 -0.17953786348E+03 -0.20614930919E+03 -0.12622653632E+02  0.32333721161E+03  0.17220986884E+03 0.  0.
        -24    2    3    3    0    0 -0.16036906160E+03 -0.11817426741E+03 -0.59113342367E+02  0.22189498628E+03  0.77843460186E+02 0.  0.
          6    2    1    2  501    0  0.17953786348E+03  0.20614930919E+03  0.73247540397E+03  0.80088694222E+03  0.17369022626E+03 0.  0.
         24    2    5    5    0    0  0.63102071077E+02  0.17155494747E+03  0.41024814207E+03  0.45649390814E+03  0.81671162100E+02 0.  0.
          5    1    5    5  501    0  0.11643579240E+03  0.34594361724E+02  0.32222726190E+03  0.34439303409E+03  0.47000000000E+01 0. -1.
        -13    1    6    6    0    0  0.48299207299E+02  0.14916050011E+03  0.39641662834E+03  0.42629545088E+03  0.00000000000E+00 0.  1.
         14    1    6    6    0    0  0.14802863778E+02  0.22394447359E+02  0.13831513734E+02  0.30198457257E+02  0.00000000000E+00 0. -1.
         -5    1    3    3    0  503 -0.19168801880E+02 -0.87975041781E+02  0.46490688736E+02  0.10144222534E+03  0.47000000000E+01 0.  1.
         11    1    4    4    0    0 -0.12938451088E+03 -0.11827745244E+03 -0.27169267657E+02  0.17739243647E+03  0.00000000000E+00 0. -1.
        -12    1    4    4    0    0 -0.30984550711E+02  0.10318503133E+00 -0.31944074710E+02  0.44502549803E+02  0.00000000000E+00 0.  1.
</event>
<event>
12    1  0.1594973E-001  0.2268469E+03  0.7818608E-02  0.1129156E+00
         21   -1    0    0  503  502  0.00000000000E+00  0.00000000000E+00  0.26758592348E+03  0.26758592348E+03  0.00000000000E+00 0. -1.
         21   -1    0    0  501  503 -0.00000000000E+00 -0.00000000000E+00 -0.19205895404E+03  0.19205895404E+03  0.00000000000E+00 0. -1.
          6    2    1    2  501    0  0.25573331462E+02 -0.14409319372E+03  0.20891543667E+02  0.22780682848E+03  0.17332815912E+03 0.  0.
         24    2    3    3    0    0 -0.18202633277E+02 -0.13985539667E+02 -0.23269071348E+02  0.83527285053E+02  0.76866289678E+02 0.  0.
         -6    2    1    2    0  502 -0.25573331462E+02  0.14409319372E+03  0.54635425774E+02  0.23183804905E+03  0.17130968297E+03 0.  0.
        -24    2    5    5    0    0  0.25204837696E+02  0.14436829652E+03  0.13290310227E+02  0.16618740759E+03  0.77227800760E+02 0.  0.
          5    1    3    3  501    0  0.43775964739E+02 -0.13010765405E+03  0.44160615015E+02  0.14427954342E+03  0.47000000000E+01 0. -1.
        -11    1    4    4    0    0 -0.98846920761E+01  0.11679857049E+02  0.24372064176E+02  0.28777138675E+02  0.00000000000E+00 0.  1.
         12    1    4    4    0    0 -0.83179412009E+01 -0.25665396716E+02 -0.47641135524E+02  0.54750146378E+02  0.00000000000E+00 0. -1.
         -5    1    5    5    0  502 -0.50778169158E+02 -0.27510280281E+00  0.41345115547E+02  0.65650641461E+02  0.47000000000E+01 0.  1.
         11    1    6    6    0    0 -0.11606783459E+02  0.69632069501E+02  0.36819885268E+02  0.79618129068E+02  0.00000000000E+00 0. -1.
        -12    1    6    6    0    0  0.36811621155E+02  0.74736227022E+02 -0.23529575040E+02  0.86569278518E+02  0.00000000000E+00 0.  1.
</event>
<event>
12    1  0.1594973E-001  0.2482961E+03  0.7818608E-02  0.1114510E+00
         21   -1    0    0  501  502  0.00000000000E+00  0.00000000000E+00  0.17291397426E+03  0.17291397426E+03  0.00000000000E+00 0. -1.
         21   -1    0    0  502  503 -0.00000000000E+00 -0.00000000000E+00 -0.75767727886E+03  0.75767727886E+03  0.00000000000E+00 0. -1.
         -6    2    1    2    0  503 -0.13799340493E+03 -0.11619991632E+03 -0.63162233171E+03  0.67867349260E+03  0.17060580085E+03 0.  0.
        -24    2    3    3    0    0 -0.95999937071E+02 -0.43165332285E+02 -0.20483051534E+03  0.24362079886E+03  0.79475277880E+02 0.  0.
          6    2    1    2  501    0  0.13799340493E+03  0.11619991632E+03  0.46859027103E+02  0.25191776053E+03  0.16947622043E+03 0.  0.
         24    2    5    5    0    0  0.81603464537E+02  0.11839570434E+03 -0.21157439924E+02  0.16341365526E+03  0.74697504850E+02 0.  0.
          5    1    5    5  501    0  0.56389940393E+02 -0.21957880177E+01  0.68016467027E+02  0.88504105269E+02  0.47000000000E+01 0. -1.
        -13    1    6    6    0    0  0.27043503249E+02 -0.24539995201E+01 -0.14182717665E+02  0.30635317234E+02  0.00000000000E+00 0.  1.
         14    1    6    6    0    0  0.54559961288E+02  0.12084970386E+03 -0.69747222589E+01  0.13277833802E+03  0.00000000000E+00 0. -1.
         -5    1    3    3    0  503 -0.41993467859E+02 -0.73034584033E+02 -0.42679181637E+03  0.43505269373E+03  0.47000000000E+01 0.  1.
         11    1    4    4    0    0 -0.67627274569E+02 -0.54294380916E+02 -0.19175900275E+03  0.21045864962E+03  0.00000000000E+00 0. -1.
        -12    1    4    4    0    0 -0.28372662503E+02  0.11129048631E+02 -0.13071512594E+02  0.33162149243E+02  0.00000000000E+00 0.  1.
</event>
<event>
12    1  0.1594973E-001  0.2533997E+03  0.7818608E-02  0.1111577E+00
         21   -1    0    0  503  502  0.00000000000E+00  0.00000000000E+00  0.24913157667E+03  0.24913157667E+03  0.00000000000E+00 0. -1.
         21   -1    0    0  501  503 -0.00000000000E+00 -0.00000000000E+00 -0.57885602157E+03  0.57885602157E+03  0.00000000000E+00 0.  1.
          6    2    1    2  501    0 -0.12555331811E+03 -0.13413531691E+03 -0.47482858674E+03  0.53821335586E+03  0.17451507302E+03 0.  0.
         24    2    3    3    0    0 -0.11859840895E+03 -0.16404389370E+03 -0.37436895421E+03  0.43306050761E+03  0.80083130012E+02 0.  0.
         -6    2    1    2    0  502  0.12555331811E+03  0.13413531691E+03  0.14510414185E+03  0.28977424238E+03  0.17075708078E+03 0.  0.
        -24    2    5    5    0    0  0.31593378248E+02  0.13032704690E+03  0.85261023345E+02  0.17821142577E+03  0.80663433290E+02 0.  0.
          5    1    3    3  501    0 -0.69549091524E+01  0.29908576783E+02 -0.10045963253E+03  0.10515284825E+03  0.47000000000E+01 0. -1.
        -13    1    4    4    0    0 -0.20151680414E+02 -0.24448650756E+02 -0.13701311516E+03  0.14062866163E+03  0.00000000000E+00 0.  1.
         14    1    4    4    0    0 -0.98446728540E+02 -0.13959524294E+03 -0.23735583906E+03  0.29243184598E+03  0.00000000000E+00 0. -1.
         -5    1    5    5    0  502  0.93959939858E+02  0.38082700166E+01  0.59843118504E+02  0.11156281661E+03  0.47000000000E+01 0.  1.
         11    1    6    6    0    0  0.25645969634E+02  0.62448126433E+01 -0.18927500386E+01  0.26463105376E+02  0.00000000000E+00 0. -1.
        -12    1    6    6    0    0  0.59474086136E+01  0.12408223425E+03  0.87153773383E+02  0.15174832039E+03  0.00000000000E+00 0.  1.
</event>
<event>
12    1  0.1594973E-001  0.1741008E+03  0.7818608E-02  0.1173912E+00
         21   -1    0    0  501  502  0.00000000000E+00  0.00000000000E+00  0.51753397212E+02  0.51753397212E+02  0.00000000000E+00 0. -1.
         21   -1    0    0  502  503 -0.00000000000E+00 -0.00000000000E+00 -0.58353485973E+03  0.58353485973E+03  0.00000000000E+00 0. -1.
         -6    2    1    2    0  503 -0.41625372264E+01  0.22750949745E+02 -0.25068378388E+03  0.30521048784E+03  0.17255767140E+03 0.  0.
        -24    2    3    3    0    0 -0.32778905204E+02  0.23398796157E+02 -0.25968684285E+03  0.27483843997E+03  0.80479509469E+02 0.  0.
          6    2    1    2  501    0  0.41625372264E+01 -0.22750949745E+02 -0.28109767864E+03  0.33007776910E+03  0.17146572919E+03 0.  0.
         24    2    5    5    0    0  0.67685869290E+02  0.25345496326E+01 -0.16168343716E+03  0.19239544902E+03  0.79288549655E+02 0.  0.
          5    1    5    5  501    0 -0.63523332064E+02 -0.25285499378E+02 -0.11941424148E+03  0.13768232008E+03  0.47000000000E+01 0. -1.
        -13    1    6    6    0    0  0.10520216854E+02  0.32295728659E+02 -0.88959804169E+02  0.95223609520E+02  0.00000000000E+00 0.  1.
         14    1    6    6    0    0  0.57165652436E+02 -0.29761179026E+02 -0.72723632995E+02  0.97171839498E+02  0.00000000000E+00 0. -1.
         -5    1    3    3    0  503  0.28616367977E+02 -0.64784641149E+00  0.90030589769E+01  0.30372047875E+02  0.47000000000E+01 0.  1.
         11    1    4    4    0    0 -0.31042801412E+02 -0.25349639636E+02 -0.13911568811E+03  0.14477373528E+03  0.00000000000E+00 0. -1.
        -12    1    4    4    0    0 -0.17361037913E+01  0.48748435793E+02 -0.12057115474E+03  0.13006470469E+03  0.00000000000E+00 0.  1.
</event>
<event>
12    1  0.1594973E-001  0.2219933E+03  0.7818608E-02  0.1132813E+00
         21   -1    0    0  501  502  0.00000000000E+00  0.00000000000E+00  0.15559841246E+03  0.15559841246E+03  0.00000000000E+00 0.  1.
         21   -1    0    0  502  503 -0.00000000000E+00 -0.00000000000E+00 -0.94657435311E+03  0.94657435311E+03  0.00000000000E+00 0.  1.
         -6    2    1    2    0  503  0.11937134112E+03  0.70630349352E+02 -0.84548357666E+03  0.87358554822E+03  0.17050239976E+03 0.  0.
        -24    2    3    3    0    0  0.15234154639E+03  0.72031862730E+02 -0.73424814037E+03  0.75746315175E+03  0.78952888607E+02 0.  0.
          6    2    1    2  501    0 -0.11937134112E+03 -0.70630349352E+02  0.54507636014E+02  0.22858721736E+03  0.17332879225E+03 0.  0.
         24    2    5    5    0    0 -0.14931154987E+03 -0.51109032642E+02  0.18535182626E+02  0.17765976593E+03  0.79456700731E+02 0.  0.
          5    1    5    5  501    0  0.29940208752E+02 -0.19521316709E+02  0.35972453388E+02  0.50927451428E+02  0.47000000000E+01 0. -1.
        -13    1    6    6    0    0 -0.46699855331E+02 -0.34513486535E+02 -0.27168429861E+02  0.64110691946E+02  0.00000000000E+00 0.  1.
         14    1    6    6    0    0 -0.10261169454E+03 -0.16595546107E+02  0.45703612487E+02  0.11354907398E+03  0.00000000000E+00 0. -1.
         -5    1    3    3    0  503 -0.32970205262E+02 -0.14015133782E+01 -0.11123543629E+03  0.11612239647E+03  0.47000000000E+01 0.  1.
         13    1    4    4    0    0  0.52232135526E+02 -0.95681148721E+01 -0.15034693892E+03  0.15944888474E+03  0.00000000000E+00 0. -1.
        -14    1    4    4    0    0  0.10010941086E+03  0.81599977602E+02 -0.58390120145E+03  0.59801426700E+03  0.00000000000E+00 0.  1.
</event>
<event>
12    1  0.1594973E-001  0.2143041E+03  0.7818608E-02  0.1138624E+00
         21   -1    0    0  501  502  0.00000000000E+00  0.00000000000E+00  0.18490079148E+04  0.18490079148E+04  0.00000000000E+00 0.  1.
         21   -1    0    0  502  503 -0.00000000000E+00 -0.00000000000E+00 -0.14681561895E+03  0.14681561895E+03  0.00000000000E+00 0.  1.
         -6    2    1    2    0  503  0.11095129045E+03  0.64510150891E+02 -0.60155931702E+02  0.22049327198E+03  0.16889878167E+03 0.  0.
        -24    2    3    3    0    0  0.12119267247E+03  0.25874744593E+01 -0.63308738206E+02  0.15747475128E+03  0.78076514225E+02 0.  0.
          6    2    1    2  501    0 -0.11095129045E+03 -0.64510150891E+02  0.17623482276E+04  0.17753302618E+04  0.17162317665E+03 0.  0.
         24    2    5    5    0    0 -0.13640371640E+03 -0.87054787385E+02  0.14750251223E+04  0.14859641555E+04  0.78777219256E+02 0.  0.
          5    1    5    5  501    0  0.25452425949E+02  0.22544636493E+02  0.28732310525E+03  0.28936610622E+03  0.47000000000E+01 0. -1.
        -11    1    6    6    0    0 -0.43085849323E+02 -0.14766236334E+02  0.18397657447E+03  0.18953050441E+03  0.00000000000E+00 0.  1.
         12    1    6    6    0    0 -0.93317867073E+02 -0.72288551051E+02  0.12910485478E+04  0.12964336511E+04  0.00000000000E+00 0. -1.
         -5    1    3    3    0  503 -0.10241382018E+02  0.61922676432E+02  0.31528065040E+01  0.63018520698E+02  0.47000000000E+01 0.  1.
         11    1    4    4    0    0  0.11861328834E+03  0.16415539348E+02 -0.33229654778E+02  0.12426903097E+03  0.00000000000E+00 0. -1.
        -12    1    4    4    0    0  0.25793841267E+01 -0.13828064888E+02 -0.30079083428E+02  0.33205720304E+02  0.00000000000E+00 0.  1.
</event>
<event>
12    1  0.1594973E-001  0.2232596E+03  0.7818608E-02  0.1131712E+00
         21   -1    0    0  501  502  0.00000000000E+00  0.00000000000E+00  0.29354186435E+03  0.29354186435E+03  0.00000000000E+00 0.  1.
         21   -1    0    0  502  503 -0.00000000000E+00 -0.00000000000E+00 -0.29000540760E+03  0.29000540760E+03  0.00000000000E+00 0. -1.
         -6    2    1    2    0  503 -0.11948795403E+03  0.77767044989E+02 -0.18683319229E+03  0.29112110604E+03  0.17181318982E+03 0.  0.
        -24    2    3    3    0    0 -0.12212306797E+03  0.10333600925E+03 -0.11207183732E+03  0.21192473014E+03  0.82216908136E+02 0.  0.
          6    2    1    2  501    0  0.11948795403E+03 -0.77767044989E+02  0.19036964905E+03  0.29242616591E+03  0.17013928056E+03 0.  0.
         24    2    5    5    0    0  0.89648365311E+01 -0.72827430865E+02  0.54490106727E+02  0.11714040121E+03  0.73270040829E+02 0.  0.
          5    1    5    5  501    0  0.11052311750E+03 -0.49396141237E+01  0.13587954232E+03  0.17528576471E+03  0.47000000000E+01 0. -1.
        -11    1    6    6    0    0  0.24065924219E+02  0.48613529627E+01  0.12767964000E+02  0.27673495728E+02  0.00000000000E+00 0.  1.
         12    1    6    6    0    0 -0.15101087687E+02 -0.77688783828E+02  0.41722142727E+02  0.89466905477E+02  0.00000000000E+00 0. -1.
         -5    1    3    3    0  503  0.26351139465E+01 -0.25568964264E+02 -0.74761354969E+02  0.79196375901E+02  0.47000000000E+01 0.  1.
         11    1    4    4    0    0 -0.48401624349E+01  0.35156998653E+02 -0.53408189962E+02  0.64123915053E+02  0.00000000000E+00 0. -1.
        -12    1    4    4    0    0 -0.11728290554E+03  0.68179010600E+02 -0.58663647357E+02  0.14780081508E+03  0.00000000000E+00 0.  1.
</event>
<event>
12    1  0.1594973E-001  0.2277501E+03  0.7818608E-02  0.1128298E+00
         21   -1    0    0  501  502  0.00000000000E+00  0.00000000000E+00  0.24752408907E+03  0.24752408907E+03  0.00000000000E+00 0. -1.
         21   -1    0    0  502  503 -0.00000000000E+00 -0.00000000000E+00 -0.52258052676E+03  0.52258052676E+03  0.00000000000E+00 0. -1.
         -6    2    1    2    0  503  0.82753112515E+02 -0.12387766988E+03 -0.43574145152E+03  0.49167134856E+03  0.17226824344E+03 0.  0.
        -24    2    3    3    0    0  0.11946725346E+03 -0.12078418803E+03 -0.39008415694E+03  0.43281409477E+03  0.79379760710E+02 0.  0.
          6    2    1    2  501    0 -0.82753112515E+02  0.12387766988E+03  0.16068501383E+03  0.27843326728E+03  0.17178956875E+03 0.  0.
         24    2    5    5    0    0  0.20352399707E+02  0.80409082182E+02  0.72281655815E+02  0.13575352634E+03  0.79526985825E+02 0.  0.
          5    1    5    5  501    0 -0.10310551222E+03  0.43468587698E+02  0.88403358012E+02  0.14267974094E+03  0.47000000000E+01 0. -1.
        -13    1    6    6    0    0  0.31953443531E+02  0.68648990961E+02  0.16393979404E+02  0.77475603090E+02  0.00000000000E+00 0.  1.
         14    1    6    6    0    0 -0.11601043824E+02  0.11760091221E+02  0.55887676411E+02  0.58277923247E+02  0.00000000000E+00 0. -1.
         -5    1    3    3    0  503 -0.36714140944E+02 -0.30934818479E+01 -0.45657294581E+02  0.58857253790E+02  0.47000000000E+01 0.  1.
         13    1    4    4    0    0  0.91850777324E+02 -0.78917074206E+02 -0.34403590501E+03  0.36472616280E+03  0.00000000000E+00 0. -1.
        -14    1    4    4    0    0  0.27616476134E+02 -0.41867113827E+02 -0.46048251932E+02  0.68087931972E+02  0.00000000000E+00 0.  1.
</event>
<event>
12    1  0.1594973E-001  0.2082650E+03  0.7818608E-02  0.1146316E+00
         21   -1    0    0  503  502  0.00000000000E+00  0.00000000000E+00  0.81608576621E+02  0.81608576621E+02  0.00000000000E+00 0.  1.
         21   -1    0    0  501  503 -0.00000000000E+00 -0.00000000000E+00 -0.16039533179E+04  0.16039533179E+04  0.00000000000E+00 0.  1.
          6    2    1    2  501    0  0.42502046507E+02  0.75829175744E+02 -0.14536006382E+04  0.14662446405E+04  0.17135356019E+03 0.  0.
         24    2    3    3    0    0  0.88587339585E+02  0.81455262032E+02 -0.12319611470E+04  0.12397459404E+04  0.68985887010E+02 0.  0.
         -6    2    1    2    0  502 -0.42502046507E+02 -0.75829175744E+02 -0.68744103076E+02  0.21931725401E+03  0.18925595987E+03 0.  0.
        -24    2    5    5    0    0 -0.89037577069E+02 -0.10033996353E+03 -0.58995211915E+02  0.16561934715E+03  0.77159151813E+02 0.  0.
          5    1    3    3  501    0 -0.46085293078E+02 -0.56260862876E+01 -0.22163949123E+03  0.22649870013E+03  0.47000000000E+01 0. -1.
        -11    1    4    4    0    0 -0.45492501847E+01 -0.17788651431E+01 -0.22691021402E+03  0.22696278388E+03  0.00000000000E+00 0.  1.
         12    1    4    4    0    0  0.93136589770E+02  0.83234127175E+02 -0.10050509330E+04  0.10127831565E+04  0.00000000000E+00 0. -1.
         -5    1    5    5    0  502  0.46535530562E+02  0.24510787789E+02 -0.97488911602E+01  0.53697906864E+02  0.47000000000E+01 0.  1.
         11    1    6    6    0    0 -0.52629919209E+02 -0.27675227137E+02 -0.59811313467E+02  0.84339906401E+02  0.00000000000E+00 0. -1.
        -12    1    6    6    0    0 -0.36407657860E+02 -0.72664736396E+02  0.81610155165E+00  0.81279440746E+02  0.00000000000E+00 0.  1.
</event>
<event>
12    1  0.1594973E-001  0.3441369E+03  0.7818608E-02  0.1065373E+00
         21   -1    0    0  503  502  0.00000000000E+00  0.00000000000E+00  0.33007529951E+03  0.33007529951E+03  0.00000000000E+00 0. -1.
         21   -1    0    0  501  503 -0.00000000000E+00 -0.00000000000E+00 -0.35558481402E+03  0.35558481402E+03  0.00000000000E+00 0.  1.
          6    2    1    2  501    0 -0.27909346516E+03  0.10134859469E+03 -0.13272409586E+02  0.34439277571E+03  0.17396990305E+03 0.  0.
         24    2    3    3    0    0 -0.70817890672E+02  0.20584553832E+02 -0.46544593788E+02  0.11849307791E+03  0.80220401439E+02 0.  0.
         -6    2    1    2    0  502  0.27909346516E+03 -0.10134859469E+03 -0.12237104921E+02  0.34126733782E+03  0.16777648579E+03 0.  0.
        -24    2    5    5    0    0  0.23457629061E+03 -0.34159411807E+02  0.27686242139E+02  0.25119998099E+03  0.78370918790E+02 0.  0.
          5    1    3    3  501    0 -0.20827557448E+03  0.80764040855E+02  0.33272184202E+02  0.22589969779E+03  0.47000000000E+01 0. -1.
        -11    1    4    4    0    0 -0.39572701417E+02 -0.25619596133E+02 -0.21253568694E+01  0.47189824594E+02  0.00000000000E+00 0.  1.
         12    1    4    4    0    0 -0.31245189255E+02  0.46204149965E+02 -0.44419236919E+02  0.71303253320E+02  0.00000000000E+00 0. -1.
         -5    1    5    5    0  502  0.44517174542E+02 -0.67189182881E+02 -0.39923347059E+02  0.90067356827E+02  0.47000000000E+01 0.  1.
         13    1    6    6    0    0  0.51378903412E+02  0.22844930980E+02  0.18212779808E+02  0.59104889270E+02  0.00000000000E+00 0. -1.
        -14    1    6    6    0    0  0.18319738720E+03 -0.57004342786E+02  0.94734623310E+01  0.19209509172E+03  0.00000000000E+00 0.  1.
</event>
<event>
12    1  0.1594973E-001  0.1873799E+03  0.7818608E-02  0.1160924E+00
         21   -1    0    0  501  502  0.00000000000E+00  0.00000000000E+00  0.11608888990E+03  0.11608888990E+03  0.00000000000E+00 0. -1.
         21   -1    0    0  502  503 -0.00000000000E+00 -0.00000000000E+00 -0.89702699327E+03  0.89702699327E+03  0.00000000000E+00 0. -1.
         -6    2    1    2    0  503 -0.62677996068E+02  0.38184362441E+02 -0.80318848235E+03  0.82475629564E+03  0.17240833009E+03 0.  0.
        -24    2    3    3    0    0 -0.45777057537E+02  0.28144293285E+02 -0.79904062060E+03  0.80412284054E+03  0.72525782145E+02 0.  0.
          6    2    1    2  501    0  0.62677996068E+02 -0.38184362441E+02  0.22250378981E+02  0.18835958753E+03  0.17203975739E+03 0.  0.
         24    2    5    5    0    0  0.38668728026E+02 -0.50509795892E+02  0.77579188908E+02  0.12662039034E+03  0.77250777928E+02 0.  0.
          5    1    5    5  501    0  0.24009268041E+02  0.12325433451E+02 -0.55328809926E+02  0.61739197189E+02  0.47000000000E+01 0. -1.
        -13    1    6    6    0    0  0.19430051517E+02 -0.11292885474E+02 -0.13068424854E+02  0.25996920826E+02  0.00000000000E+00 0.  1.
         14    1    6    6    0    0  0.19238676509E+02 -0.39216910418E+02  0.90647613762E+02  0.10062346952E+03  0.00000000000E+00 0. -1.
         -5    1    3    3    0  503 -0.16900938531E+02  0.10040069156E+02 -0.41478617486E+01  0.20633455090E+02  0.47000000000E+01 0.  1.
         13    1    4    4    0    0 -0.37739951829E+02  0.44973468372E+02 -0.73712542714E+03  0.73945981105E+03  0.00000000000E+00 0. -1.
        -14    1    4    4    0    0 -0.80371057080E+01 -0.16829175087E+02 -0.61915193459E+02  0.64663029494E+02  0.00000000000E+00 0.  1.
</event>
<event>
12    1  0.1594973E-001  0.2107524E+03  0.7818608E-02  0.1140991E+00
         21   -1    0    0  503  502  0.00000000000E+00  0.00000000000E+00  0.11866506601E+03  0.11866506601E+03  0.00000000000E+00 0. -1.
         21   -1    0    0  501  503 -0.00000000000E+00 -0.00000000000E+00 -0.38521244499E+03  0.38521244499E+03  0.00000000000E+00 0. -1.
          6    2    1    2  501    0 -0.36219246108E+01 -0.12241301053E+03 -0.90568863330E+02  0.22938897880E+03  0.17151828212E+03 0.  0.
         24    2    3    3    0    0  0.58349298622E+02 -0.44972886371E+02 -0.53126930058E+02  0.12326926476E+03  0.83340505036E+02 0.  0.
         -6    2    1    2    0  502  0.36219246108E+01  0.12241301053E+03 -0.17597851565E+03  0.27448853220E+03  0.17139852056E+03 0.  0.
        -24    2    5    5    0    0  0.38781466161E+02  0.11040290019E+03 -0.60546579551E+02  0.15313344172E+03  0.78045885152E+02 0.  0.
          5    1    3    3  501    0 -0.61971223233E+02 -0.77440124164E+02 -0.37441933272E+02  0.10611971403E+03  0.47000000000E+01 0. -1.
        -11    1    4    4    0    0  0.54522346684E+02 -0.16843401690E+01 -0.57902678911E+02  0.79550257792E+02  0.00000000000E+00 0.  1.
         12    1    4    4    0    0  0.38269519377E+01 -0.43288546202E+02  0.47757488529E+01  0.43719006971E+02  0.00000000000E+00 0. -1.
         -5    1    5    5    0  502 -0.35159541550E+02  0.12010110342E+02 -0.11543193610E+03  0.12135509048E+03  0.47000000000E+01 0.  1.
         13    1    6    6    0    0  0.45343771675E+02  0.33032287013E+02 -0.49282419757E+02  0.74672260661E+02  0.00000000000E+00 0. -1.
        -14    1    6    6    0    0 -0.65623055135E+01  0.77370613180E+02 -0.11264159793E+02  0.78461181060E+02  0.00000000000E+00 0.  1.
</event>
<event>
12    1  0.1594973E-001  0.2256455E+03  0.7818608E-02  0.1130247E+00
         21   -1    0    0  503  502  0.00000000000E+00  0.00000000000E+00  0.69975782622E+03  0.69975782622E+03  0.00000000000E+00 0. -1.
         21   -1    0    0  501  503 -0.00000000000E+00 -0.00000000000E+00 -0.74692744836E+02  0.74692744836E+02  0.00000000000E+00 0. -1.
          6    2    1    2  501    0 -0.13053382061E+03 -0.55448552938E+02  0.38967883475E+03  0.45029490229E+03  0.17550579601E+03 0.  0.
         24    2    3    3    0    0 -0.68947555695E+02 -0.54615076356E+02  0.98208464520E+02  0.15235089844E+03  0.76349995092E+02 0.  0.
         -6    2    1    2    0  502  0.13053382061E+03  0.55448552938E+02  0.23538624663E+03  0.32415566876E+03  0.17192030753E+03 0.  0.
        -24    2    5    5    0    0  0.10426005089E+03  0.86566223650E+02  0.23532089261E+03  0.28315914845E+03  0.80245321159E+02 0.  0.
          5    1    3    3  501    0 -0.61586264918E+02 -0.83347658186E+00  0.29147037023E+03  0.29794400385E+03  0.47000000000E+01 0. -1.
        -13    1    4    4    0    0 -0.22924549011E+01  0.87678016868E+01  0.45387150952E+02  0.46283076469E+02  0.00000000000E+00 0.  1.
         14    1    4    4    0    0 -0.66655100794E+02 -0.63382878043E+02  0.52821313569E+02  0.10606782197E+03  0.00000000000E+00 0. -1.
         -5    1    5    5    0  502  0.26273769723E+02 -0.31117670712E+02  0.65354024518E-01  0.40996520306E+02  0.47000000000E+01 0.  1.
         13    1    6    6    0    0  0.93751586036E+02  0.28410158442E+02  0.15675600867E+03  0.18484843316E+03  0.00000000000E+00 0. -1.
        -14    1    6    6    0    0  0.10508464854E+02  0.58156065208E+02  0.78564883935E+02  0.98310715295E+02  0.00000000000E+00 0.  1.
</event>
<event>
12    1  0.1594973E-001  0.2119726E+03  0.7818608E-02  0.1141234E+00
         21   -1    0    0  503  502  0.00000000000E+00  0.00000000000E+00  0.60764195862E+02  0.60764195862E+02  0.00000000000E+00 0. -1.
         21   -1    0    0  501  503 -0.00000000000E+00 -0.00000000000E+00 -0.73644887814E+03  0.73644887814E+03  0.00000000000E+00 0.  1.
          6    2    1    2  501    0  0.10739792295E+03 -0.38703119636E+02 -0.27020816122E+03  0.33967226440E+03  0.17126748521E+03 0.  0.
         24    2    3    3    0    0  0.79798800217E+02 -0.75955429783E+02 -0.11885248169E+03  0.18130535525E+03  0.81293564384E+02 0.  0.
         -6    2    1    2    0  502 -0.10739792295E+03  0.38703119636E+02 -0.40547652106E+03  0.45754080960E+03  0.17860609731E+03 0.  0.
        -24    2    5    5    0    0 -0.30865939076E+02 -0.53145983294E+01 -0.33116138735E+03  0.34204391289E+03  0.79656906326E+02 0.  0.
          5    1    3    3  501    0  0.27599122736E+02  0.37252310147E+02 -0.15135567953E+03  0.15836690915E+03  0.47000000000E+01 0. -1.
        -11    1    4    4    0    0 -0.20277312141E+01  0.92196519709E+01 -0.35526216892E+02  0.36759022879E+02  0.00000000000E+00 0.  1.
         12    1    4    4    0    0  0.81826531431E+02 -0.85175081754E+02 -0.83326264797E+02  0.14454633237E+03  0.00000000000E+00 0. -1.
         -5    1    5    5    0  502 -0.76531983877E+02  0.44017717965E+02 -0.74315133711E+02  0.11549689671E+03  0.47000000000E+01 0.  1.
         13    1    6    6    0    0 -0.18172238484E+02 -0.21715662897E+02 -0.34384161474E+02  0.44542909950E+02  0.00000000000E+00 0. -1.
        -14    1    6    6    0    0 -0.12693700593E+02  0.16401064567E+02 -0.29677722587E+03  0.29750100294E+03  0.00000000000E+00 0.  1.
</event>
<event>
12    1  0.1594973E-001  0.1730017E+03  0.7818608E-02  0.1174795E+00
         21   -1    0    0  503  502  0.00000000000E+00  0.00000000000E+00  0.14035624721E+03  0.14035624721E+03  0.00000000000E+00 0.  1.
         21   -1    0    0  501  503 -0.00000000000E+00 -0.00000000000E+00 -0.24823634931E+03  0.24823634931E+03  0.00000000000E+00 0.  1.
          6    2    1    2  501    0  0.11845373042E+02  0.14110504286E+02  0.19201097882E+02  0.17406397489E+03  0.17201792349E+03 0.  0.
         24    2    3    3    0    0  0.31823816751E+02 -0.24032943729E+02  0.66266206506E+02  0.11010089734E+03  0.78362361974E+02 0.  0.
         -6    2    1    2    0  502 -0.11845373042E+02 -0.14110504286E+02 -0.12708119998E+03  0.21452862163E+03  0.17185307364E+03 0.  0.
        -24    2    5    5    0    0  0.56497782118E+02 -0.11109615205E+02 -0.10228993636E+03  0.14161436415E+03  0.79221045935E+02 0.  0.
          5    1    3    3  501    0 -0.19978443709E+02  0.38143448015E+02 -0.47065108624E+02  0.63963077547E+02  0.47000000000E+01 0. -1.
        -13    1    4    4    0    0  0.17432938874E+02 -0.30558374241E+02 -0.63808736177E+01  0.35755239367E+02  0.00000000000E+00 0.  1.
         14    1    4    4    0    0  0.14390877877E+02  0.65254305118E+01  0.72647080124E+02  0.74345657976E+02  0.00000000000E+00 0. -1.
         -5    1    5    5    0  502 -0.68343155159E+02 -0.30008890815E+01 -0.24791263619E+02  0.72914257483E+02  0.47000000000E+01 0.  1.
         11    1    6    6    0    0  0.10847090260E+02 -0.41554248911E+02 -0.41480324209E+02  0.59707891155E+02  0.00000000000E+00 0. -1.
        -12    1    6    6    0    0  0.45650691858E+02  0.30444633706E+02 -0.60809612150E+02  0.81906472995E+02  0.00000000000E+00 0.  1.
</event>
<event>
12    1  0.1594973E-001  0.2079386E+03  0.7818608E-02  0.1143371E+00
         21   -1    0    0  501  502  0.00000000000E+00  0.00000000000E+00  0.29425912318E+03  0.29425912318E+03  0.00000000000E+00 0.  1.
         21   -1    0    0  502  503 -0.00000000000E+00 -0.00000000000E+00 -0.24367064267E+03  0.24367064267E+03  0.00000000000E+00 0.  1.
         -6    2    1    2    0  503  0.42248315272E+02  0.10774867009E+03 -0.14463857356E+03  0.25329579559E+03  0.17275342848E+03 0.  0.
        -24    2    3    3    0    0  0.56229399187E+02  0.11498508844E+01 -0.79159728321E+02  0.12732616378E+03  0.82356674931E+02 0.  0.
          6    2    1    2  501    0 -0.42248315272E+02 -0.10774867009E+03  0.19522705407E+03  0.28463397026E+03  0.17177950500E+03 0.  0.
         24    2    5    5    0    0 -0.30573962733E+02 -0.10114506398E+03  0.21993720300E+03  0.25612818872E+03  0.77872874792E+02 0.  0.
          5    1    5    5  501    0 -0.11674352539E+02 -0.66036061142E+01 -0.24710148935E+02  0.28505781542E+02  0.47000000000E+01 0. -1.
        -13    1    6    6    0    0 -0.37155645029E+02 -0.10950394723E+03  0.17361325566E+03  0.20859822377E+03  0.00000000000E+00 0.  1.
         14    1    6    6    0    0  0.65816822959E+01  0.83588832582E+01  0.46323947341E+02  0.47529964953E+02  0.00000000000E+00 0. -1.
         -5    1    3    3    0  503 -0.13981083915E+02  0.10659881921E+03 -0.65478845237E+02  0.12596963180E+03  0.47000000000E+01 0.  1.
         13    1    4    4    0    0  0.39379697678E+02  0.20364233443E+01  0.65489310162E+01  0.39972441841E+02  0.00000000000E+00 0. -1.
        -14    1    4    4    0    0  0.16849701508E+02 -0.88657245989E+00 -0.85708659337E+02  0.87353721941E+02  0.00000000000E+00 0.  1.
</event>
<event>
12    1  0.1594973E-001  0.2623332E+03  0.7818608E-02  0.1105775E+00
         21   -1    0    0  501  502  0.00000000000E+00  0.00000000000E+00  0.38519446442E+03  0.38519446442E+03  0.00000000000E+00 0. -1.
         21   -1    0    0  502  503 -0.00000000000E+00 -0.00000000000E+00 -0.34442074528E+03  0.34442074528E+03  0.00000000000E+00 0.  1.
         -6    2    1    2    0  503  0.12340687468E+03  0.15403090912E+03 -0.23278653603E+03  0.35059816914E+03  0.17255354868E+03 0.  0.
        -24    2    3    3    0    0  0.67727979718E+02  0.14587456581E+03 -0.10137484913E+03  0.20756744959E+03  0.83312171411E+02 0.  0.
          6    2    1    2  501    0 -0.12340687468E+03 -0.15403090912E+03  0.27356025518E+03  0.37901704057E+03  0.17281182294E+03 0.  0.
         24    2    5    5    0    0 -0.12681126034E+03 -0.10916388316E+03  0.27716403431E+03  0.33363293450E+03  0.80580294922E+02 0.  0.
          5    1    5    5  501    0  0.34043856581E+01 -0.44867025957E+02 -0.36037791365E+01  0.45384106072E+02  0.47000000000E+01 0. -1.
        -13    1    6    6    0    0 -0.10583989781E+02  0.12768465443E+02  0.33884448598E+02  0.37725460981E+02  0.00000000000E+00 0.  1.
         14    1    6    6    0    0 -0.11622727056E+03 -0.12193234860E+03  0.24327958571E+03  0.29590747352E+03  0.00000000000E+00 0. -1.
         -5    1    3    3    0  503  0.55678894960E+02  0.81563433088E+01 -0.13141168690E+03  0.14303071955E+03  0.47000000000E+01 0.  1.
         13    1    4    4    0    0  0.90746798186E+00 -0.51038706386E+01  0.79916934315E+01  0.95257628322E+01  0.00000000000E+00 0. -1.
        -14    1    4    4    0    0  0.66820511736E+02  0.15097843645E+03 -0.10936654256E+03  0.19804168675E+03  0.00000000000E+00 0.  1.
</event>
<event>
12    1  0.1594973E-001  0.1986564E+03  0.7818608E-02  0.1151720E+00
         21   -1    0    0  501  502  0.00000000000E+00  0.00000000000E+00  0.16608746983E+03  0.16608746983E+03  0.00000000000E+00 0.  1.
         21   -1    0    0  502  503 -0.00000000000E+00 -0.00000000000E+00 -0.31243100701E+03  0.31243100701E+03  0.00000000000E+00 0. -1.
         -6    2    1    2    0  503 -0.90902207237E+02  0.13623250457E+02 -0.19330160478E+03  0.27438756804E+03  0.17168058380E+03 0.  0.
        -24    2    3    3    0    0 -0.11224867860E+03  0.50910670374E+02 -0.11970664003E+03  0.18903926777E+03  0.78832118355E+02 0.  0.
          6    2    1    2  501    0  0.90902207237E+02 -0.13623250457E+02  0.46958067604E+02  0.20413090880E+03  0.17611236067E+03 0.  0.
         24    2    5    5    0    0  0.23467395227E+02  0.20229155533E+02  0.84117676148E+02  0.11989097902E+03  0.79612348526E+02 0.  0.
          5    1    5    5  501    0  0.67434812010E+02 -0.33852405991E+02 -0.37159608544E+02  0.84239929780E+02  0.47000000000E+01 0. -1.
        -13    1    6    6    0    0 -0.13233676777E+02 -0.19567733951E+02  0.51976733331E+01  0.24187646043E+02  0.00000000000E+00 0.  1.
         14    1    6    6    0    0  0.36701072005E+02  0.39796889484E+02  0.78920002815E+02  0.95703332979E+02  0.00000000000E+00 0. -1.
         -5    1    3    3    0  503  0.21346471365E+02 -0.37287419917E+02 -0.73594964744E+02  0.85348300273E+02  0.47000000000E+01 0.  1.
         13    1    4    4    0    0 -0.20892853453E+02  0.37077249019E+02 -0.75369061081E+02  0.86554775075E+02  0.00000000000E+00 0. -1.
        -14    1    4    4    0    0 -0.91355825149E+02  0.13833421355E+02 -0.44337578954E+02  0.10248449269E+03  0.00000000000E+00 0.  1.
</event>
<event>
12    1  0.1594973E-001  0.1930502E+03  0.7818608E-02  0.1156076E+00
         21   -1    0    0  503  502  0.00000000000E+00  0.00000000000E+00  0.18396995660E+03  0.18396995660E+03  0.00000000000E+00 0. -1.
         21   -1    0    0  501  503 -0.00000000000E+00 -0.00000000000E+00 -0.26355765958E+03  0.26355765958E+03  0.00000000000E+00 0.  1.
          6    2    1    2  501    0  0.54180333384E+02  0.66218771906E+02 -0.14870041336E+03  0.24247900649E+03  0.17135875051E+03 0.  0.
         24    2    3    3    0    0 -0.10473814717E+01  0.33413854352E+02 -0.19889510058E+01  0.82252272481E+02  0.75125879240E+02 0.  0.
         -6    2    1    2    0  502 -0.54180333384E+02 -0.66218771906E+02  0.69112710388E+02  0.20504860969E+03  0.17305470615E+03 0.  0.
        -24    2    5    5    0    0 -0.81335652307E+02 -0.97643211574E+02  0.41014515835E+02  0.15468487977E+03  0.78073916373E+02 0.  0.
          5    1    3    3  501    0  0.55227714856E+02  0.32804917554E+02 -0.14671146236E+03  0.16022673401E+03  0.47000000000E+01 0. -1.
        -11    1    4    4    0    0 -0.56253224454E+01  0.21111522843E+02 -0.38049995265E+02  0.43876449139E+02  0.00000000000E+00 0.  1.
         12    1    4    4    0    0  0.45779409737E+01  0.12302331508E+02  0.36061044259E+02  0.38375823342E+02  0.00000000000E+00 0. -1.
         -5    1    5    5    0  502  0.27155318923E+02  0.31424439668E+02  0.28098194554E+02  0.50363729920E+02  0.47000000000E+01 0.  1.
         13    1    6    6    0    0 -0.61672144386E+02 -0.18975563206E+02  0.16484643946E+01  0.64546439305E+02  0.00000000000E+00 0. -1.
        -14    1    6    6    0    0 -0.19663507921E+02 -0.78667648368E+02  0.39366051440E+02  0.90138440465E+02  0.00000000000E+00 0.  1.
</event>
<event>
12    1  0.1594973E-001  0.2036447E+03  0.7818608E-02  0.1146894E+00
         21   -1    0    0  503  502  0.00000000000E+00  0.00000000000E+00  0.14186991619E+03  0.14186991619E+03  0.00000000000E+00 0. -1.
         21   -1    0    0  501  503 -0.00000000000E+00 -0.00000000000E+00 -0.42843009066E+03  0.42843009066E+03  0.00000000000E+00 0.  1.
          6    2    1    2  501    0 -0.77774470291E+02  0.75466415443E+02 -0.30502040301E+03  0.36675415607E+03  0.17241553483E+03 0.  0.
         24    2    3    3    0    0 -0.80991888894E+02  0.23984801509E+02 -0.29089406748E+03  0.31306661830E+03  0.79097359168E+02 0.  0.
         -6    2    1    2    0  502  0.77774470291E+02 -0.75466415443E+02  0.18460228537E+02  0.20354585078E+03  0.17130699123E+03 0.  0.
        -24    2    5    5    0    0  0.40251556390E+02 -0.17297034417E+02 -0.51303093958E+02  0.10515552035E+03  0.80661644044E+02 0.  0.
          5    1    3    3  501    0  0.32174186029E+01  0.51481613935E+02 -0.14126335522E+02  0.53687537763E+02  0.47000000000E+01 0. -1.
        -11    1    4    4    0    0 -0.10812443556E+02  0.14889411233E+02 -0.18370629524E+03  0.18462558440E+03  0.00000000000E+00 0.  1.
         12    1    4    4    0    0 -0.70179445338E+02  0.90953902761E+01 -0.10718777224E+03  0.12844103391E+03  0.00000000000E+00 0. -1.
         -5    1    5    5    0  502  0.37522913902E+02 -0.58169381026E+02  0.69763322495E+02  0.98390330430E+02  0.47000000000E+01 0.  1.
         11    1    6    6    0    0  0.31340901022E+02 -0.38275796075E+02 -0.49876108018E+00  0.49472592459E+02  0.00000000000E+00 0. -1.
        -12    1    6    6    0    0  0.89106553677E+01  0.20978761657E+02 -0.50804332878E+02  0.55682927895E+02  0.00000000000E+00 0.  1.
</event>
<event>
12    1  0.1594973E-001  0.1748881E+03  0.7818608E-02  0.1173470E+00
         21   -1    0    0  503  502  0.00000000000E+00  0.00000000000E+00  0.43838144753E+03  0.43838144753E+03  0.00000000000E+00 0.  1.
         21   -1    0    0  501  503 -0.00000000000E+00 -0.00000000000E+00 -0.80593055015E+02  0.80593055015E+02  0.00000000000E+00 0.  1.
          6    2    1    2  501    0 -0.19416918991E+02 -0.19340643946E+02  0.27929549925E+03  0.32953272250E+03  0.17272742123E+03 0.  0.
         24    2    3    3    0    0 -0.28582033161E+02 -0.61438306069E+02  0.10238564314E+03  0.14739156937E+03  0.81546653692E+02 0.  0.
         -6    2    1    2    0  502  0.19416918991E+02  0.19340643946E+02  0.78492893273E+02  0.18944178005E+03  0.17022331357E+03 0.  0.
        -24    2    5    5    0    0  0.86212614836E+01  0.78995308828E+02  0.38806887122E+02  0.11683121369E+03  0.76347711414E+02 0.  0.
          5    1    3    3  501    0  0.91651141700E+01  0.42097662123E+02  0.17690985610E+03  0.18214115312E+03  0.47000000000E+01 0. -1.
        -11    1    4    4    0    0  0.68810163167E+01 -0.10417800512E+01  0.69796296047E+02  0.70142402533E+02  0.00000000000E+00 0.  1.
         12    1    4    4    0    0 -0.35463049477E+02 -0.60396526018E+02  0.32589347094E+02  0.77249166839E+02  0.00000000000E+00 0. -1.
         -5    1    5    5    0  502  0.10795657507E+02 -0.59654664882E+02  0.39686006151E+02  0.72610566362E+02  0.47000000000E+01 0.  1.
         13    1    6    6    0    0 -0.18486943437E+02  0.49970934274E+01 -0.12431361311E+02  0.22831486251E+02  0.00000000000E+00 0. -1.
        -14    1    6    6    0    0  0.27108204920E+02  0.73998215400E+02  0.51238248433E+02  0.93999727441E+02  0.00000000000E+00 0.  1.
</event>
<event>
12    1  0.1594973E-001  0.2117084E+03  0.7818608E-02  0.1140242E+00
         21   -1    0    0  501  502  0.00000000000E+00  0.00000000000E+00  0.35293135362E+03  0.35293135362E+03  0.00000000000E+00 0.  1.
         21   -1    0    0  502  503 -0.00000000000E+00 -0.00000000000E+00 -0.17549271573E+03  0.17549271573E+03  0.00000000000E+00 0.  1.
         -6    2    1    2    0  503  0.91487136921E+02 -0.79128424919E+02 -0.50253187526E+02  0.21759095066E+03  0.17375049669E+03 0.  0.
        -24    2    3    3    0    0 -0.33848940560E+01 -0.57219223556E+02 -0.66254190497E+02  0.11880412227E+03  0.80245278106E+02 0.  0.
          6    2    1    2  501    0 -0.91487136921E+02  0.79128424919E+02  0.22769182541E+03  0.31083311869E+03  0.17361583011E+03 0.  0.
         24    2    5    5    0    0 -0.79570937938E+02  0.65677190703E+02  0.24962366091E+03  0.28209243484E+03  0.81358110620E+02 0.  0.
          5    1    5    5  501    0 -0.11916198983E+02  0.13451234216E+02 -0.21931835499E+02  0.28740683855E+02  0.47000000000E+01 0. -1.
        -11    1    6    6    0    0 -0.11691845004E+02  0.61388742473E+02  0.13594429353E+03  0.14961994481E+03  0.00000000000E+00 0.  1.
         12    1    6    6    0    0 -0.67879092935E+02  0.42884482298E+01  0.11367936738E+03  0.13247249002E+03  0.00000000000E+00 0. -1.
         -5    1    3    3    0  503  0.94872030977E+02 -0.21909201362E+02  0.16001002971E+02  0.98786828384E+02  0.47000000000E+01 0.  1.
         13    1    4    4    0    0 -0.73781101578E+01  0.32803566816E+01  0.15229562076E+02  0.17237656758E+02  0.00000000000E+00 0. -1.
        -14    1    4    4    0    0  0.39932161018E+01 -0.60499580238E+02 -0.81483752573E+02  0.10156646551E+03  0.00000000000E+00 0.  1.
</event>
<event>
12    1  0.1594973E-001  0.1864043E+03  0.7818608E-02  0.1161942E+00
         21   -1    0    0  501  502  0.00000000000E+00  0.00000000000E+00  0.14607132918E+03  0.14607132918E+03  0.00000000000E+00 0.  1.
         21   -1    0    0  502  503 -0.00000000000E+00 -0.00000000000E+00 -0.28227366010E+03  0.28227366010E+03  0.00000000000E+00 0.  1.
         -6    2    1    2    0  503  0.30330857864E+02  0.63918312794E+02 -0.15420370563E+03  0.24192013747E+03  0.17245596085E+03 0.  0.
        -24    2    3    3    0    0 -0.45488878832E+02  0.50570224353E+02 -0.58144918372E+02  0.11872847968E+03  0.78032266832E+02 0.  0.
          6    2    1    2  501    0 -0.30330857864E+02 -0.63918312794E+02  0.18001374708E+02  0.18642485181E+03  0.17153618927E+03 0.  0.
         24    2    5    5    0    0 -0.15519745001E+02  0.20797131451E+02 -0.22057029375E+02  0.91436214089E+02  0.84856853233E+02 0.  0.
          5    1    5    5  501    0 -0.14811112863E+02 -0.84715444245E+02  0.40058404083E+02  0.94988637718E+02  0.47000000000E+01 0. -1.
        -11    1    6    6    0    0 -0.18399792749E+02  0.71675440372E+01  0.30903836728E+02  0.36673876060E+02  0.00000000000E+00 0.  1.
         12    1    6    6    0    0  0.28800477486E+01  0.13629587414E+02 -0.52960866102E+02  0.54762338029E+02  0.00000000000E+00 0. -1.
         -5    1    3    3    0  503  0.75819736696E+02  0.13348088441E+02 -0.96058787258E+02  0.12319165778E+03  0.47000000000E+01 0.  1.
         11    1    4    4    0    0 -0.34036662238E+02  0.42682459245E+02 -0.77560488555E+02  0.94846803259E+02  0.00000000000E+00 0. -1.
        -12    1    4    4    0    0 -0.11452216593E+02  0.78877651080E+01  0.19415570183E+02  0.23881676424E+02  0.00000000000E+00 0.  1.
</event>
<event>
12    1  0.1594973E-001  0.2603297E+03  0.7818608E-02  0.1107061E+00
         21   -1    0    0  501  502  0.00000000000E+00  0.00000000000E+00  0.42712593345E+03  0.42712593345E+03  0.00000000000E+00 0. -1.
         21   -1    0    0  502  503 -0.00000000000E+00 -0.00000000000E+00 -0.66116973599E+03  0.66116973599E+03  0.00000000000E+00 0. -1.
         -6    2    1    2    0  503  0.54863909195E+01  0.19501090574E+03 -0.59158427860E+03  0.64602117354E+03  0.17120760538E+03 0.  0.
        -24    2    3    3    0    0 -0.89104160496E+01  0.11501317470E+03 -0.18366311786E+03  0.23005402532E+03  0.76715629675E+02 0.  0.
          6    2    1    2  501    0 -0.54863909195E+01 -0.19501090574E+03  0.35754047606E+03  0.44227449589E+03  0.17237222471E+03 0.  0.
         24    2    5    5    0    0 -0.67713193476E+02 -0.13465500243E+03  0.20108602570E+03  0.26334687069E+03  0.78733336787E+02 0.  0.
          5    1    5    5  501    0  0.62226802556E+02 -0.60355903305E+02  0.15645445036E+03  0.17892762520E+03  0.47000000000E+01 0. -1.
        -11    1    6    6    0    0 -0.52675811449E+01 -0.60441406254E+01 -0.71586495128E+01  0.10748270087E+02  0.00000000000E+00 0.  1.
         12    1    6    6    0    0 -0.62445612331E+02 -0.12861086181E+03  0.20824467521E+03  0.25259860060E+03  0.00000000000E+00 0. -1.
         -5    1    3    3    0  503  0.14396806969E+02  0.79997731042E+02 -0.40792116074E+03  0.41596714823E+03  0.47000000000E+01 0.  1.
         11    1    4    4    0    0  0.90139084627E+01  0.20554895230E+02 -0.10036704651E+03  0.10284599306E+03  0.00000000000E+00 0. -1.
        -12    1    4    4    0    0 -0.17924324512E+02  0.94458279467E+02 -0.83296071348E+02  0.12720803226E+03  0.00000000000E+00 0.  1.
</event>
<event>
12    1  0.1594973E-001  0.1849645E+03  0.7818608E-02  0.1165070E+00
         21   -1    0    0  503  502  0.00000000000E+00  0.00000000000E+00  0.17014348639E+04  0.17014348639E+04  0.00000000000E+00 0.  1.
         21   -1    0    0  501  503 -0.00000000000E+00 -0.00000000000E+00 -0.19249749040E+02  0.19249749040E+02  0.00000000000E+00 0.  1.
          6    2    1    2  501    0 -0.57329389627E+02  0.45010157028E+02  0.89686671837E+03  0.91574111222E+03  0.16999794394E+03 0.  0.
         24    2    3    3    0    0  0.86320251351E+01  0.53522703406E+02  0.72317883854E+03  0.72969557671E+03  0.80801055216E+02 0.  0.
         -6    2    1    2    0  502  0.57329389627E+02 -0.45010157028E+02  0.78531839648E+03  0.80494350071E+03  0.16092384016E+03 0.  0.
        -24    2    5    5    0    0 -0.24514837264E+02  0.21132660398E+01  0.41525695190E+03  0.42299238179E+03  0.76673175319E+02 0.  0.
          5    1    3    3  501    0 -0.65961414762E+02 -0.85125463779E+01  0.17368787984E+03  0.18604553551E+03  0.47000000000E+01 0. -1.
        -11    1    4    4    0    0  0.15989552253E+02  0.71694550655E+01  0.54972439646E+03  0.55000361720E+03  0.00000000000E+00 0.  1.
         12    1    4    4    0    0 -0.73575271182E+01  0.46353248340E+02  0.17345444208E+03  0.17969195951E+03  0.00000000000E+00 0. -1.
         -5    1    5    5    0  502  0.81844226891E+02 -0.47123423068E+02  0.37006144458E+03  0.38195111892E+03  0.47000000000E+01 0.  1.
         11    1    6    6    0    0  0.12592874074E+02  0.29439130795E+02  0.22314344376E+03  0.22542901187E+03  0.00000000000E+00 0. -1.
        -12    1    6    6    0    0 -0.37107711338E+02 -0.27325864755E+02  0.19211350814E+03  0.19756336992E+03  0.00000000000E+00 0.  1.
</event>
<event>
12    1  0.1594973E-001  0.1866362E+03  0.7818608E-02  0.1161586E+00
         21   -1    0    0  501  502  0.00000000000E+00  0.00000000000E+00  0.10221193562E+03  0.10221193562E+03  0.00000000000E+00 0. -1.
         21   -1    0    0  502  503 -0.00000000000E+00 -0.00000000000E+00 -0.36901274665E+03  0.36901274665E+03  0.00000000000E+00 0.  1.
         -6    2    1    2    0  503 -0.68166401453E+02 -0.19073734597E+02 -0.19898056509E+03  0.27264814664E+03  0.17243341017E+03 0.  0.
        -24    2    3    3    0    0 -0.62554141119E+01 -0.67596711441E+02 -0.13386029505E+03  0.17042197971E+03  0.80725627736E+02 0.  0.
          6    2    1    2  501    0  0.68166401453E+02  0.19073734597E+02 -0.67820245941E+02  0.19857653563E+03  0.17269218021E+03 0.  0.
         24    2    5    5    0    0  0.26546658858E+02 -0.32978032535E+02  0.16002956277E+02  0.91385077642E+02  0.79390566691E+02 0.  0.
          5    1    5    5  501    0  0.41619742595E+02  0.52051767132E+02 -0.83823202219E+02  0.10719145799E+03  0.47000000000E+01 0. -1.
        -13    1    6    6    0    0  0.44064584972E+02 -0.43632594727E+02 -0.47729408237E+01  0.62195433397E+02  0.00000000000E+00 0.  1.
         14    1    6    6    0    0 -0.17517926113E+02  0.10654562192E+02  0.20775897101E+02  0.29189644245E+02  0.00000000000E+00 0. -1.
         -5    1    3    3    0  503 -0.61910987341E+02  0.48522976844E+02 -0.65120270040E+02  0.10222616693E+03  0.47000000000E+01 0.  1.
         11    1    4    4    0    0  0.21360276881E+02  0.96432072026E+01 -0.30781013723E+02  0.38687513223E+02  0.00000000000E+00 0. -1.
        -12    1    4    4    0    0 -0.27615690993E+02 -0.77239918643E+02 -0.10307928133E+03  0.13173446648E+03  0.00000000000E+00 0.  1.
</event>
<event>
12    1  0.1594973E-001  0.1954897E+03  0.7818608E-02  0.1153730E+00
         21   -1    0    0  503  502  0.00000000000E+00  0.00000000000E+00  0.66142836236E+02  0.66142836236E+02  0.00000000000E+00 0.  1.
         21   -1    0    0  501  503 -0.00000000000E+00 -0.00000000000E+00 -0.57726407967E+03  0.57726407967E+03  0.00000000000E+00 0.  1.
          6    2    1    2  501    0 -0.39545472099E+02  0.83823186768E+02 -0.27004457665E+03  0.33302941383E+03  0.17144779409E+03 0.  0.
         24    2    3    3    0    0 -0.84486230569E+02  0.23545573422E+02 -0.15758859780E+03  0.19767247969E+03  0.80919255349E+02 0.  0.
         -6    2    1    2    0  502  0.39545472099E+02 -0.83823186768E+02 -0.24107666679E+03  0.31037750207E+03  0.17212223424E+03 0.  0.
        -24    2    5    5    0    0  0.91017845206E+02 -0.38488389715E+02 -0.10222536879E+03  0.15543744278E+03  0.62810574791E+02 0.  0.
          5    1    3    3  501    0  0.44940758470E+02  0.60277613346E+02 -0.11245597885E+03  0.13535693414E+03  0.47000000000E+01 0. -1.
        -13    1    4    4    0    0  0.13055433174E+02  0.90972354496E+01 -0.46430852072E+02  0.49081850539E+02  0.00000000000E+00 0.  1.
         14    1    4    4    0    0 -0.97541663743E+02  0.14448337972E+02 -0.11115774573E+03  0.14859062915E+03  0.00000000000E+00 0. -1.
         -5    1    5    5    0  502 -0.51472373107E+02 -0.45334797053E+02 -0.13885129800E+03  0.15494005929E+03  0.47000000000E+01 0.  1.
         11    1    6    6    0    0  0.67468495099E+02 -0.35386197217E+01 -0.88030075662E+02  0.11096762538E+03  0.00000000000E+00 0. -1.
        -12    1    6    6    0    0  0.23549350106E+02 -0.34949769993E+02 -0.14195293123E+02  0.44469817403E+02  0.00000000000E+00 0.  1.
</event>
<event>
12    1  0.1594973E-001  0.2971053E+03  0.7818608E-02  0.1086704E+00
         21   -1    0    0  501  502  0.00000000000E+00  0.00000000000E+00  0.25105115114E+03  0.25105115114E+03  0.00000000000E+00 0. -1.
         21   -1    0    0  502  503 -0.00000000000E+00 -0.00000000000E+00 -0.13727912789E+04  0.13727912789E+04  0.00000000000E+00 0. -1.
         -6    2    1    2    0  503  0.24119372025E+03 -0.21548102916E+02 -0.12611458377E+04  0.12956572481E+04  0.17204693903E+03 0.  0.
        -24    2    3    3    0    0  0.87707706353E+02  0.39430867145E+02 -0.41807504057E+03  0.43654907668E+03  0.80875965341E+02 0.  0.
          6    2    1    2  501    0 -0.24119372025E+03  0.21548102916E+02  0.13940570991E+03  0.32818518196E+03  0.17214188994E+03 0.  0.
         24    2    5    5    0    0 -0.18162931006E+03 -0.49070889129E+02  0.94349440631E+02  0.22529145814E+03  0.80357113758E+02 0.  0.
          5    1    5    5  501    0 -0.59564410190E+02  0.70618992046E+02  0.45056269278E+02  0.10289372381E+03  0.47000000000E+01 0. -1.
        -13    1    6    6    0    0 -0.27383669268E+02 -0.40647593351E+02  0.13004064961E+02  0.50706980716E+02  0.00000000000E+00 0.  1.
         14    1    6    6    0    0 -0.15424564079E+03 -0.84232957779E+01  0.81345375670E+02  0.17458447743E+03  0.00000000000E+00 0. -1.
         -5    1    3    3    0  503  0.15348601390E+03 -0.60978970061E+02 -0.84307079713E+03  0.85910817143E+03  0.47000000000E+01 0.  1.
         13    1    4    4    0    0  0.17915687370E+02 -0.23500015999E+02 -0.69340069876E+02  0.75374185875E+02  0.00000000000E+00 0. -1.
        -14    1    4    4    0    0  0.69792018982E+02  0.62930883144E+02 -0.34873497069E+03  0.36117489081E+03  0.00000000000E+00 0.  1.
</event>
<event>
12    1  0.1594973E-001  0.1808254E+03  0.7818608E-02  0.1169073E+00
         21   -1    0    0  501  502  0.00000000000E+00  0.00000000000E+00  0.10866720558E+03  0.10866720558E+03  0.00000000000E+00 0. -1.
         21   -1    0    0  502  503 -0.00000000000E+00 -0.00000000000E+00 -0.47818571947E+03  0.47818571947E+03  0.00000000000E+00 0. -1.
         -6    2    1    2    0  503  0.42173529429E+02 -0.41851693851E+02 -0.36757468512E+03  0.40601703066E+03  0.16189042338E+03 0.  0.
        -24    2    3    3    0    0  0.70003919013E+01 -0.38084645018E+02 -0.10114867004E+03  0.13721180048E+03  0.84241195782E+02 0.  0.
          6    2    1    2  501    0 -0.42173529429E+02  0.41851693851E+02 -0.19438287657E+01  0.18083589440E+03  0.17078545421E+03 0.  0.
         24    2    5    5    0    0 -0.56428374438E+02  0.78183797940E+02  0.32114216525E+02  0.12882375309E+03  0.79166714951E+02 0.  0.
          5    1    5    5  501    0  0.14254845009E+02 -0.36332104089E+02 -0.34058045291E+02  0.52012141302E+02  0.47000000000E+01 0. -1.
        -11    1    6    6    0    0  0.70335650322E+01  0.33458845603E+02 -0.15721670621E+02  0.37631586643E+02  0.00000000000E+00 0.  1.
         12    1    6    6    0    0 -0.63461939470E+02  0.44724952337E+02  0.47835887146E+02  0.91192166451E+02  0.00000000000E+00 0. -1.
         -5    1    3    3    0  503  0.35173137528E+02 -0.37670488329E+01 -0.26642601508E+03  0.26880523018E+03  0.47000000000E+01 0.  1.
         11    1    4    4    0    0 -0.88113766948E+01 -0.62684323212E+02 -0.65242991424E+02  0.90904414996E+02  0.00000000000E+00 0. -1.
        -12    1    4    4    0    0  0.15811768596E+02  0.24599678194E+02 -0.35905678614E+02  0.46307385481E+02  0.00000000000E+00 0.  1.
</event>
<event>
12    1  0.1594973E-001  0.2699603E+03  0.7818608E-02  0.1101356E+00
         21   -1    0    0  501  502  0.00000000000E+00  0.00000000000E+00  0.55405968823E+02  0.55405968823E+02  0.00000000000E+00 0. -1.
         21   -1    0    0  502  503 -0.00000000000E+00 -0.00000000000E+00 -0.13372128642E+04  0.13372128642E+04  0.00000000000E+00 0.  1.
         -6    2    1    2    0  503  0.20872963491E+03  0.48550571710E+01 -0.54779052067E+03  0.61053277228E+03  0.17054084384E+03 0.  0.
        -24    2    3    3    0    0  0.11509116413E+03  0.16424571736E+02 -0.17025160678E+03  0.22135448617E+03  0.80600597501E+02 0.  0.
          6    2    1    2  501    0 -0.20872963491E+03 -0.48550571710E+01 -0.73401637469E+03  0.78208606073E+03  0.17113426309E+03 0.  0.
         24    2    5    5    0    0 -0.28852272129E+02 -0.31335795097E+02 -0.36380472846E+03  0.36961079101E+03  0.49435520852E+02 0.  0.
          5    1    5    5  501    0 -0.17987736279E+03  0.26480737926E+02 -0.37021164623E+03  0.41247526972E+03  0.47000000000E+01 0. -1.
        -13    1    6    6    0    0 -0.36428290407E+02 -0.33199914944E+02 -0.21397765548E+03  0.21958071805E+03  0.00000000000E+00 0.  1.
         14    1    6    6    0    0  0.75760182772E+01  0.18641198471E+01 -0.14982707298E+03  0.15003007297E+03  0.00000000000E+00 0. -1.
         -5    1    3    3    0  503  0.93638470784E+02 -0.11569514565E+02 -0.37753891389E+03  0.38917828611E+03  0.47000000000E+01 0.  1.
         11    1    4    4    0    0  0.56010870216E+02 -0.32440582831E+02 -0.81344538800E+02  0.10395452366E+03  0.00000000000E+00 0. -1.
        -12    1    4    4    0    0  0.59080293915E+02  0.48865154567E+02 -0.88907067982E+02  0.11739996251E+03  0.00000000000E+00 0.  1.
</event>
<event>
12    1  0.1594973E-001  0.2592501E+03  0.7818608E-02  0.1107839E+00
         21   -1    0    0  501  502  0.00000000000E+00  0.00000000000E+00  0.22418394744E+04  0.22418394744E+04  0.00000000000E+00 0. -1.
         21   -1    0    0  502  503 -0.00000000000E+00 -0.00000000000E+00 -0.38891934273E+02  0.38891934273E+02  0.00000000000E+00 0.  1.
         -6    2    1    2    0  503 -0.59551903489E+02  0.18376157707E+03  0.54728218458E+03  0.60489181055E+03  0.17047453327E+03 0.  0.
        -24    2    3    3    0    0 -0.91059464016E+02  0.12491889680E+03  0.28387556449E+03  0.33311924958E+03  0.80539068512E+02 0.  0.
          6    2    1    2  501    0  0.59551903489E+02 -0.18376157707E+03  0.16556653555E+04  0.16758395981E+04  0.17290414302E+03 0.  0.
         24    2    5    5    0    0  0.51305371740E+02 -0.17130244154E+03  0.94817844507E+03  0.96817933088E+03  0.79699971132E+02 0.  0.
          5    1    5    5  501    0  0.82465317496E+01 -0.12459135524E+02  0.70748691045E+03  0.70766026722E+03  0.47000000000E+01 0. -1.
        -13    1    6    6    0    0 -0.55652229167E+01 -0.13380876441E+01  0.36312572976E+01  0.67785112095E+01  0.00000000000E+00 0.  1.
         14    1    6    6    0    0  0.56870594656E+02 -0.16996435390E+03  0.94454718777E+03  0.96140081967E+03  0.00000000000E+00 0. -1.
         -5    1    3    3    0  503  0.31507560527E+02  0.58842680261E+02  0.26340662009E+03  0.27177256097E+03  0.47000000000E+01 0.  1.
         13    1    4    4    0    0 -0.22415117150E+02  0.32039684998E+02  0.15592654229E+03  0.16075467484E+03  0.00000000000E+00 0. -1.
        -14    1    4    4    0    0 -0.68644346867E+02  0.92879211806E+02  0.12794902220E+03  0.17236457474E+03  0.00000000000E+00 0.  1.
</event>
<event>
12    1  0.1594973E-001  0.1897038E+03  0.7818608E-02  0.1160222E+00
         21   -1    0    0  501  502  0.00000000000E+00  0.00000000000E+00  0.34715408879E+03  0.34715408879E+03  0.00000000000E+00 0. -1.
         21   -1    0    0  502  503 -0.00000000000E+00 -0.00000000000E+00 -0.11174086113E+03  0.11174086113E+03  0.00000000000E+00 0. -1.
         -6    2    1    2    0  503 -0.37086978549E+02 -0.72683324134E+02  0.41983961589E+02  0.18796612915E+03  0.16404360119E+03 0.  0.
        -24    2    3    3    0    0 -0.87302685187E+01 -0.19458935057E+01 -0.28475586262E+02  0.84069425743E+02  0.78592653867E+02 0.  0.
          6    2    1    2  501    0  0.37086978549E+02  0.72683324134E+02  0.19342926608E+03  0.27092882077E+03  0.17125780380E+03 0.  0.
         24    2    5    5    0    0  0.13565151745E+02  0.10739365740E+03  0.18422230729E+03  0.22774385045E+03  0.78816190725E+02 0.  0.
          5    1    5    5  501    0  0.23521826804E+02 -0.34710333266E+02  0.92069587872E+01  0.43184970322E+02  0.47000000000E+01 0. -1.
        -13    1    6    6    0    0 -0.60164426933E+00 -0.79592465430E+01 -0.20024225317E+01  0.82292938552E+01  0.00000000000E+00 0.  1.
         14    1    6    6    0    0  0.14166796014E+02  0.11535290394E+03  0.18622472982E+03  0.21951455659E+03  0.00000000000E+00 0. -1.
         -5    1    3    3    0  503 -0.28356710030E+02 -0.70737430628E+02  0.70459547852E+02  0.10389670341E+03  0.47000000000E+01 0.  1.
         13    1    4    4    0    0 -0.11798430428E+02 -0.38617132235E+02 -0.24065500501E+02  0.47006746079E+02  0.00000000000E+00 0. -1.
        -14    1    4    4    0    0  0.30681619094E+01  0.36671238729E+02 -0.44100857616E+01  0.37062679664E+02  0.00000000000E+00 0.  1.
</event>
<event>
12    1  0.1594973E-001  0.2157252E+03  0.7818608E-02  0.1137339E+00
         21   -1    0    0  501  502  0.00000000000E+00  0.00000000000E+00  0.88270067268E+03  0.88270067268E+03  0.00000000000E+00 0. -1.
         21   -1    0    0  502  503 -0.00000000000E+00 -0.00000000000E+00 -0.11081733112E+03  0.11081733112E+03  0.00000000000E+00 0. -1.
         -6    2    1    2    0  503 -0.14045275586E+02 -0.12664447857E+03  0.25871390319E+02  0.21727096211E+03  0.17407253781E+03 0.  0.
        -24    2    3    3    0    0 -0.76915139379E+02 -0.85601478902E+02  0.13281352549E+02  0.14099680760E+03  0.80375080537E+02 0.  0.
          6    2    1    2  501    0  0.14045275586E+02  0.12664447857E+03  0.74601195125E+03  0.77624704169E+03  0.17259647914E+03 0.  0.
         24    2    5    5    0    0  0.24724683817E+02  0.40392926646E+01  0.20007796942E+03  0.21659350254E+03  0.79081765410E+02 0.  0.
          5    1    5    5  501    0 -0.10679408231E+02  0.12260518590E+03  0.54593398183E+03  0.55965353915E+03  0.47000000000E+01 0. -1.
        -11    1    6    6    0    0 -0.15959307771E+02 -0.12648089324E+00  0.42158404891E+01  0.16507235170E+02  0.00000000000E+00 0.  1.
         12    1    6    6    0    0  0.40683991588E+02  0.41657735578E+01  0.19586212893E+03  0.20008626737E+03  0.00000000000E+00 0. -1.
         -5    1    3    3    0  503  0.62869863793E+02 -0.41042999666E+02  0.12590037771E+02  0.76274154509E+02  0.47000000000E+01 0.  1.
         13    1    4    4    0    0 -0.43924404829E+02 -0.22911395797E+02  0.41614792751E+02  0.64699894688E+02  0.00000000000E+00 0. -1.
        -14    1    4    4    0    0 -0.32990734550E+02 -0.62690083105E+02 -0.28333440202E+02  0.76296912910E+02  0.00000000000E+00 0.  1.
</event>
<event>
12    1  0.1594973E-001  0.3676590E+03  0.7818608E-02  0.1055653E+00
         21   -1    0    0  503  502  0.00000000000E+00  0.00000000000E+00  0.89320252996E+02  0.89320252996E+02  0.00000000000E+00 0.  1.
         21   -1    0    0  501  503 -0.00000000000E+00 -0.00000000000E+00 -0.17720153774E+04  0.17720153774E+04  0.00000000000E+00 0. -1.
          6    2    1    2  501    0 -0.28403051201E+03  0.15572388044E+03 -0.11980871047E+04  0.12530445517E+04  0.17258238473E+03 0.  0.
         24    2    3    3    0    0 -0.13920712031E+03  0.94492437004E+01 -0.54227347167E+03  0.56567005745E+03  0.80337944140E+02 0.  0.
         -6    2    1    2    0  502  0.28403051201E+03 -0.15572388044E+03 -0.48460801976E+03  0.60829107870E+03  0.17392482549E+03 0.  0.
        -24    2    5    5    0    0  0.41347164376E+02 -0.47754349914E+02 -0.16045844809E+03  0.18918767672E+03  0.77813864580E+02 0.  0.
          5    1    3    3  501    0 -0.14482339170E+03  0.14627463674E+03 -0.65581363300E+03  0.68737449426E+03  0.47000000000E+01 0. -1.
        -11    1    4    4    0    0 -0.25426627163E+02 -0.12038160321E+01 -0.24131577938E+02  0.35075569784E+02  0.00000000000E+00 0.  1.
         12    1    4    4    0    0 -0.11378049315E+03  0.10653059733E+02 -0.51814189373E+03  0.53059448767E+03  0.00000000000E+00 0. -1.
         -5    1    5    5    0  502  0.24268334764E+03 -0.10796953053E+03 -0.32414957166E+03  0.41910340198E+03  0.47000000000E+01 0.  1.
         11    1    6    6    0    0  0.48227785073E+02 -0.69533762853E+01 -0.44204848426E+02  0.65790100465E+02  0.00000000000E+00 0. -1.
        -12    1    6    6    0    0 -0.68806206966E+01 -0.40800973629E+02 -0.11625359967E+03  0.12339757626E+03  0.00000000000E+00 0.  1.
</event>
<event>
12    1  0.1594973E-001  0.1919811E+03  0.7818608E-02  0.1160616E+00
         21   -1    0    0  503  502  0.00000000000E+00  0.00000000000E+00  0.91122208279E+02  0.91122208279E+02  0.00000000000E+00 0.  1.
         21   -1    0    0  501  503 -0.00000000000E+00 -0.00000000000E+00 -0.51344274844E+03  0.51344274844E+03  0.00000000000E+00 0.  1.
          6    2    1    2  501    0  0.59456540359E+02 -0.60510367056E+02 -0.44436940580E+02  0.18071033655E+03  0.15324816259E+03 0.  0.
         24    2    3    3    0    0  0.72368459618E+01 -0.82744022153E+02 -0.43985502307E+02  0.12375837699E+03  0.80513764783E+02 0.  0.
         -6    2    1    2    0  502 -0.59456540359E+02  0.60510367056E+02 -0.37788359958E+03  0.42385462016E+03  0.17222119350E+03 0.  0.
        -24    2    5    5    0    0 -0.19857544019E+02  0.82678968247E+02 -0.35548667279E+03  0.37302903882E+03  0.74496680606E+02 0.  0.
          5    1    3    3  501    0  0.52219694397E+02  0.22233655096E+02 -0.45143827291E+00  0.56951959566E+02  0.47000000000E+01 0. -1.
        -11    1    4    4    0    0  0.16396365364E+01  0.13334994228E+02  0.66695102304E+01  0.14999761523E+02  0.00000000000E+00 0.  1.
         12    1    4    4    0    0  0.55972094254E+01 -0.96079016381E+02 -0.50655012538E+02  0.10875861546E+03  0.00000000000E+00 0. -1.
         -5    1    5    5    0  502 -0.39598996340E+02 -0.22168601190E+02 -0.22396926782E+02  0.50825581346E+02  0.47000000000E+01 0.  1.
         13    1    6    6    0    0 -0.16231170004E+02  0.44822836512E+01 -0.11853676793E+02  0.20592508345E+02  0.00000000000E+00 0. -1.
        -14    1    6    6    0    0 -0.36263740150E+01  0.78196684595E+02 -0.34363299600E+03  0.35243653047E+03  0.00000000000E+00 0.  1.
</event>
<event>
12    1  0.1594973E-001  0.2577168E+03  0.7818608E-02  0.1108535E+00
         21   -1    0    0  501  502  0.00000000000E+00  0.00000000000E+00  0.13940556435E+03  0.13940556435E+03  0.00000000000E+00 0. -1.
         21   -1    0    0  502  503 -0.00000000000E+00 -0.00000000000E+00 -0.47633093828E+03  0.47633093828E+03  0.00000000000E+00 0.  1.
         -6    2    1    2    0  503 -0.19170035060E+03 -0.22519234543E+00 -0.16555632789E+03  0.30631169404E+03  0.17224657056E+03 0.  0.
        -24    2    3    3    0    0 -0.61269994065E+02  0.52273276615E+02 -0.96199200580E+02  0.14946569232E+03  0.81235456339E+02 0.  0.
          6    2    1    2  501    0  0.19170035060E+03  0.22519234543E+00 -0.17136904604E+03  0.30942480859E+03  0.17212578859E+03 0.  0.
         24    2    5    5    0    0  0.17767140435E+03 -0.47067415752E+02 -0.10542782329E+03  0.22694004047E+03  0.81266761304E+02 0.  0.
          5    1    5    5  501    0  0.14028946242E+02  0.47292608098E+02 -0.65941222759E+02  0.82484768123E+02  0.47000000000E+01 0. -1.
        -13    1    6    6    0    0  0.12047075150E+02  0.40747317446E+00 -0.41423504593E+02  0.43141682708E+02  0.00000000000E+00 0.  1.
         14    1    6    6    0    0  0.16562432920E+03 -0.47474888927E+02 -0.64004318692E+02  0.18379835776E+03  0.00000000000E+00 0. -1.
         -5    1    3    3    0  503 -0.13043035653E+03 -0.52498468961E+02 -0.69357127308E+02  0.15684600172E+03  0.47000000000E+01 0.  1.
         11    1    4    4    0    0 -0.78255983017E+02  0.43802525166E+02 -0.57975498771E+02  0.10678866301E+03  0.00000000000E+00 0. -1.
        -12    1    4    4    0    0  0.16985988952E+02  0.84707514498E+01 -0.38223701809E+02  0.42677029311E+02  0.00000000000E+00 0.  1.
</event>
<event>
12    1  0.1594973E-001  0.1758638E+03  0.7818608E-02  0.1172008E+00
         21   -1    0    0  503  502  0.00000000000E+00  0.00000000000E+00  0.43710050251E+03  0.43710050251E+03  0.00000000000E+00 0. -1.
         21   -1    0    0  501  503 -0.00000000000E+00 -0.00000000000E+00 -0.75667394650E+02  0.75667394650E+02  0.00000000000E+00 0. -1.
          6    2    1    2  501    0 -0.35459845150E+02  0.96931365168E+00  0.24778311968E+03  0.30384956079E+03  0.17224906678E+03 0.  0.
         24    2    3    3    0    0 -0.26223608312E+02 -0.65756731523E+02  0.13562643213E+03  0.17293399359E+03  0.80622649862E+02 0.  0.
         -6    2    1    2    0  502  0.35459845150E+02 -0.96931365168E+00  0.11364998818E+03  0.20891833637E+03  0.17167472519E+03 0.  0.
        -24    2    5    5    0    0  0.45939695162E+02  0.18620757245E+02  0.13873462416E+03  0.17508156501E+03  0.94599525750E+02 0.  0.
          5    1    3    3  501    0 -0.92362368385E+01  0.66726045174E+02  0.11215668755E+03  0.13091556721E+03  0.47000000000E+01 0. -1.
        -13    1    4    4    0    0  0.20616574841E+02  0.49472597421E+01  0.38805783560E+02  0.44219988408E+02  0.00000000000E+00 0.  1.
         14    1    4    4    0    0 -0.46840183153E+02 -0.70703991265E+02  0.96820648575E+02  0.12871400518E+03  0.00000000000E+00 0. -1.
         -5    1    5    5    0  502 -0.10479850012E+02 -0.19590070896E+02 -0.25084635979E+02  0.33836771362E+02  0.47000000000E+01 0.  1.
         13    1    6    6    0    0  0.21461817265E+02  0.33180098814E+02  0.14107513047E+03  0.14650502038E+03  0.00000000000E+00 0. -1.
        -14    1    6    6    0    0  0.24477877897E+02 -0.14559341569E+02 -0.23405063108E+01  0.28576544631E+02  0.00000000000E+00 0.  1.
</event>
<event>
12    1  0.1594973E-001  0.1963728E+03  0.7818608E-02  0.1152910E+00
         21   -1    0    0  503  502  0.00000000000E+00  0.00000000000E+00  0.34171146386E+03  0.34171146386E+03  0.00000000000E+00 0. -1.
         21   -1    0    0  501  503 -0.00000000000E+00 -0.00000000000E+00 -0.18065085955E+03  0.18065085955E+03  0.00000000000E+00 0.  1.
          6    2    1    2  501    0 -0.48106569647E+02 -0.81769905728E+02 -0.79753463512E+02  0.21163140690E+03  0.17154205874E+03 0.  0.
         24    2    3    3    0    0 -0.96315894689E+02 -0.37458308540E+02 -0.61821562358E+02  0.14357775347E+03  0.78184328802E+02 0.  0.
         -6    2    1    2    0  502  0.48106569647E+02  0.81769905728E+02  0.24081406782E+03  0.31073091651E+03  0.17193524272E+03 0.  0.
        -24    2    5    5    0    0  0.99980681257E+02  0.58724668826E+02  0.17204010218E+03  0.22143391349E+03  0.77398048614E+02 0.  0.
          5    1    3    3  501    0  0.48209325042E+02 -0.44311597188E+02 -0.17931901154E+02  0.68053653431E+02  0.47000000000E+01 0. -1.
        -13    1    4    4    0    0 -0.69750735464E+02 -0.29873031384E+02 -0.15980086427E-01  0.75878609352E+02  0.00000000000E+00 0.  1.
         14    1    4    4    0    0 -0.26565159225E+02 -0.75852771559E+01 -0.61805582272E+02  0.67699144117E+02  0.00000000000E+00 0. -1.
         -5    1    5    5    0  502 -0.51874111610E+02  0.23045236902E+02  0.68773965639E+02  0.89297003023E+02  0.47000000000E+01 0.  1.
         13    1    6    6    0    0  0.17171083670E+01  0.24162370645E+02  0.75942729722E+02  0.79712400629E+02  0.00000000000E+00 0. -1.
        -14    1    6    6    0    0  0.98263572890E+02  0.34562298181E+02  0.96097372460E+02  0.14172151286E+03  0.00000000000E+00 0.  1.
</event>
<event>
12    1  0.1594973E-001  0.1950108E+03  0.7818608E-02  0.1154243E+00
         21   -1    0    0  503  502  0.00000000000E+00  0.00000000000E+00  0.31781828659E+03  0.31781828659E+03  0.00000000000E+00 0.  1.
         21   -1    0    0  501  503 -0.00000000000E+00 -0.00000000000E+00 -0.28720225589E+03  0.28720225589E+03  0.00000000000E+00 0.  1.
          6    2    1    2  501    0  0.88257925040E+02 -0.27289683922E+02 -0.21616327041E+03  0.29112845704E+03  0.17174117399E+03 0.  0.
         24    2    3    3    0    0  0.77479158991E+02 -0.81657376818E+02 -0.17423772952E+03  0.22147309969E+03  0.77592526905E+02 0.  0.
         -6    2    1    2    0  502 -0.88257925040E+02  0.27289683922E+02  0.24677930111E+03  0.31389208545E+03  0.17056972085E+03 0.  0.
        -24    2    5    5    0    0 -0.69976927072E+02 -0.19846837906E+02  0.66126245256E+02  0.12623904613E+03  0.79201951734E+02 0.  0.
          5    1    3    3  501    0  0.10778766049E+02  0.54367692896E+02 -0.41925540887E+02  0.69655357346E+02  0.47000000000E+01 0. -1.
        -13    1    4    4    0    0  0.50093711267E+02 -0.16080970023E+02 -0.12324845188E+03  0.13400805348E+03  0.00000000000E+00 0.  1.
         14    1    4    4    0    0  0.27385447724E+02 -0.65576406795E+02 -0.50989277640E+02  0.87465046215E+02  0.00000000000E+00 0. -1.
         -5    1    5    5    0  502 -0.18280997968E+02  0.47136521828E+02  0.18065305585E+03  0.18765303932E+03  0.47000000000E+01 0.  1.
         13    1    6    6    0    0 -0.71504772064E+02  0.13900190014E+02  0.37339965291E+02  0.81856097624E+02  0.00000000000E+00 0. -1.
        -14    1    6    6    0    0  0.15278449916E+01 -0.33747027920E+02  0.28786279965E+02  0.44382948504E+02  0.00000000000E+00 0.  1.
</event>
<event>
12    1  0.1594973E-001  0.2079958E+03  0.7818608E-02  0.1143318E+00
         21   -1    0    0  503  502  0.00000000000E+00  0.00000000000E+00  0.52144689065E+02  0.52144689065E+02  0.00000000000E+00 0.  1.
         21   -1    0    0  501  503 -0.00000000000E+00 -0.00000000000E+00 -0.87399368056E+03  0.87399368056E+03  0.00000000000E+00 0.  1.
          6    2    1    2  501    0  0.11201761767E+03  0.30608712609E+02 -0.30379486716E+03  0.36817602739E+03  0.17256136842E+03 0.  0.
         24    2    3    3    0    0  0.86233966213E+02  0.64687423745E+02 -0.12373766220E+03  0.18305757262E+03  0.81106757596E+02 0.  0.
         -6    2    1    2    0  502 -0.11201761767E+03 -0.30608712609E+02 -0.51805412433E+03  0.55796234223E+03  0.17163059069E+03 0.  0.
        -24    2    5    5    0    0 -0.41648887629E+02  0.44392380428E+02 -0.30893814728E+03  0.32487758516E+03  0.79983455868E+02 0.  0.
          5    1    3    3  501    0  0.25783651457E+02 -0.34078711136E+02 -0.18005720497E+03  0.18511845477E+03  0.47000000000E+01 0. -1.
        -11    1    4    4    0    0  0.12291520326E+02  0.41012243139E+02 -0.87423635215E+02  0.97344632895E+02  0.00000000000E+00 0.  1.
         12    1    4    4    0    0  0.73942445888E+02  0.23675180605E+02 -0.36314026982E+02  0.85712939724E+02  0.00000000000E+00 0. -1.
         -5    1    5    5    0  502 -0.70368730042E+02 -0.75001093037E+02 -0.20911597704E+03  0.23308475707E+03  0.47000000000E+01 0.  1.
         11    1    6    6    0    0  0.77004017422E+01 -0.18454523661E+02 -0.77287526854E+02  0.79832496126E+02  0.00000000000E+00 0. -1.
        -12    1    6    6    0    0 -0.49349289371E+02  0.62846904088E+02 -0.23165062043E+03  0.24504508904E+03  0.00000000000E+00 0.  1.
</event>
<event>
12    1  0.1594973E-001  0.2000457E+03  0.7818608E-02  0.1149811E+00
         21   -1    0    0  501  502  0.00000000000E+00  0.00000000000E+00  0.74588906632E+02  0.74588906632E+02  0.00000000000E+00 0.  1.
         21   -1    0    0  502  503 -0.00000000000E+00 -0.00000000000E+00 -0.63850059558E+03  0.63850059558E+03  0.00000000000E+00 0.  1.
         -6    2    1    2    0  503 -0.10022116140E+03 -0.35319374290E+00 -0.42574116412E+03  0.47039749456E+03  0.17312959923E+03 0.  0.
        -24    2    3    3    0    0 -0.99013470760E+01  0.38996151776E+01 -0.32514139825E+03  0.33505290422E+03  0.80189002347E+02 0.  0.
          6    2    1    2  501    0  0.10022116140E+03  0.35319374290E+00 -0.13817052483E+03  0.24269200765E+03  0.17252220352E+03 0.  0.
         24    2    5    5    0    0  0.23446255067E+02 -0.80085389301E+00 -0.14335936693E+03  0.16558991850E+03  0.79484242342E+02 0.  0.
          5    1    5    5  501    0  0.76774906329E+02  0.11540476359E+01  0.51888421011E+01  0.77102089142E+02  0.47000000000E+01 0. -1.
        -11    1    6    6    0    0  0.34921849260E+02  0.29063783619E+02 -0.11166992184E+03  0.12055874302E+03  0.00000000000E+00 0.  1.
         12    1    6    6    0    0 -0.11475594192E+02 -0.29864637512E+02 -0.31689445085E+02  0.45031175486E+02  0.00000000000E+00 0. -1.
         -5    1    3    3    0  503 -0.90319814320E+02 -0.42528089205E+01 -0.10059976587E+03  0.13534459035E+03  0.47000000000E+01 0.  1.
         13    1    4    4    0    0 -0.50140073904E+01  0.41615277198E+02 -0.14478796212E+03  0.15073329274E+03  0.00000000000E+00 0. -1.
        -14    1    4    4    0    0 -0.48873396856E+01 -0.37715662020E+02 -0.18035343613E+03  0.18431961148E+03  0.00000000000E+00 0.  1.
</event>
<event>
12    1  0.1594973E-001  0.4772464E+03  0.7818608E-02  0.1019903E+00
         21   -1    0    0  503  502  0.00000000000E+00  0.00000000000E+00  0.76381406937E+03  0.76381406937E+03  0.00000000000E+00 0.  1.
         21   -1    0    0  501  503 -0.00000000000E+00 -0.00000000000E+00 -0.31503067938E+03  0.31503067938E+03  0.00000000000E+00 0. -1.
          6    2    1    2  501    0  0.37288483407E+03 -0.24395309617E+03  0.99378652530E+02  0.48736543201E+03  0.17056592604E+03 0.  0.
         24    2    3    3    0    0  0.10316671808E+03 -0.11913136624E+03  0.62713481330E+02  0.18787461222E+03  0.80797493993E+02 0.  0.
         -6    2    1    2    0  502 -0.37288483407E+03  0.24395309617E+03  0.34940473745E+03  0.59147931674E+03  0.17090318596E+03 0.  0.
        -24    2    5    5    0    0 -0.19313079745E+03  0.20422739226E+03  0.19592014070E+03  0.35175185342E+03  0.79601081512E+02 0.  0.
          5    1    3    3  501    0  0.26971811599E+03 -0.12482172993E+03  0.36665171200E+02  0.29949081978E+03  0.47000000000E+01 0. -1.
        -13    1    4    4    0    0  0.10274662846E+03 -0.62887966386E+02  0.48499906173E+02  0.12986149111E+03  0.00000000000E+00 0.  1.
         14    1    4    4    0    0  0.42008962747E+00 -0.56243399852E+02  0.14213575158E+02  0.58013121110E+02  0.00000000000E+00 0. -1.
         -5    1    5    5    0  502 -0.17975403662E+03  0.39725703909E+02  0.15348459675E+03  0.23972746333E+03  0.47000000000E+01 0.  1.
         13    1    6    6    0    0 -0.35930499623E+02  0.37832000702E+01  0.14091823532E+02  0.38780057973E+02  0.00000000000E+00 0. -1.
        -14    1    6    6    0    0 -0.15720029782E+03  0.20044419219E+03  0.18182831717E+03  0.31297179545E+03  0.00000000000E+00 0.  1.
</event>
<event>
12    1  0.1594973E-001  0.1835974E+03  0.7818608E-02  0.1165650E+00
         21   -1    0    0  501  502  0.00000000000E+00  0.00000000000E+00  0.32825571815E+03  0.32825571815E+03  0.00000000000E+00 0.  1.
         21   -1    0    0  502  503 -0.00000000000E+00 -0.00000000000E+00 -0.11603060836E+03  0.11603060836E+03  0.00000000000E+00 0.  1.
         -6    2    1    2    0  503  0.27490044331E+02 -0.57212799801E+02  0.24164289593E+02  0.18518075056E+03  0.17227591384E+03 0.  0.
        -24    2    3    3    0    0  0.21241116324E+02  0.16774490230E+02  0.59643487379E+02  0.10275483435E+03  0.79174755139E+02 0.  0.
          6    2    1    2  501    0 -0.27490044331E+02  0.57212799801E+02  0.18806082019E+03  0.25910557595E+03  0.16655275560E+03 0.  0.
         24    2    5    5    0    0  0.39518608372E+02 -0.18048138276E+01  0.10135089094E+03  0.13455060782E+03  0.79163660914E+02 0.  0.
          5    1    5    5  501    0 -0.67008652703E+02  0.59017613628E+02  0.86709929253E+02  0.12455496813E+03  0.47000000000E+01 0. -1.
        -11    1    6    6    0    0  0.36774781027E+02  0.31292167923E+02  0.32783654659E+02  0.58363964102E+02  0.00000000000E+00 0.  1.
         12    1    6    6    0    0  0.27438273449E+01 -0.33096981751E+02  0.68567236279E+02  0.76186643714E+02  0.00000000000E+00 0. -1.
         -5    1    3    3    0  503  0.62489280067E+01 -0.73987290031E+02 -0.35479197786E+02  0.82425916209E+02  0.47000000000E+01 0.  1.
         13    1    4    4    0    0 -0.92865961690E+01 -0.12383153598E+02  0.58511947340E+02  0.60524634183E+02  0.00000000000E+00 0. -1.
        -14    1    4    4    0    0  0.30527712493E+02  0.29157643829E+02  0.11315400390E+01  0.42230200172E+02  0.00000000000E+00 0.  1.
</event>
<event>
12    1  0.1594973E-001  0.1840359E+03  0.7818608E-02  0.1164151E+00
         21   -1    0    0  501  502  0.00000000000E+00  0.00000000000E+00  0.64230953354E+02  0.64230953354E+02  0.00000000000E+00 0. -1.
         21   -1    0    0  502  503 -0.00000000000E+00 -0.00000000000E+00 -0.82623825336E+03  0.82623825336E+03  0.00000000000E+00 0. -1.
         -6    2    1    2    0  503 -0.60687566140E+02 -0.20982335953E+02 -0.65044054141E+03  0.67597493122E+03  0.17247020210E+03 0.  0.
        -24    2    3    3    0    0 -0.10188270971E+03  0.14641863861E+02 -0.48657973109E+03  0.50323646235E+03  0.76763478407E+02 0.  0.
          6    2    1    2  501    0  0.60687566140E+02  0.20982335953E+02 -0.11156675859E+03  0.21449427549E+03  0.17157334726E+03 0.  0.
         24    2    5    5    0    0  0.25252263409E+02 -0.89179744874E+01  0.87076190922E+01  0.85507046781E+02  0.80736765744E+02 0.  0.
          5    1    5    5  501    0  0.35435302732E+02  0.29900310440E+02 -0.12027437768E+03  0.12898722871E+03  0.47000000000E+01 0. -1.
        -11    1    6    6    0    0  0.40138486326E+02 -0.13429873411E+02 -0.24451459118E+02  0.48880808477E+02  0.00000000000E+00 0.  1.
         12    1    6    6    0    0 -0.14886222917E+02  0.45118989231E+01  0.33159078210E+02  0.36626238305E+02  0.00000000000E+00 0. -1.
         -5    1    3    3    0  503  0.41195143571E+02 -0.35624199814E+02 -0.16386081032E+03  0.17273846886E+03  0.47000000000E+01 0.  1.
         11    1    4    4    0    0 -0.60811553121E+02 -0.19237058936E+02 -0.15828275009E+03  0.17065033960E+03  0.00000000000E+00 0. -1.
        -12    1    4    4    0    0 -0.41071156591E+02  0.33878922797E+02 -0.32829698100E+03  0.33258612275E+03  0.00000000000E+00 0.  1.
</event>
<event>
12    1  0.1594973E-001  0.2113176E+03  0.7818608E-02  0.1140740E+00
         21   -1    0    0  503  502  0.00000000000E+00  0.00000000000E+00  0.42971682088E+03  0.42971682088E+03  0.00000000000E+00 0. -1.
         21   -1    0    0  501  503 -0.00000000000E+00 -0.00000000000E+00 -0.23469984855E+03  0.23469984855E+03  0.00000000000E+00 0. -1.
          6    2    1    2  501    0 -0.11111017764E+03  0.44780546170E+02 -0.15087084364E+03  0.25964812083E+03  0.17408149328E+03 0.  0.
         24    2    3    3    0    0 -0.12351143332E+03  0.77989743327E+02 -0.14555043168E+03  0.22349513062E+03  0.86183937147E+02 0.  0.
         -6    2    1    2    0  502  0.11111017764E+03 -0.44780546170E+02  0.34588781597E+03  0.40476854860E+03  0.17276697546E+03 0.  0.
        -24    2    5    5    0    0  0.63676574413E+02  0.27394604374E+01  0.81326676465E+02  0.13177993294E+03  0.81790657470E+02 0.  0.
          5    1    3    3  501    0  0.12401255681E+02 -0.33209197157E+02 -0.53204119542E+01  0.36152990217E+02  0.47000000000E+01 0. -1.
        -13    1    4    4    0    0 -0.13142507498E+01  0.29967367206E+02 -0.37250822805E+01  0.30226587473E+02  0.00000000000E+00 0.  1.
         14    1    4    4    0    0 -0.12219718257E+03  0.48022376121E+02 -0.14182534940E+03  0.19326854314E+03  0.00000000000E+00 0. -1.
         -5    1    5    5    0  502  0.47433603223E+02 -0.47520006608E+02  0.26456113950E+03  0.27298861566E+03  0.47000000000E+01 0.  1.
         11    1    6    6    0    0  0.76553533762E+02 -0.11592089033E+02  0.42230865483E+02  0.88194478620E+02  0.00000000000E+00 0. -1.
        -12    1    6    6    0    0 -0.12876959349E+02  0.14331549470E+02  0.39095810982E+02  0.43585454324E+02  0.00000000000E+00 0.  1.
</event>
<event>
12    1  0.1594973E-001  0.2117748E+03  0.7818608E-02  0.1140188E+00
         21   -1    0    0  501  502  0.00000000000E+00  0.00000000000E+00  0.73360693332E+03  0.73360693332E+03  0.00000000000E+00 0.  1.
         21   -1    0    0  502  503 -0.00000000000E+00 -0.00000000000E+00 -0.63486657637E+02  0.63486657637E+02  0.00000000000E+00 0.  1.
         -6    2    1    2    0  503  0.91556972744E+02 -0.82391202099E+02  0.25778320489E+03  0.33355240144E+03  0.17214538722E+03 0.  0.
        -24    2    3    3    0    0  0.69726905131E+02 -0.25954594362E+02  0.49785828860E+02  0.11688066590E+03  0.75146384070E+02 0.  0.
          6    2    1    2  501    0 -0.91556972744E+02  0.82391202099E+02  0.41233707079E+03  0.46354118952E+03  0.17227183458E+03 0.  0.
         24    2    5    5    0    0 -0.93340666161E+02  0.43823595348E+02  0.15177190665E+03  0.20008922688E+03  0.79799746850E+02 0.  0.
          5    1    5    5  501    0  0.17836934169E+01  0.38567606751E+02  0.26056516414E+03  0.26345196264E+03  0.47000000000E+01 0. -1.
        -13    1    6    6    0    0 -0.52618824588E+02  0.65535375338E+02  0.10313061945E+03  0.13303965871E+03  0.00000000000E+00 0.  1.
         14    1    6    6    0    0 -0.40721841573E+02 -0.21711779990E+02  0.48641287198E+02  0.67049568169E+02  0.00000000000E+00 0. -1.
         -5    1    3    3    0  503  0.21830067613E+02 -0.56436607737E+02  0.20799737603E+03  0.21667173554E+03  0.47000000000E+01 0.  1.
         11    1    4    4    0    0  0.67052619395E+01  0.21817455990E+01  0.47295763217E+02  0.47818508653E+02  0.00000000000E+00 0. -1.
        -12    1    4    4    0    0  0.63021643192E+02 -0.28136339961E+02  0.24900656433E+01  0.69062157249E+02  0.00000000000E+00 0.  1.
</event>
<event>
12    1  0.1594973E-001  0.1977698E+03  0.7818608E-02  0.1151784E+00
         21   -1    0    0  503  502  0.00000000000E+00  0.00000000000E+00  0.29393660827E+03  0.29393660827E+03  0.00000000000E+00 0. -1.
         21   -1    0    0  501  503 -0.00000000000E+00 -0.00000000000E+00 -0.17835660153E+03  0.17835660153E+03  0.00000000000E+00 0. -1.
          6    2    1    2  501    0  0.11588951463E+02  0.95204459869E+02 -0.61900279087E+02  0.20656374483E+03  0.17215906352E+03 0.  0.
         24    2    3    3    0    0 -0.19820800393E+02  0.12552337919E+03 -0.27970222178E+02  0.15107367237E+03  0.76758962364E+02 0.  0.
         -6    2    1    2    0  502 -0.11588951463E+02 -0.95204459869E+02  0.17748028583E+03  0.26572946497E+03  0.17295867635E+03 0.  0.
        -24    2    5    5    0    0 -0.13229959650E+02  0.17308691300E+02  0.56818757152E+02  0.10067433299E+03  0.80201792567E+02 0.  0.
          5    1    3    3  501    0  0.31409751856E+02 -0.30318919316E+02 -0.33930056910E+02  0.55490072464E+02  0.47000000000E+01 0. -1.
        -13    1    4    4    0    0  0.14704630973E+02  0.87270896746E+00 -0.15093919890E+02  0.21090619019E+02  0.00000000000E+00 0.  1.
         14    1    4    4    0    0 -0.34525431365E+02  0.12465067022E+03 -0.12876302288E+02  0.12998305335E+03  0.00000000000E+00 0. -1.
         -5    1    5    5    0  502  0.16410081874E+01 -0.11251315117E+03  0.12066152867E+03  0.16505513199E+03  0.47000000000E+01 0.  1.
         11    1    6    6    0    0  0.17384628426E+02  0.98684083561E+01  0.65098632843E+02  0.68098772287E+02  0.00000000000E+00 0. -1.
        -12    1    6    6    0    0 -0.30614588077E+02  0.74402829438E+01 -0.82798756908E+01  0.32575560699E+02  0.00000000000E+00 0.  1.
</event>
<event>
12    1  0.1594973E-001  0.1855482E+03  0.7818608E-02  0.1163650E+00
         21   -1    0    0  501  502  0.00000000000E+00  0.00000000000E+00  0.19959773367E+03  0.19959773367E+03  0.00000000000E+00 0.  1.
         21   -1    0    0  502  503 -0.00000000000E+00 -0.00000000000E+00 -0.38952967887E+03  0.38952967887E+03  0.00000000000E+00 0.  1.
         -6    2    1    2    0  503 -0.24025260944E+02  0.45899118194E+02 -0.31650153273E+03  0.36452107608E+03  0.17325834025E+03 0.  0.
        -24    2    3    3    0    0 -0.59309490792E+02 -0.59703464215E+01 -0.26763174258E+03  0.28486076836E+03  0.77237600826E+02 0.  0.
          6    2    1    2  501    0  0.24025260944E+02 -0.45899118194E+02  0.12656958754E+03  0.22460633647E+03  0.17816903120E+03 0.  0.
         24    2    5    5    0    0 -0.29540477047E+02 -0.83651563436E+02  0.86119272163E+02  0.14745159959E+03  0.80344392060E+02 0.  0.
          5    1    5    5  501    0  0.53565737991E+02  0.37752445242E+02  0.40450315373E+02  0.77154736874E+02  0.47000000000E+01 0. -1.
        -13    1    6    6    0    0  0.48143225754E+01 -0.38272597290E+02  0.81718277760E+02  0.90365072485E+02  0.00000000000E+00 0.  1.
         14    1    6    6    0    0 -0.34354799623E+02 -0.45378966146E+02  0.44009944030E+01  0.57086527109E+02  0.00000000000E+00 0. -1.
         -5    1    3    3    0  503  0.35284229848E+02  0.51869464616E+02 -0.48869790153E+02  0.79660307714E+02  0.47000000000E+01 0.  1.
         11    1    4    4    0    0 -0.32542270662E+02  0.26137657620E+02 -0.60171803801E+02  0.73231294529E+02  0.00000000000E+00 0. -1.
        -12    1    4    4    0    0 -0.26767220130E+02 -0.32108004042E+02 -0.20745993878E+03  0.21162947383E+03  0.00000000000E+00 0.  1.
</event>
<event>
12    1  0.1594973E-001  0.1854263E+03  0.7818608E-02  0.1164010E+00
         21   -1    0    0  501  502  0.00000000000E+00  0.00000000000E+00  0.63862519976E+03  0.63862519976E+03  0.00000000000E+00 0. -1.
         21   -1    0    0  502  503 -0.00000000000E+00 -0.00000000000E+00 -0.17341434635E+03  0.17341434635E+03  0.00000000000E+00 0. -1.
         -6    2    1    2    0  503  0.47271641827E+02  0.28798676159E+02 -0.10795602503E+03  0.20962507903E+03  0.17095086590E+03 0.  0.
        -24    2    3    3    0    0 -0.29901034464E+02  0.12594879689E+02 -0.12814477160E+02  0.85963487920E+02  0.78567216917E+02 0.  0.
          6    2    1    2  501    0 -0.47271641827E+02 -0.28798676159E+02  0.57316687844E+03  0.60241446708E+03  0.17697160151E+03 0.  0.
         24    2    5    5    0    0 -0.47308344303E+02 -0.77334729108E+02  0.27559776275E+03  0.30087637928E+03  0.79710281708E+02 0.  0.
          5    1    5    5  501    0  0.36702476352E-01  0.48536052949E+02  0.29756911569E+03  0.30153808780E+03  0.47000000000E+01 0. -1.
        -11    1    6    6    0    0 -0.82652507491E+01 -0.42186704715E+02  0.37481967817E+02  0.57034466212E+02  0.00000000000E+00 0.  1.
         12    1    6    6    0    0 -0.39043093554E+02 -0.35148024394E+02  0.23811579493E+03  0.24384191307E+03  0.00000000000E+00 0. -1.
         -5    1    3    3    0  503  0.77172676291E+02  0.16203796470E+02 -0.95141547869E+02  0.12366159111E+03  0.47000000000E+01 0.  1.
         11    1    4    4    0    0 -0.42171690157E+01 -0.13286736777E+02 -0.38774166688E+02  0.41203857720E+02  0.00000000000E+00 0. -1.
        -12    1    4    4    0    0 -0.25683865448E+02  0.25881616466E+02  0.25959689528E+02  0.44759630200E+02  0.00000000000E+00 0.  1.
</event>
<event>
12    1  0.1594973E-001  0.1806799E+03  0.7818608E-02  0.1168210E+00
         21   -1    0    0  503  502  0.00000000000E+00  0.00000000000E+00  0.64467489014E+03  0.64467489014E+03  0.00000000000E+00 0. -1.
         21   -1    0    0  501  503 -0.00000000000E+00 -0.00000000000E+00 -0.50379719375E+02  0.50379719375E+02  0.00000000000E+00 0. -1.
          6    2    1    2  501    0  0.56972306494E+01  0.25495877898E+02  0.24573284810E+03  0.30244675551E+03  0.17437576970E+03 0.  0.
         24    2    3    3    0    0  0.29859308833E+02 -0.37288291651E+01  0.41657901361E+02  0.94825553773E+02  0.79693302176E+02 0.  0.
         -6    2    1    2    0  502 -0.56972306494E+01 -0.25495877898E+02  0.34856232267E+03  0.39260785401E+03  0.17878125186E+03 0.  0.
        -24    2    5    5    0    0 -0.18291472433E+02 -0.68128424615E+02  0.12266338999E+03  0.16232853068E+03  0.79549886388E+02 0.  0.
          5    1    3    3  501    0 -0.24162078183E+02  0.29224707063E+02  0.20407494673E+03  0.20762120173E+03  0.47000000000E+01 0. -1.
        -13    1    4    4    0    0 -0.18410803975E+02 -0.17876956717E+02  0.35996163390E+02  0.44207092906E+02  0.00000000000E+00 0.  1.
         14    1    4    4    0    0  0.48270112807E+02  0.14148127552E+02  0.56617379711E+01  0.50618460867E+02  0.00000000000E+00 0. -1.
         -5    1    5    5    0  502  0.12594241783E+02  0.42632546717E+02  0.22589893269E+03  0.23027932334E+03  0.47000000000E+01 0.  1.
         11    1    6    6    0    0  0.13103998013E+02 -0.60304021318E+02  0.11267226710E+03  0.12846528529E+03  0.00000000000E+00 0. -1.
        -12    1    6    6    0    0 -0.31395470446E+02 -0.78244032973E+01  0.99911228823E+01  0.33863245384E+02  0.00000000000E+00 0.  1.
</event>
<event>
12    1  0.1594973E-001  0.2230555E+03  0.7818608E-02  0.1131796E+00
         21   -1    0    0  503  502  0.00000000000E+00  0.00000000000E+00  0.11345833135E+03  0.11345833135E+03  0.00000000000E+00 0.  1.
         21   -1    0    0  501  503 -0.00000000000E+00 -0.00000000000E+00 -0.43859625084E+03  0.43859625084E+03  0.00000000000E+00 0.  1.
          6    2    1    2  501    0 -0.11209371206E+03  0.86116371253E+02 -0.14406887606E+03  0.26475728238E+03  0.17134628051E+03 0.  0.
         24    2    3    3    0    0 -0.84363143175E+02  0.12270151199E+03 -0.13908177196E+03  0.21834157188E+03  0.78463378394E+02 0.  0.
         -6    2    1    2    0  502  0.11209371206E+03 -0.86116371253E+02 -0.18106904343E+03  0.28729729981E+03  0.17254770444E+03 0.  0.
        -24    2    5    5    0    0  0.12532841163E+03 -0.76601444188E+02 -0.20095043086E+03  0.26116206161E+03  0.79054125432E+02 0.  0.
          5    1    3    3  501    0 -0.27730568890E+02 -0.36585140740E+02 -0.49871040980E+01  0.46415710500E+02  0.47000000000E+01 0. -1.
        -13    1    4    4    0    0 -0.83211053954E+02  0.98149798571E+02 -0.14416972699E+03  0.19324174663E+03  0.00000000000E+00 0.  1.
         14    1    4    4    0    0 -0.11520892203E+01  0.24551713422E+02  0.50879550276E+01  0.25099825256E+02  0.00000000000E+00 0. -1.
         -5    1    5    5    0  502 -0.13234699568E+02 -0.95149270645E+01  0.19881387430E+02  0.26135238202E+02  0.47000000000E+01 0.  1.
         11    1    6    6    0    0  0.15222027212E+02 -0.19106019677E+01  0.48579321209E+01  0.16092234675E+02  0.00000000000E+00 0. -1.
        -12    1    6    6    0    0  0.11010638442E+03 -0.74690842220E+02 -0.20580836298E+03  0.24506982693E+03  0.00000000000E+00 0.  1.
</event>
<event>
12    1  0.1594973E-001  0.1891968E+03  0.7818608E-02  0.1159346E+00
         21   -1    0    0  501  502  0.00000000000E+00  0.00000000000E+00  0.18537965117E+03  0.18537965117E+03  0.00000000000E+00 0.  1.
         21   -1    0    0  502  503 -0.00000000000E+00 -0.00000000000E+00 -0.19621550400E+03  0.19621550400E+03  0.00000000000E+00 0.  1.
         -6    2    1    2    0  503  0.80203239376E+02 -0.39588787339E+01 -0.32072849843E+02  0.19121020473E+03  0.17054161477E+03 0.  0.
        -24    2    3    3    0    0 -0.20341415871E+02  0.15103804861E+02  0.35884497251E+01  0.82737019602E+02  0.78680615912E+02 0.  0.
          6    2    1    2  501    0 -0.80203239376E+02  0.39588787339E+01  0.21236997017E+02  0.19038495045E+03  0.17131020690E+03 0.  0.
         24    2    5    5    0    0 -0.94527949647E+02 -0.31283862196E+02  0.54488628952E+02  0.13964040257E+03  0.81340137982E+02 0.  0.
          5    1    5    5  501    0  0.14324710271E+02  0.35242740930E+02 -0.33251631935E+02  0.50744547874E+02  0.47000000000E+01 0. -1.
        -13    1    6    6    0    0 -0.53177743827E+02  0.62379346091E+00 -0.12564945548E+02  0.54645579999E+02  0.00000000000E+00 0.  1.
         14    1    6    6    0    0 -0.41350205821E+02 -0.31907655657E+02  0.67053574501E+02  0.84994822573E+02  0.00000000000E+00 0. -1.
         -5    1    3    3    0  503  0.10054465525E+03 -0.19062683595E+02 -0.35661299568E+02  0.10847318513E+03  0.47000000000E+01 0.  1.
         13    1    4    4    0    0  0.56724937351E+01  0.40621619803E+02  0.16310671144E+02  0.44139904551E+02  0.00000000000E+00 0. -1.
        -14    1    4    4    0    0 -0.26013909606E+02 -0.25517814942E+02 -0.12722221419E+02  0.38597115051E+02  0.00000000000E+00 0.  1.
</event>
<event>
12    1  0.1594973E-001  0.2654139E+03  0.7818608E-02  0.1103980E+00
         21   -1    0    0  503  502  0.00000000000E+00  0.00000000000E+00  0.93153973897E+02  0.93153973897E+02  0.00000000000E+00 0.  1.
         21   -1    0    0  501  503 -0.00000000000E+00 -0.00000000000E+00 -0.83794849258E+03  0.83794849258E+03  0.00000000000E+00 0.  1.
          6    2    1    2  501    0 -0.11268025549E+03 -0.16936945880E+03 -0.51839915602E+03  0.58224802701E+03  0.16997713508E+03 0.  0.
         24    2    3    3    0    0 -0.40629810068E+02 -0.14815407944E+03 -0.25244513976E+03  0.30585159475E+03  0.78843114462E+02 0.  0.
         -6    2    1    2    0  502  0.11268025549E+03  0.16936945880E+03 -0.22639536267E+03  0.34885443947E+03  0.17047494287E+03 0.  0.
        -24    2    5    5    0    0 -0.10262684854E+02  0.86131959084E+02 -0.10185383834E+03  0.15500880701E+03  0.78291051789E+02 0.  0.
          5    1    3    3  501    0 -0.72050445423E+02 -0.21215379358E+02 -0.26595401625E+03  0.27639643226E+03  0.47000000000E+01 0. -1.
        -11    1    4    4    0    0 -0.11683298272E+02  0.74784543269E+01 -0.27337535371E+02  0.30655628811E+02  0.00000000000E+00 0.  1.
         12    1    4    4    0    0 -0.28946511796E+02 -0.15563253377E+03 -0.22510760439E+03  0.27519596594E+03  0.00000000000E+00 0. -1.
         -5    1    5    5    0  502  0.12294294035E+03  0.83237499717E+02 -0.12454152433E+03  0.19384563246E+03  0.47000000000E+01 0.  1.
         13    1    6    6    0    0 -0.27248627906E+02  0.92855542596E+02 -0.74549291502E+02  0.12215660595E+03  0.00000000000E+00 0. -1.
        -14    1    6    6    0    0  0.16985943052E+02 -0.67235835120E+01 -0.27304546834E+02  0.32852201059E+02  0.00000000000E+00 0.  1.
</event>
<event>
12    1  0.1594973E-001  0.1816643E+03  0.7818608E-02  0.1166451E+00
         21   -1    0    0  501  502  0.00000000000E+00  0.00000000000E+00  0.50883835297E+03  0.50883835297E+03  0.00000000000E+00 0. -1.
         21   -1    0    0  502  503 -0.00000000000E+00 -0.00000000000E+00 -0.28038420793E+03  0.28038420793E+03  0.00000000000E+00 0. -1.
         -6    2    1    2    0  503 -0.54640121938E+02 -0.14962191152E+02 -0.23211919984E+03  0.29411677253E+03  0.17151076602E+03 0.  0.
        -24    2    3    3    0    0 -0.29722728459E+01 -0.15975704043E+02 -0.22848758907E+03  0.24209877147E+03  0.78365676540E+02 0.  0.
          6    2    1    2  501    0  0.54640121938E+02  0.14962191152E+02  0.46057334488E+03  0.49510578837E+03  0.17260511455E+03 0.  0.
         24    2    5    5    0    0  0.11427793022E+02  0.62347825400E+02  0.26090723932E+03  0.28534080698E+03  0.96586452549E+02 0.  0.
          5    1    5    5  501    0  0.43212328917E+02 -0.47385634247E+02  0.19966610557E+03  0.20976498138E+03  0.47000000000E+01 0. -1.
        -11    1    6    6    0    0  0.32581241717E+02  0.59701736189E+02  0.25397425692E+03  0.26292348277E+03  0.00000000000E+00 0.  1.
         12    1    6    6    0    0 -0.21153448696E+02  0.26460892110E+01  0.69329823993E+01  0.22417324211E+02  0.00000000000E+00 0. -1.
         -5    1    3    3    0  503 -0.51667849092E+02  0.10135128909E+01 -0.36316107664E+01  0.52018001067E+02  0.47000000000E+01 0.  1.
         13    1    4    4    0    0  0.17188859859E+02  0.10144349672E+02 -0.19148084377E+03  0.19251825436E+03  0.00000000000E+00 0. -1.
        -14    1    4    4    0    0 -0.20161132705E+02 -0.26120053715E+02 -0.37006745308E+02  0.49580517105E+02  0.00000000000E+00 0.  1.
</event>
<event>
12    1  0.1594973E-001  0.1838769E+03  0.7818608E-02  0.1164312E+00
         21   -1    0    0  501  502  0.00000000000E+00  0.00000000000E+00  0.46155472995E+03  0.46155472995E+03  0.00000000000E+00 0.  1.
         21   -1    0    0  502  503 -0.00000000000E+00 -0.00000000000E+00 -0.15714659982E+03  0.15714659982E+03  0.00000000000E+00 0.  1.
         -6    2    1    2    0  503  0.60038798013E+02  0.16110183738E+02 -0.74126652032E+02  0.19825606390E+03  0.17305060255E+03 0.  0.
        -24    2    3    3    0    0  0.44522339383E+02 -0.13926533104E+02  0.23649230504E+02  0.94693628369E+02  0.78939281235E+02 0.  0.
          6    2    1    2  501    0 -0.60038798013E+02 -0.16110183738E+02  0.37853478217E+03  0.42044526587E+03  0.17210881731E+03 0.  0.
         24    2    5    5    0    0 -0.93014970275E+02 -0.39012702259E+02  0.34328444090E+03  0.36681104311E+03  0.80823006322E+02 0.  0.
          5    1    5    5  501    0  0.32976172262E+02  0.22902518521E+02  0.35250341268E+02  0.53634222761E+02  0.47000000000E+01 0. -1.
        -11    1    6    6    0    0 -0.19893421360E+02 -0.12793987002E+02  0.21882326691E+03  0.22009783383E+03  0.00000000000E+00 0.  1.
         12    1    6    6    0    0 -0.73121548915E+02 -0.26218715257E+02  0.12446117399E+03  0.14671320928E+03  0.00000000000E+00 0. -1.
         -5    1    3    3    0  503  0.15516458630E+02  0.30036716842E+02 -0.97775882536E+02  0.10356243553E+03  0.47000000000E+01 0.  1.
         13    1    4    4    0    0  0.58772759661E+02  0.13758835389E+02  0.12671220903E+02  0.61677408090E+02  0.00000000000E+00 0. -1.
        -14    1    4    4    0    0 -0.14250420279E+02 -0.27685368494E+02  0.10978009600E+02  0.33016220279E+02  0.00000000000E+00 0.  1.
</event>
<event>
12    1  0.1594973E-001  0.2073392E+03  0.7818608E-02  0.1143814E+00
         21   -1    0    0  501  502  0.00000000000E+00  0.00000000000E+00  0.18740594187E+03  0.18740594187E+03  0.00000000000E+00 0.  1.
         21   -1    0    0  502  503 -0.00000000000E+00 -0.00000000000E+00 -0.23071808077E+03  0.23071808077E+03  0.00000000000E+00 0.  1.
         -6    2    1    2    0  503 -0.74840537887E+02 -0.88354792560E+02 -0.41102445518E+02  0.21077309188E+03  0.17125480943E+03 0.  0.
        -24    2    3    3    0    0 -0.80217144352E+02  0.46499450366E+01 -0.30481493309E+02  0.11689187044E+03  0.79234939922E+02 0.  0.
          6    2    1    2  501    0  0.74840537887E+02  0.88354792560E+02 -0.22096933821E+01  0.20735093076E+03  0.17199375064E+03 0.  0.
         24    2    5    5    0    0  0.10993533157E+03  0.42129542077E+02  0.20691963036E+02  0.14478101632E+03  0.81686656851E+02 0.  0.
          5    1    5    5  501    0 -0.35094793687E+02  0.46225250483E+02 -0.22901656418E+02  0.62569914439E+02  0.47000000000E+01 0. -1.
        -11    1    6    6    0    0  0.72274300045E+02  0.38577708218E+02 -0.24817995917E+02  0.85602260132E+02  0.00000000000E+00 0.  1.
         12    1    6    6    0    0  0.37661031528E+02  0.35518338583E+01  0.45509958953E+02  0.59178756184E+02  0.00000000000E+00 0. -1.
         -5    1    3    3    0  503  0.53766064655E+01 -0.93004737597E+02 -0.10620952209E+02  0.93881221436E+02  0.47000000000E+01 0.  1.
         13    1    4    4    0    0 -0.40825478243E+01  0.32540020694E+01 -0.39831866972E+02  0.40172544763E+02  0.00000000000E+00 0. -1.
        -14    1    4    4    0    0 -0.76134596528E+02  0.13959429671E+01  0.93503736627E+01  0.76719325681E+02  0.00000000000E+00 0.  1.
</event>
<event>
12    1  0.1594973E-001  0.2266681E+03  0.7818608E-02  0.1129482E+00
         21   -1    0    0  501  502  0.00000000000E+00  0.00000000000E+00  0.14600143044E+03  0.14600143044E+03  0.00000000000E+00 0. -1.
         21   -1    0    0  502  503 -0.00000000000E+00 -0.00000000000E+00 -0.37047901940E+03  0.37047901940E+03  0.00000000000E+00 0.  1.
         -6    2    1    2    0  503  0.12428131263E+03 -0.78182026682E+02 -0.17547560038E+03  0.28457608609E+03  0.16921462254E+03 0.  0.
        -24    2    3    3    0    0  0.85419374383E+02 -0.76248775963E+02 -0.42862330898E+02  0.14629247554E+03  0.80336564745E+02 0.  0.
          6    2    1    2  501    0 -0.12428131263E+03  0.78182026682E+02 -0.49001988575E+02  0.23190436375E+03  0.17268516171E+03 0.  0.
         24    2    5    5    0    0 -0.14021422655E+03  0.57498398161E+02 -0.81106214060E+02  0.19025773689E+03  0.81570174506E+02 0.  0.
          5    1    5    5  501    0  0.15932913919E+02  0.20683628521E+02  0.32104225485E+02  0.41646626859E+02  0.47000000000E+01 0. -1.
        -13    1    6    6    0    0 -0.84427235398E+02  0.75037036501E+02 -0.45375878598E+02  0.12172709346E+03  0.00000000000E+00 0.  1.
         14    1    6    6    0    0 -0.55786991148E+02 -0.17538638340E+02 -0.35730335461E+02  0.68530643426E+02  0.00000000000E+00 0. -1.
         -5    1    3    3    0  503  0.38861938244E+02 -0.19332507190E+01 -0.13261326948E+03  0.13828361055E+03  0.47000000000E+01 0.  1.
         11    1    4    4    0    0  0.19023113749E+02  0.16736499520E+02 -0.42778481809E+01  0.25696094216E+02  0.00000000000E+00 0. -1.
        -12    1    4    4    0    0  0.66396260634E+02 -0.92985275484E+02 -0.38584482717E+02  0.12059638133E+03  0.00000000000E+00 0.  1.
</event>
<event>
12    1  0.1594973E-001  0.1758292E+03  0.7818608E-02  0.1171985E+00
         21   -1    0    0  503  502  0.00000000000E+00  0.00000000000E+00  0.16141880911E+03  0.16141880911E+03  0.00000000000E+00 0.  1.
         21   -1    0    0  501  503 -0.00000000000E+00 -0.00000000000E+00 -0.25605889976E+03  0.25605889976E+03  0.00000000000E+00 0.  1.
          6    2    1    2  501    0 -0.33276631981E+02  0.70299540175E+01 -0.15237183937E+03  0.23241321450E+03  0.17216843599E+03 0.  0.
         24    2    3    3    0    0  0.26344617703E+02 -0.44923647862E+02 -0.90027328785E+02  0.13160250990E+03  0.80635771614E+02 0.  0.
         -6    2    1    2    0  502  0.33276631981E+02 -0.70299540175E+01  0.57731748726E+02  0.18506449437E+03  0.17250842813E+03 0.  0.
        -24    2    5    5    0    0  0.46006839850E+02  0.22923350464E+02 -0.12801432754E+02  0.10724240026E+03  0.93246696587E+02 0.  0.
          5    1    3    3  501    0 -0.59621249684E+02  0.51953601879E+02 -0.62344510589E+02  0.10081070460E+03  0.47000000000E+01 0. -1.
        -13    1    4    4    0    0  0.10962400951E+02 -0.62111522071E+02 -0.88245500044E+02  0.10846789242E+03  0.00000000000E+00 0.  1.
         14    1    4    4    0    0  0.15382216752E+02  0.17187874209E+02 -0.17818287409E+01  0.23134617474E+02  0.00000000000E+00 0. -1.
         -5    1    5    5    0  502 -0.12730207869E+02 -0.29953304482E+02  0.70533181480E+02  0.77822094109E+02  0.47000000000E+01 0.  1.
         11    1    6    6    0    0  0.40942499197E+02 -0.31234124517E+02 -0.61324378190E+00  0.51499852843E+02  0.00000000000E+00 0. -1.
        -12    1    6    6    0    0  0.50643406522E+01  0.54157474982E+02 -0.12188188973E+02  0.55742547422E+02  0.00000000000E+00 0.  1.
</event>
<event>
12    1  0.1594973E-001  0.1941644E+03  0.7818608E-02  0.1154974E+00
         21   -1    0    0  501  502  0.00000000000E+00  0.00000000000E+00  0.25150582397E+03  0.25150582397E+03  0.00000000000E+00 0.  1.
         21   -1    0    0  502  503 -0.00000000000E+00 -0.00000000000E+00 -0.40200878682E+03  0.40200878682E+03  0.00000000000E+00 0.  1.
         -6    2    1    2    0  503 -0.13320792794E+02  0.87652012757E+02 -0.33447387465E+03  0.38674614455E+03  0.17274110294E+03 0.  0.
        -24    2    3    3    0    0  0.28231649192E+02 -0.33985909993E+01 -0.21130977137E+03  0.22797491222E+03  0.80697984424E+02 0.  0.
          6    2    1    2  501    0  0.13320792794E+02 -0.87652012757E+02  0.18397091180E+03  0.26676846624E+03  0.17163857180E+03 0.  0.
         24    2    5    5    0    0 -0.13201714937E+02 -0.90727203709E+01  0.22794451432E+02  0.85445301738E+02  0.80775695855E+02 0.  0.
          5    1    5    5  501    0  0.26522507731E+02 -0.78579292387E+02  0.16117646037E+03  0.18132316450E+03  0.47000000000E+01 0. -1.
        -11    1    6    6    0    0 -0.28707394861E+02 -0.35300152052E+02 -0.28961222768E+01  0.45591696380E+02  0.00000000000E+00 0.  1.
         12    1    6    6    0    0  0.15505679924E+02  0.26227431681E+02  0.25690573709E+02  0.39853605358E+02  0.00000000000E+00 0. -1.
         -5    1    3    3    0  503 -0.41552441986E+02  0.91050603757E+02 -0.12316410328E+03  0.15877123233E+03  0.47000000000E+01 0.  1.
         13    1    4    4    0    0 -0.14319162040E+02 -0.20115868487E+02 -0.21510473696E+02  0.32747321190E+02  0.00000000000E+00 0. -1.
        -14    1    4    4    0    0  0.42550811232E+02  0.16717277488E+02 -0.18979929767E+03  0.19522759103E+03  0.00000000000E+00 0.  1.
</event>
<event>
12    1  0.1594973E-001  0.2132708E+03  0.7818608E-02  0.1140218E+00
         21   -1    0    0  503  502  0.00000000000E+00  0.00000000000E+00  0.83282466480E+03  0.83282466480E+03  0.00000000000E+00 0. -1.
         21   -1    0    0  501  503 -0.00000000000E+00 -0.00000000000E+00 -0.27958570124E+03  0.27958570124E+03  0.00000000000E+00 0. -1.
          6    2    1    2  501    0  0.56033019863E+02  0.11477784572E+03 -0.22326749390E+03  0.30876014080E+03  0.17079460627E+03 0.  0.
         24    2    3    3    0    0 -0.17539947540E+02  0.29865349579E+02 -0.15513829065E+03  0.17728089579E+03  0.78492279369E+02 0.  0.
         -6    2    1    2    0  502 -0.56033019863E+02 -0.11477784572E+03  0.77650645746E+03  0.80365022525E+03  0.16302684712E+03 0.  0.
        -24    2    5    5    0    0 -0.85827340734E+02 -0.63726779314E+02  0.36119141162E+03  0.38412359887E+03  0.75261335117E+02 0.  0.
          5    1    3    3  501    0  0.73572967403E+02  0.84912496136E+02 -0.68129203256E+02  0.13147924501E+03  0.47000000000E+01 0. -1.
        -13    1    4    4    0    0 -0.34548545859E+02 -0.11638072894E+02 -0.42226261898E+02  0.55786234462E+02  0.00000000000E+00 0.  1.
         14    1    4    4    0    0  0.17008598319E+02  0.41503422474E+02 -0.11291202875E+03  0.12149466132E+03  0.00000000000E+00 0. -1.
         -5    1    5    5    0  502  0.29794320870E+02 -0.51051066401E+02  0.41531504584E+03  0.41952662638E+03  0.47000000000E+01 0.  1.
         11    1    6    6    0    0  0.57106908944E+01 -0.29554685989E+02  0.54713044011E+02  0.62446846513E+02  0.00000000000E+00 0. -1.
        -12    1    6    6    0    0 -0.91538031628E+02 -0.34172093325E+02  0.30647836761E+03  0.32167675236E+03  0.00000000000E+00 0.  1.
</event>
<event>
12    1  0.1594973E-001  0.2020342E+03  0.7818608E-02  0.1148284E+00
         21   -1    0    0  503  502  0.00000000000E+00  0.00000000000E+00  0.26522724332E+03  0.26522724332E+03  0.00000000000E+00 0.  1.
         21   -1    0    0  501  503 -0.00000000000E+00 -0.00000000000E+00 -0.13970017035E+04  0.13970017035E+04  0.00000000000E+00 0.  1.
          6    2    1    2  501    0 -0.81490492722E+02  0.66109629243E+02 -0.13499900435E+04  0.13648472577E+04  0.17124174734E+03 0.  0.
         24    2    3    3    0    0 -0.12553638810E+03  0.63308598400E+02 -0.10252358374E+04  0.10370740572E+04  0.68166812643E+02 0.  0.
         -6    2    1    2    0  502  0.81490492722E+02 -0.66109629243E+02  0.21821558325E+03  0.29738168910E+03  0.17264600997E+03 0.  0.
        -24    2    5    5    0    0  0.75099945232E+02 -0.10090439153E+03  0.18674790096E+03  0.24980207573E+03  0.10818780210E+03 0.  0.
          5    1    3    3  501    0  0.44045895379E+02  0.28010308436E+01 -0.32475420605E+03  0.32777320058E+03  0.47000000000E+01 0. -1.
        -11    1    4    4    0    0 -0.13364881641E+02  0.28013553476E+02 -0.10934013416E+03  0.11366021370E+03  0.00000000000E+00 0.  1.
         12    1    4    4    0    0 -0.11217150646E+03  0.35295044924E+02 -0.91589570325E+03  0.92341384346E+03  0.00000000000E+00 0. -1.
         -5    1    5    5    0  502  0.63905474898E+01  0.34794762286E+02  0.31467682296E+02  0.47579613374E+02  0.47000000000E+01 0.  1.
         11    1    6    6    0    0  0.28185729637E+02  0.19303597947E+02  0.22406907328E+02  0.40855033287E+02  0.00000000000E+00 0. -1.
        -12    1    6    6    0    0  0.46914215594E+02 -0.12020798948E+03  0.16434099363E+03  0.20894704244E+03  0.00000000000E+00 0.  1.
</event>
<event>
12    1  0.1594973E-001  0.2193308E+03  0.7818608E-02  0.1134426E+00
         21   -1    0    0  503  502  0.00000000000E+00  0.00000000000E+00  0.35004421103E+02  0.35004421103E+02  0.00000000000E+00 0.  1.
         21   -1    0    0  501  503 -0.00000000000E+00 -0.00000000000E+00 -0.13742090409E+04  0.13742090409E+04  0.00000000000E+00 0.  1.
          6    2    1    2  501    0 -0.13353309124E+03  0.26391370095E+02 -0.69152567629E+03  0.72540500090E+03  0.17168885665E+03 0.  0.
         24    2    3    3    0    0 -0.12052672230E+03  0.55389069538E+02 -0.66792665145E+03  0.68554228424E+03  0.79041583740E+02 0.  0.
         -6    2    1    2    0  502  0.13353309124E+03 -0.26391370095E+02 -0.64767894355E+03  0.68380846114E+03  0.17198373975E+03 0.  0.
        -24    2    5    5    0    0 -0.46316810425E+01 -0.65748814641E+01 -0.24153549307E+03  0.25432413094E+03  0.79225549095E+02 0.  0.
          5    1    3    3  501    0 -0.13006368944E+02 -0.28997699443E+02 -0.23599024839E+02  0.39862716659E+02  0.47000000000E+01 0. -1.
        -13    1    4    4    0    0 -0.43992941354E+02  0.34259202235E+02 -0.12541593823E+03  0.13725242944E+03  0.00000000000E+00 0.  1.
         14    1    4    4    0    0 -0.76533780941E+02  0.21129867303E+02 -0.54251071322E+03  0.54828985480E+03  0.00000000000E+00 0. -1.
         -5    1    5    5    0  502  0.13816477228E+03 -0.19816488631E+02 -0.40614345048E+03  0.42948433020E+03  0.47000000000E+01 0.  1.
         13    1    6    6    0    0  0.87694792541E+01 -0.23897995275E+02 -0.21844162986E+02  0.33543783345E+02  0.00000000000E+00 0. -1.
        -14    1    6    6    0    0 -0.13401160297E+02  0.17323113811E+02 -0.21969133008E+03  0.22078034759E+03  0.00000000000E+00 0.  1.
</event>
<event>
12    1  0.1594973E-001  0.1860492E+03  0.7818608E-02  0.1162950E+00
         21   -1    0    0  501  502  0.00000000000E+00  0.00000000000E+00  0.13151669434E+04  0.13151669434E+04  0.00000000000E+00 0.  1.
         21   -1    0    0  502  503 -0.00000000000E+00 -0.00000000000E+00 -0.33376963283E+02  0.33376963283E+02  0.00000000000E+00 0. -1.
         -6    2    1    2    0  503  0.64102049075E+02  0.18691595139E+02  0.31446009309E+03  0.36348481811E+03  0.16963966052E+03 0.  0.
        -24    2    3    3    0    0  0.31739527237E+02 -0.28568910283E+02  0.78013384753E+02  0.12015371842E+03  0.80791383357E+02 0.  0.
          6    2    1    2  501    0 -0.64102049075E+02 -0.18691595139E+02  0.96732988707E+03  0.98505908862E+03  0.17365439594E+03 0.  0.
         24    2    5    5    0    0 -0.25311892284E+02  0.54370299879E+02  0.60308456236E+03  0.61150927489E+03  0.81460312519E+02 0.  0.
          5    1    5    5  501    0 -0.38790156791E+02 -0.73061895018E+02  0.36424532471E+03  0.37354981374E+03  0.47000000000E+01 0. -1.
        -11    1    6    6    0    0 -0.51875035477E+02  0.15806258381E+02  0.33710681730E+03  0.34144086367E+03  0.00000000000E+00 0.  1.
         12    1    6    6    0    0  0.26563143193E+02  0.38564041498E+02  0.26597774506E+03  0.27006841122E+03  0.00000000000E+00 0. -1.
         -5    1    3    3    0  503  0.32362521837E+02  0.47260505422E+02  0.23644670834E+03  0.24333109969E+03  0.47000000000E+01 0.  1.
         11    1    4    4    0    0 -0.56125747217E+01 -0.48556962797E+02  0.38483815453E+02  0.62211604086E+02  0.00000000000E+00 0. -1.
        -12    1    4    4    0    0  0.37352101959E+02  0.19988052515E+02  0.39529569301E+02  0.57942114331E+02  0.00000000000E+00 0.  1.
</event>
<event>
12    1  0.1594973E-001  0.2848043E+03  0.7818608E-02  0.1093131E+00
         21   -1    0    0  503  502  0.00000000000E+00  0.00000000000E+00  0.56840693428E+03  0.56840693428E+03  0.00000000000E+00 0.  1.
         21   -1    0    0  501  503 -0.00000000000E+00 -0.00000000000E+00 -0.18950578444E+03  0.18950578444E+03  0.00000000000E+00 0. -1.
          6    2    1    2  501    0 -0.37222870082E+02  0.22392962739E+03  0.77309879353E+00  0.28452672803E+03  0.17153670510E+03 0.  0.
         24    2    3    3    0    0 -0.57400752677E+02  0.53007535366E+02 -0.62213308719E+01  0.11221155012E+03  0.80299949004E+02 0.  0.
         -6    2    1    2    0  502  0.37222870082E+02 -0.22392962739E+03  0.37812805105E+03  0.47338599069E+03  0.17199841019E+03 0.  0.
        -24    2    5    5    0    0  0.34459814569E+02 -0.82555526272E+02  0.81123228488E+02  0.14440540529E+03  0.79177327178E+02 0.  0.
          5    1    3    3  501    0  0.20177882595E+02  0.17092209203E+03  0.69944296655E+01  0.17231517790E+03  0.47000000000E+01 0. -1.
        -13    1    4    4    0    0 -0.22333649283E+02  0.13812348404E+02  0.36145235664E+02  0.44677185676E+02  0.00000000000E+00 0.  1.
         14    1    4    4    0    0 -0.35067103394E+02  0.39195186963E+02 -0.42366566536E+02  0.67534364449E+02  0.00000000000E+00 0. -1.
         -5    1    5    5    0  502  0.27630555127E+01 -0.14137410112E+03  0.29700482256E+03  0.32898058540E+03  0.47000000000E+01 0.  1.
         13    1    6    6    0    0 -0.19364901344E+02 -0.17030307265E+02 -0.17354196890E+01  0.25846517195E+02  0.00000000000E+00 0. -1.
        -14    1    6    6    0    0  0.53824715913E+02 -0.65525219007E+02  0.82858648177E+02  0.11855888810E+03  0.00000000000E+00 0.  1.
</event>
<event>
12    1  0.1594973E-001  0.1965816E+03  0.7818608E-02  0.1153122E+00
         21   -1    0    0  501  502  0.00000000000E+00  0.00000000000E+00  0.86775561553E+03  0.86775561553E+03  0.00000000000E+00 0. -1.
         21   -1    0    0  502  503 -0.00000000000E+00 -0.00000000000E+00 -0.92989848937E+02  0.92989848937E+02  0.00000000000E+00 0.  1.
         -6    2    1    2    0  503 -0.39114360186E+02 -0.81472291678E+02  0.37876065069E+02  0.19808516053E+03  0.17214954845E+03 0.  0.
        -24    2    3    3    0    0  0.30796609415E+02  0.27688439960E+01  0.17003928963E+01  0.82695031542E+02  0.76677762468E+02 0.  0.
          6    2    1    2  501    0  0.39114360186E+02  0.81472291678E+02  0.73688970152E+03  0.76266030394E+03  0.17457559827E+03 0.  0.
         24    2    5    5    0    0 -0.45378647774E+02  0.50334273369E+02  0.36359984666E+03  0.37863419764E+03  0.81032378586E+02 0.  0.
          5    1    5    5  501    0  0.84493007960E+02  0.31138018309E+02  0.37328985486E+03  0.38402610630E+03  0.47000000000E+01 0. -1.
        -13    1    6    6    0    0  0.12858128752E+02  0.92453977466E+01  0.11964391359E+02  0.19848312651E+02  0.00000000000E+00 0.  1.
         14    1    6    6    0    0 -0.58236776526E+02  0.41088875622E+02  0.35163545531E+03  0.35878588499E+03  0.00000000000E+00 0. -1.
         -5    1    3    3    0  503 -0.69910969601E+02 -0.84241135673E+02  0.36175672173E+02  0.11539012899E+03  0.47000000000E+01 0.  1.
         11    1    4    4    0    0  0.10939038454E+02  0.39460905962E+02  0.28087532813E+00  0.40950025063E+02  0.00000000000E+00 0. -1.
        -12    1    4    4    0    0  0.19857570961E+02 -0.36692061966E+02  0.14195175681E+01  0.41745006479E+02  0.00000000000E+00 0.  1.
</event>
<event>
12    1  0.1594973E-001  0.1744709E+03  0.7818608E-02  0.1173824E+00
         21   -1    0    0  503  502  0.00000000000E+00  0.00000000000E+00  0.65124114177E+02  0.65124114177E+02  0.00000000000E+00 0.  1.
         21   -1    0    0  501  503 -0.00000000000E+00 -0.00000000000E+00 -0.46624943997E+03  0.46624943997E+03  0.00000000000E+00 0.  1.
          6    2    1    2  501    0  0.35455159655E+02 -0.14628563969E+02 -0.22605217708E+03  0.28420823905E+03  0.16793949253E+03 0.  0.
         24    2    3    3    0    0  0.37691066270E+02  0.53757133053E+02 -0.12062905056E+03  0.15843968797E+03  0.79002031959E+02 0.  0.
         -6    2    1    2    0  502 -0.35455159655E+02  0.14628563969E+02 -0.17507314871E+03  0.24716531510E+03  0.17020288587E+03 0.  0.
        -24    2    5    5    0    0 -0.14121265769E+02  0.29660815611E+02 -0.19561505927E+03  0.21362185512E+03  0.79308709754E+02 0.  0.
          5    1    3    3  501    0 -0.22359066150E+01 -0.68385697022E+02 -0.10542312653E+03  0.12576855108E+03  0.47000000000E+01 0. -1.
        -11    1    4    4    0    0  0.49464974129E+02  0.10326382190E+02 -0.92414528040E+02  0.10532740777E+03  0.00000000000E+00 0.  1.
         12    1    4    4    0    0 -0.11773907859E+02  0.43430750863E+02 -0.28214522519E+02  0.53112280197E+02  0.00000000000E+00 0. -1.
         -5    1    5    5    0  502 -0.21333893886E+02 -0.15032251643E+02  0.20541910558E+02  0.33543459976E+02  0.47000000000E+01 0.  1.
         11    1    6    6    0    0  0.83894059478E+01 -0.18540903660E+02 -0.11662725799E+03  0.11838946130E+03  0.00000000000E+00 0. -1.
        -12    1    6    6    0    0 -0.22510671717E+02  0.48201719271E+02 -0.78987801275E+02  0.95232393817E+02  0.00000000000E+00 0.  1.
</event>
<event>
12    1  0.1594973E-001  0.2575582E+03  0.7818608E-02  0.1108663E+00
         21   -1    0    0  503  502  0.00000000000E+00  0.00000000000E+00  0.51233260323E+03  0.51233260323E+03  0.00000000000E+00 0. -1.
         21   -1    0    0  501  503 -0.00000000000E+00 -0.00000000000E+00 -0.12381468606E+04  0.12381468606E+04  0.00000000000E+00 0. -1.
          6    2    1    2  501    0  0.50236051810E+02  0.18381755918E+03 -0.11911525680E+04  0.12186185878E+04  0.17284173816E+03 0.  0.
         24    2    3    3    0    0  0.24065122781E+02  0.16245314268E+03 -0.61193418106E+03  0.63839674615E+03  0.78210036759E+02 0.  0.
         -6    2    1    2    0  502 -0.50236051810E+02 -0.18381755918E+03  0.46533831055E+03  0.53186087605E+03  0.17327346089E+03 0.  0.
        -24    2    5    5    0    0 -0.25353756786E+02 -0.38550950938E+02  0.86055463774E+02  0.12492220262E+03  0.77916782925E+02 0.  0.
          5    1    3    3  501    0  0.26170929029E+02  0.21364416495E+02 -0.57921838690E+03  0.58022184166E+03  0.47000000000E+01 0. -1.
        -13    1    4    4    0    0  0.27295346014E+02  0.10735420418E+03 -0.26685903562E+03  0.28893547024E+03  0.00000000000E+00 0.  1.
         14    1    4    4    0    0 -0.32302232332E+01  0.55098938505E+02 -0.34507514543E+03  0.34946127591E+03  0.00000000000E+00 0. -1.
         -5    1    5    5    0  502 -0.24882295024E+02 -0.14526660824E+03  0.37928284677E+03  0.40693867343E+03  0.47000000000E+01 0.  1.
         11    1    6    6    0    0 -0.50064765314E+02 -0.38649295553E+02  0.74248909558E+02  0.97535374830E+02  0.00000000000E+00 0. -1.
        -12    1    6    6    0    0  0.24711008528E+02  0.98344614804E-01  0.11806554216E+02  0.27386827793E+02  0.00000000000E+00 0.  1.
</event>
<event>
12    1  0.1594973E-001  0.2139844E+03  0.7818608E-02  0.1141415E+00
         21   -1    0    0  501  502  0.00000000000E+00  0.00000000000E+00  0.51456378390E+03  0.51456378390E+03  0.00000000000E+00 0. -1.
         21   -1    0    0  502  503 -0.00000000000E+00 -0.00000000000E+00 -0.84116655877E+02  0.84116655877E+02  0.00000000000E+00 0. -1.
         -6    2    1    2    0  503 -0.28761401480E+02  0.97711627606E+02  0.25805920362E+03  0.33523702982E+03  0.18818749482E+03 0.  0.
        -24    2    3    3    0    0 -0.26843141753E+02  0.52029755750E+02  0.20546765533E+02  0.93318114930E+02  0.69702591470E+02 0.  0.
          6    2    1    2  501    0  0.28761401480E+02 -0.97711627606E+02  0.17238792440E+03  0.26344340995E+03  0.17120179141E+03 0.  0.
         24    2    5    5    0    0 -0.27028734496E+01 -0.39800338843E+02  0.18320421641E+02  0.95805098790E+02  0.85156365635E+02 0.  0.
          5    1    5    5  501    0  0.31464274929E+02 -0.57911288763E+02  0.15406750276E+03  0.16763831116E+03  0.47000000000E+01 0. -1.
        -13    1    6    6    0    0 -0.43499801014E+02 -0.15564964927E+02  0.47149589239E+01  0.46440625094E+02  0.00000000000E+00 0.  1.
         14    1    6    6    0    0  0.40796927564E+02 -0.24235373916E+02  0.13605462717E+02  0.49364473696E+02  0.00000000000E+00 0. -1.
         -5    1    3    3    0  503 -0.19182597267E+01  0.45681871856E+02  0.23751243809E+03  0.24191891489E+03  0.47000000000E+01 0.  1.
         11    1    4    4    0    0 -0.42947265511E+02  0.11831560996E+02 -0.18090786903E+01  0.44583923293E+02  0.00000000000E+00 0. -1.
        -12    1    4    4    0    0  0.16104123759E+02  0.40198194755E+02  0.22355844224E+02  0.48734191637E+02  0.00000000000E+00 0.  1.
</event>
<event>
12    1  0.1594973E-001  0.2805240E+03  0.7818608E-02  0.1095763E+00
         21   -1    0    0  503  502  0.00000000000E+00  0.00000000000E+00  0.11898991455E+03  0.11898991455E+03  0.00000000000E+00 0.  1.
         21   -1    0    0  501  503 -0.00000000000E+00 -0.00000000000E+00 -0.79654447114E+03  0.79654447114E+03  0.00000000000E+00 0.  1.
          6    2    1    2  501    0 -0.30082989168E+02  0.21961696071E+03 -0.53294177223E+03  0.60226294099E+03  0.17192184803E+03 0.  0.
         24    2    3    3    0    0 -0.43611395380E+01  0.23515711787E+03 -0.48922835556E+03  0.54900824326E+03  0.82144857825E+02 0.  0.
         -6    2    1    2    0  502  0.30082989168E+02 -0.21961696071E+03 -0.14461278436E+03  0.31327144470E+03  0.16759935858E+03 0.  0.
        -24    2    5    5    0    0  0.45533550243E+02 -0.16828887890E+03 -0.16320834811E+03  0.25634011053E+03  0.93160272723E+02 0.  0.
          5    1    3    3  501    0 -0.25721849630E+02 -0.15540157154E+02 -0.43713416671E+02  0.53254697726E+02  0.47000000000E+01 0. -1.
        -11    1    4    4    0    0  0.26861349507E+02  0.13285930040E+03 -0.20946832690E+03  0.24949971097E+03  0.00000000000E+00 0.  1.
         12    1    4    4    0    0 -0.31222489045E+02  0.10229781746E+03 -0.27976002866E+03  0.29950853229E+03  0.00000000000E+00 0. -1.
         -5    1    5    5    0  502 -0.15450561075E+02 -0.51328081808E+02  0.18595563749E+02  0.56931334173E+02  0.47000000000E+01 0.  1.
         13    1    6    6    0    0  0.19552668658E+02 -0.17229228885E+02 -0.75212283176E+02  0.79599250751E+02  0.00000000000E+00 0. -1.
        -14    1    6    6    0    0  0.25980881585E+02 -0.15105965002E+03 -0.87996064932E+02  0.17674085978E+03  0.00000000000E+00 0.  1.
</event>
<event>
12    1  0.1594973E-001  0.2298936E+03  0.7818608E-02  0.1128103E+00
         21   -1    0    0  501  502  0.00000000000E+00  0.00000000000E+00  0.13456856430E+03  0.13456856430E+03  0.00000000000E+00 0.  1.
         21   -1    0    0  502  503 -0.00000000000E+00 -0.00000000000E+00 -0.39597598005E+03  0.39597598005E+03  0.00000000000E+00 0. -1.
         -6    2    1    2    0  503 -0.12800658626E+03 -0.59078395463E+02 -0.74674228543E+02  0.23436829861E+03  0.17168667988E+03 0.  0.
        -24    2    3    3    0    0 -0.63883146628E+02 -0.55633004706E+01  0.25351989360E+02  0.10397268837E+03  0.77817670399E+02 0.  0.
          6    2    1    2  501    0  0.12800658626E+03  0.59078395463E+02 -0.18673318721E+03  0.29617624574E+03  0.18159059006E+03 0.  0.
         24    2    5    5    0    0  0.11242847895E+02 -0.18958653827E+02 -0.10001140702E+03  0.13105111496E+03  0.81769682723E+02 0.  0.
          5    1    5    5  501    0  0.11676373836E+03  0.78037049289E+02 -0.86721780190E+02  0.16512513079E+03  0.47000000000E+01 0. -1.
        -13    1    6    6    0    0  0.31240785513E+02  0.56750758348E+01 -0.66440344830E+01  0.32439734268E+02  0.00000000000E+00 0.  1.
         14    1    6    6    0    0 -0.19997937617E+02 -0.24633729661E+02 -0.93367372540E+02  0.98611380687E+02  0.00000000000E+00 0. -1.
         -5    1    3    3    0  503 -0.64123439630E+02 -0.53515094992E+02 -0.10002621790E+03  0.13039561024E+03  0.47000000000E+01 0.  1.
         11    1    4    4    0    0  0.13544727629E+02  0.75306961536E+01 -0.93717435978E+01  0.18110787094E+02  0.00000000000E+00 0. -1.
        -12    1    4    4    0    0 -0.77427874257E+02 -0.13093996624E+02  0.34723732958E+02  0.85861901272E+02  0.00000000000E+00 0.  1.
</event>
<event>
12    1  0.1594973E-001  0.1827318E+03  0.7818608E-02  0.1165721E+00
         21   -1    0    0  501  502  0.00000000000E+00  0.00000000000E+00  0.45306043151E+02  0.45306043151E+02  0.00000000000E+00 0.  1.
         21   -1    0    0  502  503 -0.00000000000E+00 -0.00000000000E+00 -0.73807533660E+03  0.73807533660E+03  0.00000000000E+00 0.  1.
         -6    2    1    2    0  503 -0.57146353138E+02  0.59112986112E+00 -0.39007855772E+03  0.42981020348E+03  0.17120010136E+03 0.  0.
        -24    2    3    3    0    0 -0.35463463759E+01 -0.52317739380E+02 -0.15383534644E+03  0.18180767517E+03  0.81480025219E+02 0.  0.
          6    2    1    2  501    0  0.57146353138E+02 -0.59112986112E+00 -0.30269073572E+03  0.35357117627E+03  0.17356508890E+03 0.  0.
         24    2    5    5    0    0  0.11042517483E+01 -0.57135982977E+02 -0.20230200517E+03  0.22536031572E+03  0.81212256968E+02 0.  0.
          5    1    5    5  501    0  0.56042101390E+02  0.56544853116E+02 -0.10038873055E+03  0.12821086055E+03  0.47000000000E+01 0. -1.
        -11    1    6    6    0    0  0.20317406740E+02 -0.95300086972E+00 -0.74485909898E+01  0.21660718710E+02  0.00000000000E+00 0.  1.
         12    1    6    6    0    0 -0.19213154992E+02 -0.56182982107E+02 -0.19485341418E+03  0.20369959701E+03  0.00000000000E+00 0. -1.
         -5    1    3    3    0  503 -0.53600006762E+02  0.52908869241E+02 -0.23624321128E+03  0.24800252831E+03  0.47000000000E+01 0.  1.
         13    1    4    4    0    0  0.79685052746E+01 -0.51039324375E+02 -0.34974883847E+02  0.62383909857E+02  0.00000000000E+00 0. -1.
        -14    1    4    4    0    0 -0.11514851650E+02 -0.12784150057E+01 -0.11886046260E+03  0.11942376532E+03  0.00000000000E+00 0.  1.
</event>
<event>
12    1  0.1594973E-001  0.2087163E+03  0.7818608E-02  0.1143619E+00
         21   -1    0    0  503  502  0.00000000000E+00  0.00000000000E+00  0.15975404220E+03  0.15975404220E+03  0.00000000000E+00 0. -1.
         21   -1    0    0  501  503 -0.00000000000E+00 -0.00000000000E+00 -0.43940649093E+03  0.43940649093E+03  0.00000000000E+00 0. -1.
          6    2    1    2  501    0  0.76295770509E+02  0.85289441163E+02 -0.32693583179E+03  0.38515535878E+03  0.16841104156E+03 0.  0.
         24    2    3    3    0    0  0.34790821137E+02 -0.20106415476E+02 -0.11764446988E+03  0.14713033575E+03  0.78692091254E+02 0.  0.
         -6    2    1    2    0  502 -0.76295770509E+02 -0.85289441163E+02  0.47283383062E+02  0.21400517435E+03  0.17454845449E+03 0.  0.
        -24    2    5    5    0    0 -0.89078769499E+02 -0.48338119226E+02 -0.25403730420E+02  0.13133527825E+03  0.79573895513E+02 0.  0.
          5    1    3    3  501    0  0.41504949372E+02  0.10539585664E+03 -0.20929136190E+03  0.23802502303E+03  0.47000000000E+01 0. -1.
        -11    1    4    4    0    0 -0.94243991021E+00 -0.38162304027E+02 -0.91947741153E+02  0.99557203379E+02  0.00000000000E+00 0.  1.
         12    1    4    4    0    0  0.35733261047E+02  0.18055888551E+02 -0.25696728731E+02  0.47573132374E+02  0.00000000000E+00 0. -1.
         -5    1    5    5    0  502  0.12782998990E+02 -0.36951321937E+02  0.72687113482E+02  0.82669896107E+02  0.47000000000E+01 0.  1.
         11    1    6    6    0    0  0.47000520356E+01 -0.30656833922E+02  0.44747896476E+01  0.31336172351E+02  0.00000000000E+00 0. -1.
        -12    1    6    6    0    0 -0.93778821535E+02 -0.17681285305E+02 -0.29878520068E+02  0.99999105896E+02  0.00000000000E+00 0.  1.
</event>
<event>
12    1  0.1594973E-001  0.2117765E+03  0.7818608E-02  0.1140172E+00
         21   -1    0    0  501  502  0.00000000000E+00  0.00000000000E+00  0.27369313028E+03  0.27369313028E+03  0.00000000000E+00 0.  1.
         21   -1    0    0  502  503 -0.00000000000E+00 -0.00000000000E+00 -0.17273979060E+03  0.17273979060E+03  0.00000000000E+00 0. -1.
         -6    2    1    2    0  503  0.86912364872E+02 -0.88225281286E+02 -0.16947698777E+00  0.21175203146E+03  0.17175981684E+03 0.  0.
        -24    2    3    3    0    0  0.87893610629E+01 -0.10015840694E+03 -0.20370238263E+02  0.13004668299E+03  0.79926427430E+02 0.  0.
          6    2    1    2  501    0 -0.86912364872E+02  0.88225281286E+02  0.10112281667E+03  0.23468088942E+03  0.17179009395E+03 0.  0.
         24    2    5    5    0    0 -0.26049623387E+02 -0.12216903918E+02  0.91961233634E+01  0.85464560513E+02  0.79948651013E+02 0.  0.
          5    1    5    5  501    0 -0.60862741484E+02  0.10044218520E+03  0.91926693307E+02  0.14921632891E+03  0.47000000000E+01 0. -1.
        -11    1    6    6    0    0  0.17851098063E+02  0.58945060195E+01  0.28549047307E+02  0.34182671127E+02  0.00000000000E+00 0.  1.
         12    1    6    6    0    0 -0.43900721450E+02 -0.18111409938E+02 -0.19352923944E+02  0.51281889386E+02  0.00000000000E+00 0. -1.
         -5    1    3    3    0  503  0.78123003809E+02  0.11933125655E+02  0.20200761275E+02  0.81705348467E+02  0.47000000000E+01 0.  1.
         11    1    4    4    0    0  0.32197734074E+02 -0.40591545490E+02 -0.37303856337E+02  0.63843130737E+02  0.00000000000E+00 0. -1.
        -12    1    4    4    0    0 -0.23408373011E+02 -0.59566861451E+02  0.16933618074E+02  0.66203552255E+02  0.00000000000E+00 0.  1.
</event>
<event>
12    1  0.1594973E-001  0.2108548E+03  0.7818608E-02  0.1140944E+00
         21   -1    0    0  503  502  0.00000000000E+00  0.00000000000E+00  0.54144961799E+03  0.54144961799E+03  0.00000000000E+00 0. -1.
         21   -1    0    0  501  503 -0.00000000000E+00 -0.00000000000E+00 -0.88865919561E+02  0.88865919561E+02  0.00000000000E+00 0.  1.
          6    2    1    2  501    0  0.10004167807E+03  0.71352712709E+02  0.13859891818E+03  0.25210108931E+03  0.17101389460E+03 0.  0.
         24    2    3    3    0    0  0.20690963834E+02  0.74138050433E+02  0.24181413445E+02  0.11275350467E+03  0.78765763831E+02 0.  0.
         -6    2    1    2    0  502 -0.10004167807E+03 -0.71352712709E+02  0.31398478025E+03  0.37821444824E+03  0.17134812420E+03 0.  0.
        -24    2    5    5    0    0 -0.93218137004E+02 -0.91749746321E+02  0.15943812104E+03  0.22210756317E+03  0.82484047915E+02 0.  0.
          5    1    3    3  501    0  0.79350714239E+02 -0.27853377245E+01  0.11441750473E+03  0.13934758464E+03  0.47000000000E+01 0. -1.
        -13    1    4    4    0    0  0.42972207194E+02  0.24911611565E+02 -0.73197797233E+01  0.50207351624E+02  0.00000000000E+00 0.  1.
         14    1    4    4    0    0 -0.22281243361E+02  0.49226438868E+02  0.31501193168E+02  0.62546153042E+02  0.00000000000E+00 0. -1.
         -5    1    5    5    0  502 -0.68235410679E+01  0.20397033612E+02  0.15454665921E+03  0.15610688507E+03  0.47000000000E+01 0.  1.
         13    1    6    6    0    0 -0.70736901207E+02 -0.81262621153E+02  0.16464307687E+03  0.19676042679E+03  0.00000000000E+00 0. -1.
        -14    1    6    6    0    0 -0.22481235797E+02 -0.10487125167E+02 -0.52049558359E+01  0.25347136377E+02  0.00000000000E+00 0.  1.
</event>
<event>
12    1  0.1594973E-001  0.2136919E+03  0.7818608E-02  0.1138756E+00
         21   -1    0    0  501  502  0.00000000000E+00  0.00000000000E+00  0.24656231162E+03  0.24656231162E+03  0.00000000000E+00 0. -1.
         21   -1    0    0  502  503 -0.00000000000E+00 -0.00000000000E+00 -0.24849351104E+03  0.24849351104E+03  0.00000000000E+00 0. -1.
         -6    2    1    2    0  503 -0.12012489308E+03  0.40452017628E+02 -0.12624101885E+03  0.24819551514E+03  0.17204029536E+03 0.  0.
        -24    2    3    3    0    0 -0.38163980833E+02  0.11846506315E+02 -0.13384925206E+03  0.16092672561E+03  0.79905942163E+02 0.  0.
          6    2    1    2  501    0  0.12012489308E+03 -0.40452017628E+02  0.12430981943E+03  0.24686030752E+03  0.17152470538E+03 0.  0.
         24    2    5    5    0    0  0.55663798006E+02  0.11328516741E+02 -0.48281707736E+00  0.97087984833E+02  0.78734045918E+02 0.  0.
          5    1    5    5  501    0  0.64461095072E+02 -0.51780534369E+02  0.12479263651E+03  0.14977232269E+03  0.47000000000E+01 0. -1.
        -11    1    6    6    0    0  0.73796894256E+02  0.12494338228E+02 -0.11667486132E+02  0.75751041724E+02  0.00000000000E+00 0.  1.
         12    1    6    6    0    0 -0.18133096250E+02 -0.11658214869E+01  0.11184669055E+02  0.21336943109E+02  0.00000000000E+00 0. -1.
         -5    1    3    3    0  503 -0.81960912244E+02  0.28605511313E+02  0.76082332097E+01  0.87268789529E+02  0.47000000000E+01 0.  1.
         11    1    4    4    0    0  0.18009668387E+02 -0.16881514358E+02 -0.25127591704E+02  0.35223991075E+02  0.00000000000E+00 0. -1.
        -12    1    4    4    0    0 -0.56173649220E+02  0.28728020673E+02 -0.10872166036E+03  0.12570273453E+03  0.00000000000E+00 0.  1.
</event>
<event>
12    1  0.1594973E-001  0.2388071E+03  0.7818608E-02  0.1120878E+00
         21   -1    0    0  501  502  0.00000000000E+00  0.00000000000E+00  0.16375897321E+04  0.16375897321E+04  0.00000000000E+00 0. -1.
         21   -1    0    0  502  503 -0.00000000000E+00 -0.00000000000E+00 -0.35355769517E+02  0.35355769517E+02  0.00000000000E+00 0.  1.
         -6    2    1    2    0  503 -0.69799158809E+02  0.15013764997E+03  0.67969230399E+03  0.72042379116E+03  0.17209176115E+03 0.  0.
        -24    2    3    3    0    0 -0.95704751980E+02  0.16671358618E+03  0.58148710263E+03  0.61740819529E+03  0.78184459545E+02 0.  0.
          6    2    1    2  501    0  0.69799158809E+02 -0.15013764997E+03  0.92254165864E+03  0.95252171050E+03  0.16970934135E+03 0.  0.
         24    2    5    5    0    0  0.97441442503E+02 -0.16278499876E+03  0.78032910063E+03  0.80702066950E+03  0.79844005166E+02 0.  0.
          5    1    5    5  501    0 -0.27642283694E+02  0.12647348786E+02  0.14221255800E+03  0.14550104100E+03  0.47000000000E+01 0. -1.
        -13    1    6    6    0    0  0.22893944226E+02 -0.39041380134E+01  0.40747339255E+02  0.46901179433E+02  0.00000000000E+00 0.  1.
         14    1    6    6    0    0  0.74547498278E+02 -0.15888086075E+03  0.73958176138E+03  0.76011949006E+03  0.00000000000E+00 0. -1.
         -5    1    3    3    0  503  0.25905593171E+02 -0.16575936210E+02  0.98205201357E+02  0.10301559587E+03  0.47000000000E+01 0.  1.
         11    1    4    4    0    0 -0.11727207725E+02  0.50488000070E+01  0.12892335895E+03  0.12955404380E+03  0.00000000000E+00 0. -1.
        -12    1    4    4    0    0 -0.83977544255E+02  0.16166478618E+03  0.45256374368E+03  0.48785415149E+03  0.00000000000E+00 0.  1.
</event>
<event>
12    1  0.1594973E-001  0.1751351E+03  0.7818608E-02  0.1172949E+00
         21   -1    0    0  503  502  0.00000000000E+00  0.00000000000E+00  0.52056881192E+02  0.52056881192E+02  0.00000000000E+00 0. -1.
         21   -1    0    0  501  503 -0.00000000000E+00 -0.00000000000E+00 -0.63185415032E+03  0.63185415032E+03  0.00000000000E+00 0. -1.
          6    2    1    2  501    0 -0.18118898591E+00 -0.34917006564E+02 -0.38458605729E+03  0.42258577332E+03  0.17161896800E+03 0.  0.
         24    2    3    3    0    0 -0.50836424703E+02 -0.63901221306E+02 -0.28107924083E+03  0.30366652062E+03  0.80870933962E+02 0.  0.
         -6    2    1    2    0  502  0.18118898591E+00  0.34917006564E+02 -0.19521121184E+03  0.26132525819E+03  0.17018884559E+03 0.  0.
        -24    2    5    5    0    0 -0.41326513067E+02 -0.30431292252E+02 -0.98882208385E+02  0.13765369155E+03  0.80851118930E+02 0.  0.
          5    1    3    3  501    0  0.50655235717E+02  0.28984214742E+02 -0.10350681646E+03  0.11891925270E+03  0.47000000000E+01 0. -1.
        -11    1    4    4    0    0  0.17727890543E+02 -0.15553618046E+02 -0.25800178722E+02  0.34954861743E+02  0.00000000000E+00 0.  1.
         12    1    4    4    0    0 -0.68564315246E+02 -0.48347603260E+02 -0.25527906211E+03  0.26871165888E+03  0.00000000000E+00 0. -1.
         -5    1    5    5    0  502  0.41507702053E+02  0.65348298816E+02 -0.96329003452E+02  0.12367156663E+03  0.47000000000E+01 0.  1.
         13    1    6    6    0    0 -0.10338113212E+02 -0.42238129818E+02 -0.12684486855E+02  0.45297156667E+02  0.00000000000E+00 0. -1.
        -14    1    6    6    0    0 -0.30988399855E+02  0.11806837566E+02 -0.86197721530E+02  0.92356534885E+02  0.00000000000E+00 0.  1.
</event>
<event>
12    1  0.1594973E-001  0.1733527E+03  0.7818608E-02  0.1174651E+00
         21   -1    0    0  501  502  0.00000000000E+00  0.00000000000E+00  0.10847657897E+04  0.10847657897E+04  0.00000000000E+00 0. -1.
         21   -1    0    0  502  503 -0.00000000000E+00 -0.00000000000E+00 -0.36609580783E+02  0.36609580783E+02  0.00000000000E+00 0. -1.
         -6    2    1    2    0  503  0.46794729038E+01 -0.20877237633E+02  0.24391062126E+03  0.29865906236E+03  0.17101779980E+03 0.  0.
        -24    2    3    3    0    0  0.21980544674E+02 -0.28328493568E+02  0.26037177882E+03  0.27320502520E+03  0.74577977263E+02 0.  0.
          6    2    1    2  501    0 -0.46794729038E+01  0.20877237633E+02  0.80424558762E+03  0.82271630808E+03  0.17202732883E+03 0.  0.
         24    2    5    5    0    0  0.18952910507E+02 -0.51739796183E+02  0.36681171825E+03  0.37864176117E+03  0.76042930834E+02 0.  0.
          5    1    5    5  501    0 -0.23632383410E+02  0.72617033815E+02  0.43743386937E+03  0.44407454691E+03  0.47000000000E+01 0. -1.
        -13    1    6    6    0    0  0.32335105268E+02 -0.35651448843E+02  0.99682358672E+02  0.11069398117E+03  0.00000000000E+00 0.  1.
         14    1    6    6    0    0 -0.13382194761E+02 -0.16088347340E+02  0.26712935958E+03  0.26794778000E+03  0.00000000000E+00 0. -1.
         -5    1    3    3    0  503 -0.17301071771E+02  0.74512559349E+01 -0.16461157567E+02  0.25454037163E+02  0.47000000000E+01 0.  1.
         13    1    4    4    0    0 -0.25765801416E+02 -0.14858994540E+02  0.13781604255E+03  0.14098910534E+03  0.00000000000E+00 0. -1.
        -14    1    4    4    0    0  0.47746346090E+02 -0.13469499028E+02  0.12255573628E+03  0.13221591986E+03  0.00000000000E+00 0.  1.
</event>
<event>
12    1  0.1594973E-001  0.2268641E+03  0.7818608E-02  0.1129356E+00
         21   -1    0    0  503  502  0.00000000000E+00  0.00000000000E+00  0.12114730217E+03  0.12114730217E+03  0.00000000000E+00 0.  1.
         21   -1    0    0  501  503 -0.00000000000E+00 -0.00000000000E+00 -0.42069985741E+03  0.42069985741E+03  0.00000000000E+00 0. -1.
          6    2    1    2  501    0 -0.12282317443E+03  0.75261763719E+02 -0.16343678540E+03  0.27960488369E+03  0.17526392357E+03 0.  0.
         24    2    3    3    0    0 -0.88008764896E+02  0.24572226957E+02 -0.23614061555E+02  0.12678487076E+03  0.84660749552E+02 0.  0.
         -6    2    1    2    0  502  0.12282317443E+03 -0.75261763719E+02 -0.13611576985E+03  0.26224227590E+03  0.17173713405E+03 0.  0.
        -24    2    5    5    0    0  0.38656720367E+02  0.25777664063E+02 -0.53961774500E+02  0.10711546678E+03  0.80018873536E+02 0.  0.
          5    1    3    3  501    0 -0.34814409532E+02  0.50689536762E+02 -0.13982272384E+03  0.15282001293E+03  0.47000000000E+01 0. -1.
        -13    1    4    4    0    0  0.40967198345E+01 -0.13058064140E+02  0.14775300692E+02  0.20139653995E+02  0.00000000000E+00 0.  1.
         14    1    4    4    0    0 -0.92105484731E+02  0.37630291096E+02 -0.38389362248E+02  0.10664521677E+03  0.00000000000E+00 0. -1.
         -5    1    5    5    0  502  0.84166454061E+02 -0.10103942778E+03 -0.82153995345E+02  0.15512680912E+03  0.47000000000E+01 0.  1.
         11    1    6    6    0    0  0.10832468077E+02  0.45188104757E+02 -0.56429757027E+02  0.73100100234E+02  0.00000000000E+00 0. -1.
        -12    1    6    6    0    0  0.27824252290E+02 -0.19410440694E+02  0.24679825264E+01  0.34015366545E+02  0.00000000000E+00 0.  1.
</event>
<event>
12    1  0.1594973E-001  0.1794721E+03  0.7818608E-02  0.1168778E+00
         21   -1    0    0  501  502  0.00000000000E+00  0.00000000000E+00  0.75957798209E+03  0.75957798209E+03  0.00000000000E+00 0. -1.
         21   -1    0    0  502  503 -0.00000000000E+00 -0.00000000000E+00 -0.10621669079E+03  0.10621669079E+03  0.00000000000E+00 0. -1.
         -6    2    1    2    0  503 -0.43312250769E+02  0.15465312917E+02 -0.10711420415E+02  0.17789728640E+03  0.17151554743E+03 0.  0.
        -24    2    3    3    0    0 -0.31656011249E+02  0.99971157037E+01 -0.75372582692E+02  0.11179944220E+03  0.75604521582E+02 0.  0.
          6    2    1    2  501    0  0.43312250769E+02 -0.15465312917E+02  0.66407271172E+03  0.68789738648E+03  0.17347945386E+03 0.  0.
         24    2    5    5    0    0 -0.24754557855E+02 -0.47683148504E+02  0.45990639399E+03  0.47023467801E+03  0.81977377254E+02 0.  0.
          5    1    5    5  501    0  0.68066808624E+02  0.32217835587E+02  0.20416631772E+03  0.21766270847E+03  0.47000000000E+01 0. -1.
        -13    1    6    6    0    0 -0.29867134631E+02 -0.36654207016E+02  0.10539426231E+03  0.11551418593E+03  0.00000000000E+00 0.  1.
         14    1    6    6    0    0  0.51125767762E+01 -0.11028941488E+02  0.35451213168E+03  0.35472049208E+03  0.00000000000E+00 0. -1.
         -5    1    3    3    0  503 -0.11656239520E+02  0.54681972134E+01  0.64661162277E+02  0.66097844197E+02  0.47000000000E+01 0.  1.
         13    1    4    4    0    0 -0.26556938810E+02 -0.27343674463E+02 -0.15704458335E+02  0.41225932903E+02  0.00000000000E+00 0. -1.
        -14    1    4    4    0    0 -0.50990724388E+01  0.37340790167E+02 -0.59668124357E+02  0.70573509296E+02  0.00000000000E+00 0.  1.
</event>
<event>
12    1  0.1594973E-001  0.2505648E+03  0.7818608E-02  0.1112965E+00
         21   -1    0    0  501  502  0.00000000000E+00  0.00000000000E+00  0.97227468912E+02  0.97227468912E+02  0.00000000000E+00 0.  1.
         21   -1    0    0  502  503 -0.00000000000E+00 -0.00000000000E+00 -0.64556428419E+03  0.64556428419E+03  0.00000000000E+00 0.  1.
         -6    2    1    2    0  503 -0.98965988609E+02  0.15331668857E+03 -0.26952246603E+03  0.36793153523E+03  0.17155460071E+03 0.  0.
        -24    2    3    3    0    0 -0.41549724672E+02  0.15737534710E+03 -0.24506281919E+03  0.30521419793E+03  0.81280635915E+02 0.  0.
          6    2    1    2  501    0  0.98965988609E+02 -0.15331668857E+03 -0.27881434925E+03  0.37486021787E+03  0.17170459430E+03 0.  0.
         24    2    5    5    0    0  0.13306063644E+02 -0.58881284194E+02 -0.48511592317E+02  0.11157877494E+03  0.80326779283E+02 0.  0.
          5    1    5    5  501    0  0.85659924966E+02 -0.94435404377E+02 -0.23030275693E+03  0.26328144294E+03  0.47000000000E+01 0. -1.
        -13    1    6    6    0    0  0.47282556038E+02 -0.37146113473E+02 -0.27986051218E+02  0.66322642547E+02  0.00000000000E+00 0.  1.
         14    1    6    6    0    0 -0.33976492395E+02 -0.21735170721E+02 -0.20525541099E+02  0.45256132392E+02  0.00000000000E+00 0. -1.
         -5    1    3    3    0  503 -0.57416263938E+02 -0.40586585338E+01 -0.24459646845E+02  0.62717337296E+02  0.47000000000E+01 0.  1.
         13    1    4    4    0    0 -0.57355814400E+02  0.84686742233E+02 -0.17679072309E+03  0.20424615915E+03  0.00000000000E+00 0. -1.
        -14    1    4    4    0    0  0.15806089728E+02  0.72688604872E+02 -0.68272096099E+02  0.10096803879E+03  0.00000000000E+00 0.  1.
</event>
<event>
12    1  0.1594973E-001  0.2631278E+03  0.7818608E-02  0.1105451E+00
         21   -1    0    0  501  502  0.00000000000E+00  0.00000000000E+00  0.22399905964E+03  0.22399905964E+03  0.00000000000E+00 0.  1.
         21   -1    0    0  502  503 -0.00000000000E+00 -0.00000000000E+00 -0.31263608930E+03  0.31263608930E+03  0.00000000000E+00 0. -1.
         -6    2    1    2    0  503  0.33860942337E+02  0.19602669709E+03 -0.10785196445E+02  0.26334872507E+03  0.17223008199E+03 0.  0.
        -24    2    3    3    0    0  0.79653159409E+02  0.10408892959E+03 -0.33678022476E+02  0.15801282558E+03  0.81576422955E+02 0.  0.
          6    2    1    2  501    0 -0.33860942337E+02 -0.19602669709E+03 -0.77851833213E+02  0.27328642388E+03  0.17044510011E+03 0.  0.
         24    2    5    5    0    0 -0.16112846640E+02 -0.18094756146E+02 -0.30831237691E+02  0.88332924548E+02  0.79152361398E+02 0.  0.
          5    1    5    5  501    0 -0.17748095697E+02 -0.17793194095E+03 -0.47020595522E+02  0.18495349933E+03  0.47000000000E+01 0. -1.
        -13    1    6    6    0    0 -0.68787428700E+01  0.11288855690E+02  0.22875811574E+02  0.26420789569E+02  0.00000000000E+00 0.  1.
         14    1    6    6    0    0 -0.92341037699E+01 -0.29383611836E+02 -0.53707049265E+02  0.61912134979E+02  0.00000000000E+00 0. -1.
         -5    1    3    3    0  503 -0.45792217072E+02  0.91937767506E+02  0.22892826031E+02  0.10533589949E+03  0.47000000000E+01 0.  1.
         13    1    4    4    0    0  0.26973286818E+02  0.60440196496E+01 -0.37570322278E+02  0.46643514998E+02  0.00000000000E+00 0. -1.
        -14    1    4    4    0    0  0.52679872590E+02  0.98044909939E+02  0.38922998013E+01  0.11136931058E+03  0.00000000000E+00 0.  1.
</event>
<event>
12    1  0.1594973E-001  0.1808166E+03  0.7818608E-02  0.1168156E+00
         21   -1    0    0  503  502  0.00000000000E+00  0.00000000000E+00  0.53064670345E+03  0.53064670345E+03  0.00000000000E+00 0. -1.
         21   -1    0    0  501  503 -0.00000000000E+00 -0.00000000000E+00 -0.72306197808E+02  0.72306197808E+02  0.00000000000E+00 0. -1.
          6    2    1    2  501    0 -0.18110697789E+02  0.40147271048E+02  0.10744787186E+03  0.21033234657E+03  0.17537060785E+03 0.  0.
         24    2    3    3    0    0 -0.16814170579E+02  0.73610740468E+02  0.12866830717E+03  0.17040889928E+03  0.82355341291E+02 0.  0.
         -6    2    1    2    0  502  0.18110697789E+02 -0.40147271048E+02  0.35089263379E+03  0.39262055469E+03  0.17054459468E+03 0.  0.
        -24    2    5    5    0    0  0.48296055509E+02 -0.40879593883E+02  0.34748301690E+03  0.36187307342E+03  0.78765627387E+02 0.  0.
          5    1    3    3  501    0 -0.12965272103E+01 -0.33463469420E+02 -0.21220435312E+02  0.39923447287E+02  0.47000000000E+01 0. -1.
        -13    1    4    4    0    0 -0.31963930854E+02  0.28972672551E+02  0.11264134399E+03  0.12061998593E+03  0.00000000000E+00 0.  1.
         14    1    4    4    0    0  0.15149760275E+02  0.44638067917E+02  0.16026963184E+02  0.49788913351E+02  0.00000000000E+00 0. -1.
         -5    1    5    5    0  502 -0.30185357720E+02  0.73232283446E+00  0.34096168850E+01  0.30747481274E+02  0.47000000000E+01 0.  1.
         13    1    6    6    0    0 -0.15338681157E+01  0.19499011488E+02  0.39244086871E+02  0.43848176185E+02  0.00000000000E+00 0. -1.
        -14    1    6    6    0    0  0.49829923625E+02 -0.60378605371E+02  0.30823893003E+03  0.31802489723E+03  0.00000000000E+00 0.  1.
</event>
<event>
12    1  0.1594973E-001  0.1973547E+03  0.7818608E-02  0.1154161E+00
         21   -1    0    0  501  502  0.00000000000E+00  0.00000000000E+00  0.40661225760E+03  0.40661225760E+03  0.00000000000E+00 0.  1.
         21   -1    0    0  502  503 -0.00000000000E+00 -0.00000000000E+00 -0.95906781475E+02  0.95906781475E+02  0.00000000000E+00 0.  1.
         -6    2    1    2    0  503 -0.56594590983E+02 -0.24301670026E+02  0.95186680386E+02  0.21029099113E+03  0.17711091985E+03 0.  0.
        -24    2    3    3    0    0 -0.57710937844E+02 -0.74789360341E+02  0.98520502371E+02  0.15946326766E+03  0.82451461958E+02 0.  0.
          6    2    1    2  501    0  0.56594590983E+02  0.24301670026E+02  0.21551879574E+03  0.29222804794E+03  0.18749763144E+03 0.  0.
         24    2    5    5    0    0  0.31254640461E+02 -0.51442852186E+02  0.17699317265E+03  0.20342681275E+03  0.80203898848E+02 0.  0.
          5    1    5    5  501    0  0.25339950522E+02  0.75744522212E+02  0.38525623086E+02  0.88801235193E+02  0.47000000000E+01 0. -1.
        -11    1    6    6    0    0  0.10767499151E+02 -0.28536612793E+02  0.16892160506E+03  0.17165309774E+03  0.00000000000E+00 0.  1.
         12    1    6    6    0    0  0.20487141310E+02 -0.22906239394E+02  0.80715675869E+01  0.31773715010E+02  0.00000000000E+00 0. -1.
         -5    1    3    3    0  503  0.11163468609E+01  0.50487690315E+02 -0.33338219844E+01  0.50827723465E+02  0.47000000000E+01 0.  1.
         13    1    4    4    0    0  0.20151891046E+02 -0.79213188307E+01  0.25771768460E+02  0.33660511795E+02  0.00000000000E+00 0. -1.
        -14    1    4    4    0    0 -0.77862828890E+02 -0.66868041510E+02  0.72748733911E+02  0.12580275587E+03  0.00000000000E+00 0.  1.
</event>
<event>
12    1  0.1594973E-001  0.1736995E+03  0.7818608E-02  0.1174425E+00
         21   -1    0    0  503  502  0.00000000000E+00  0.00000000000E+00  0.49773115446E+03  0.49773115446E+03  0.00000000000E+00 0. -1.
         21   -1    0    0  501  503 -0.00000000000E+00 -0.00000000000E+00 -0.61740371495E+02  0.61740371495E+02  0.00000000000E+00 0. -1.
          6    2    1    2  501    0  0.49764258315E+01 -0.57352256713E+01  0.17143940642E+03  0.24299255371E+03  0.17203561682E+03 0.  0.
         24    2    3    3    0    0 -0.33591409461E+02 -0.52500319008E+02  0.14094799265E+03  0.17497587790E+03  0.82858644265E+02 0.  0.
         -6    2    1    2    0  502 -0.49764258315E+01  0.57352256713E+01  0.26455137655E+03  0.31647897225E+03  0.17353343026E+03 0.  0.
        -24    2    5    5    0    0  0.56836173020E+02  0.27158084108E+02  0.19997848663E+03  0.22443830541E+03  0.80082742985E+02 0.  0.
          5    1    3    3  501    0  0.38567835292E+02  0.46765093336E+02  0.30491413766E+02  0.68016675803E+02  0.47000000000E+01 0. -1.
        -13    1    4    4    0    0  0.22432528518E+01 -0.45731545982E+02  0.22452021898E+02  0.50995095535E+02  0.00000000000E+00 0.  1.
         14    1    4    4    0    0 -0.35834662312E+02 -0.67687730253E+01  0.11849597076E+03  0.12398078237E+03  0.00000000000E+00 0. -1.
         -5    1    5    5    0  502 -0.61812598852E+02 -0.21422858437E+02  0.64572889917E+02  0.92040666842E+02  0.47000000000E+01 0.  1.
         11    1    6    6    0    0  0.42115325188E+01 -0.15055418394E+02  0.25991739965E+01  0.15847975726E+02  0.00000000000E+00 0. -1.
        -12    1    6    6    0    0  0.52624640502E+02  0.42213502502E+02  0.19737931263E+03  0.20859032968E+03  0.00000000000E+00 0.  1.
</event>
<event>
12    1  0.1594973E-001  0.1846906E+03  0.7818608E-02  0.1163784E+00
         21   -1    0    0  501  502  0.00000000000E+00  0.00000000000E+00  0.23325812663E+03  0.23325812663E+03  0.00000000000E+00 0. -1.
         21   -1    0    0  502  503 -0.00000000000E+00 -0.00000000000E+00 -0.32932448714E+03  0.32932448714E+03  0.00000000000E+00 0. -1.
         -6    2    1    2    0  503  0.62764536755E+02 -0.66523055270E+01 -0.25851407139E+03  0.31661538574E+03  0.17155797021E+03 0.  0.
        -24    2    3    3    0    0  0.72191027135E+02 -0.25181932899E+00 -0.68007165284E+02  0.12571018357E+03  0.77242914955E+02 0.  0.
          6    2    1    2  501    0 -0.62764536755E+02  0.66523055270E+01  0.16244771088E+03  0.24596722802E+03  0.17357124834E+03 0.  0.
         24    2    5    5    0    0 -0.85711437056E+02 -0.27337865115E+02  0.58522418220E+02  0.13414393712E+03  0.80473058354E+02 0.  0.
          5    1    5    5  501    0  0.22946900301E+02  0.33990170642E+02  0.10392529266E+03  0.11182329090E+03  0.47000000000E+01 0. -1.
        -13    1    6    6    0    0 -0.16100927471E+02 -0.31857210024E+02 -0.92625426854E+01  0.36877044254E+02  0.00000000000E+00 0.  1.
         14    1    6    6    0    0 -0.69610509585E+02  0.45193449090E+01  0.67784960905E+02  0.97266892867E+02  0.00000000000E+00 0. -1.
         -5    1    3    3    0  503 -0.94264903803E+01 -0.64004861980E+01 -0.19050690611E+03  0.19090520218E+03  0.47000000000E+01 0.  1.
         11    1    4    4    0    0  0.58638497326E+02  0.11366384421E+02 -0.83096524881E+02  0.10233621310E+03  0.00000000000E+00 0. -1.
        -12    1    4    4    0    0  0.13552529809E+02 -0.11618203750E+02  0.15089359596E+02  0.23373970472E+02  0.00000000000E+00 0.  1.
</event>
<event>
12    1  0.1594973E-001  0.1991466E+03  0.7818608E-02  0.1150626E+00
         21   -1    0    0  503  502  0.00000000000E+00  0.00000000000E+00  0.23991237092E+04  0.23991237092E+04  0.00000000000E+00 0.  1.
         21   -1    0    0  501  503 -0.00000000000E+00 -0.00000000000E+00 -0.22662602103E+02  0.22662602103E+02  0.00000000000E+00 0.  1.
          6    2    1    2  501    0 -0.71171686157E+02 -0.67972507925E+02  0.55675775974E+03  0.59130242428E+03  0.17312909397E+03 0.  0.
         24    2    3    3    0    0  0.12460460600E+02 -0.13813067793E+02  0.37385797432E+03  0.38297095178E+03  0.80937636621E+02 0.  0.
         -6    2    1    2    0  502  0.71171686157E+02  0.67972507925E+02  0.18197033473E+04  0.18304838870E+04  0.17223622600E+03 0.  0.
        -24    2    5    5    0    0  0.65792278791E+01  0.88861723387E+02  0.14163689593E+04  0.14214493365E+04  0.80482886773E+02 0.  0.
          5    1    3    3  501    0 -0.83632146756E+02 -0.54159440132E+02  0.18289978542E+03  0.20833147250E+03  0.47000000000E+01 0. -1.
        -11    1    4    4    0    0  0.95607641196E+01 -0.17232015435E+02  0.37698841139E+03  0.37750312964E+03  0.00000000000E+00 0.  1.
         12    1    4    4    0    0  0.28996964800E+01  0.34189476415E+01 -0.31304370701E+01  0.54678221351E+01  0.00000000000E+00 0. -1.
         -5    1    5    5    0  502  0.64592458278E+02 -0.20889215462E+02  0.40333438802E+03  0.40903455056E+03  0.47000000000E+01 0.  1.
         13    1    6    6    0    0 -0.77464752808E+01 -0.13968911453E+02  0.15846505749E+03  0.15926805333E+03  0.00000000000E+00 0. -1.
        -14    1    6    6    0    0  0.14325703160E+02  0.10283063484E+03  0.12579039018E+04  0.12621812831E+04  0.00000000000E+00 0.  1.
</event>
<event>
12    1  0.1594973E-001  0.1840510E+03  0.7818608E-02  0.1166208E+00
         21   -1    0    0  501  502  0.00000000000E+00  0.00000000000E+00  0.29634982169E+03  0.29634982169E+03  0.00000000000E+00 0. -1.
         21   -1    0    0  502  503 -0.00000000000E+00 -0.00000000000E+00 -0.11790554955E+03  0.11790554955E+03  0.00000000000E+00 0. -1.
         -6    2    1    2    0  503 -0.19062057509E+02  0.23762625615E+02  0.14539732158E+03  0.22726105269E+03  0.17198598935E+03 0.  0.
        -24    2    3    3    0    0 -0.62108222423E+02  0.54623762963E+02  0.68577217555E+02  0.13383300286E+03  0.79795056955E+02 0.  0.
          6    2    1    2  501    0  0.19062057509E+02 -0.23762625615E+02  0.33046950568E+02  0.18699431856E+03  0.18151239577E+03 0.  0.
         24    2    5    5    0    0  0.75707829857E+02  0.13877262155E+02  0.33456989808E+02  0.11881981593E+03  0.84110193107E+02 0.  0.
          5    1    5    5  501    0 -0.56645772348E+02 -0.37639887769E+02 -0.41003923953E+00  0.68174502627E+02  0.47000000000E+01 0. -1.
        -11    1    6    6    0    0 -0.29591941597E+01  0.30217249896E+02  0.22369047220E+02  0.37712243302E+02  0.00000000000E+00 0.  1.
         12    1    6    6    0    0  0.78667024017E+02 -0.16339987741E+02  0.11087942588E+02  0.81107572630E+02  0.00000000000E+00 0. -1.
         -5    1    3    3    0  503  0.43046164914E+02 -0.30861137349E+02  0.76820104021E+02  0.93428049825E+02  0.47000000000E+01 0.  1.
         11    1    4    4    0    0 -0.30819889662E+02  0.60394198185E+02  0.11905106331E+02  0.68840804251E+02  0.00000000000E+00 0. -1.
        -12    1    4    4    0    0 -0.31288332760E+02 -0.57704352211E+01  0.56672111224E+02  0.64992198610E+02  0.00000000000E+00 0.  1.
</event>
<event>
12    1  0.1594973E-001  0.1748729E+03  0.7818608E-02  0.1174121E+00
         21   -1    0    0  503  502  0.00000000000E+00  0.00000000000E+00  0.54567450923E+02  0.54567450923E+02  0.00000000000E+00 0. -1.
         21   -1    0    0  501  503 -0.00000000000E+00 -0.00000000000E+00 -0.13215094210E+04  0.13215094210E+04  0.00000000000E+00 0. -1.
          6    2    1    2  501    0  0.92467537696E+01  0.27222561348E+02 -0.11572251638E+04  0.11696348681E+04  0.16747857941E+03 0.  0.
         24    2    3    3    0    0  0.69784484064E+02  0.22728434882E+02 -0.79721429997E+03  0.80451170250E+03  0.79385032611E+02 0.  0.
         -6    2    1    2    0  502 -0.92467537696E+01 -0.27222561348E+02 -0.10971680629E+03  0.20644200388E+03  0.17249334213E+03 0.  0.
        -24    2    5    5    0    0 -0.69169929376E+02  0.70902385853E+01 -0.65964386601E+02  0.12456087392E+03  0.79557277473E+02 0.  0.
          5    1    3    3  501    0 -0.60537730295E+02  0.44941264666E+01 -0.36001086384E+03  0.36512316559E+03  0.47000000000E+01 0. -1.
        -11    1    4    4    0    0  0.35376926952E+02  0.33231622155E+02 -0.18564462651E+03  0.19188484835E+03  0.00000000000E+00 0.  1.
         12    1    4    4    0    0  0.34407557113E+02 -0.10503187273E+02 -0.61156967346E+03  0.61262685415E+03  0.00000000000E+00 0. -1.
         -5    1    5    5    0  502  0.59923175606E+02 -0.34312799934E+02 -0.43752419693E+02  0.81881129957E+02  0.47000000000E+01 0.  1.
         13    1    6    6    0    0 -0.66080249030E+01 -0.43377930934E-01  0.18249614998E+02  0.19409181393E+02  0.00000000000E+00 0. -1.
        -14    1    6    6    0    0 -0.62561904473E+02  0.71336165163E+01 -0.84214001599E+02  0.10515169253E+03  0.00000000000E+00 0.  1.
</event>
<event>
12    1  0.1594973E-001  0.1926604E+03  0.7818608E-02  0.1156708E+00
         21   -1    0    0  503  502  0.00000000000E+00  0.00000000000E+00  0.70925673233E+02  0.70925673233E+02  0.00000000000E+00 0. -1.
         21   -1    0    0  501  503 -0.00000000000E+00 -0.00000000000E+00 -0.53893599132E+03  0.53893599132E+03  0.00000000000E+00 0. -1.
          6    2    1    2  501    0  0.32947920200E+02 -0.77433026962E+02 -0.29559434341E+03  0.35131706774E+03  0.17019467418E+03 0.  0.
         24    2    3    3    0    0  0.84511636949E+02 -0.39940713284E+02 -0.17899484965E+03  0.21834330185E+03  0.83049165586E+02 0.  0.
         -6    2    1    2    0  502 -0.32947920200E+02  0.77433026962E+02 -0.17241597468E+03  0.25854459681E+03  0.17331070684E+03 0.  0.
        -24    2    5    5    0    0 -0.43654361766E+02  0.11176397645E+03 -0.94816084577E+02  0.17288786954E+03  0.80642642606E+02 0.  0.
          5    1    3    3  501    0 -0.51563716749E+02 -0.37492313677E+02 -0.11659949376E+03  0.13297376589E+03  0.47000000000E+01 0. -1.
        -11    1    4    4    0    0  0.42431902052E+01 -0.99685202376E+01  0.74532024890E+01  0.13150143961E+02  0.00000000000E+00 0.  1.
         12    1    4    4    0    0  0.80268446743E+02 -0.29972193047E+02 -0.18644805214E+03  0.20519315789E+03  0.00000000000E+00 0. -1.
         -5    1    5    5    0  502  0.10706441566E+02 -0.34330949486E+02 -0.77599890100E+02  0.85656727273E+02  0.47000000000E+01 0.  1.
         13    1    6    6    0    0  0.77140516713E+01  0.82095581306E+02 -0.71534693114E+02  0.10916228003E+03  0.00000000000E+00 0. -1.
        -14    1    6    6    0    0 -0.51368413437E+02  0.29668395142E+02 -0.23281391463E+02  0.63725589506E+02  0.00000000000E+00 0.  1.
</event>
<event>
12    1  0.1594973E-001  0.1835228E+03  0.7818608E-02  0.1164860E+00
         21   -1    0    0  503  502  0.00000000000E+00  0.00000000000E+00  0.25431067091E+03  0.25431067091E+03  0.00000000000E+00 0.  1.
         21   -1    0    0  501  503 -0.00000000000E+00 -0.00000000000E+00 -0.24522062661E+03  0.24522062661E+03  0.00000000000E+00 0.  1.
          6    2    1    2  501    0  0.61230015293E+01 -0.63940121380E+02 -0.16581274873E+03  0.24601283361E+03  0.17000769509E+03 0.  0.
         24    2    3    3    0    0 -0.20267810797E+02 -0.15534399265E+02 -0.17039294897E+03  0.19049115188E+03  0.81246662525E+02 0.  0.
         -6    2    1    2    0  502 -0.61230015293E+01  0.63940121380E+02  0.17490279304E+03  0.25351846390E+03  0.17191507862E+03 0.  0.
        -24    2    5    5    0    0 -0.25588695794E+02  0.10534780163E+03  0.10381463372E+03  0.16884777457E+03  0.77324977466E+02 0.  0.
          5    1    3    3  501    0  0.26390812327E+02 -0.48405722115E+02  0.45802002314E+01  0.55521681737E+02  0.47000000000E+01 0. -1.
        -11    1    4    4    0    0  0.18784825528E+02 -0.36016144506E+02 -0.91473163016E+02  0.10008682175E+03  0.00000000000E+00 0.  1.
         12    1    4    4    0    0 -0.39052636326E+02  0.20481745241E+02 -0.78919785950E+02  0.90404330131E+02  0.00000000000E+00 0. -1.
         -5    1    5    5    0  502  0.19465694265E+02 -0.41407680255E+02  0.71088159317E+02  0.84670689334E+02  0.47000000000E+01 0.  1.
         13    1    6    6    0    0  0.86031707100E+01  0.33717045404E+02 -0.39353235930E+01  0.35019144319E+02  0.00000000000E+00 0. -1.
        -14    1    6    6    0    0 -0.34191866504E+02  0.71630756231E+02  0.10774995731E+03  0.13382863025E+03  0.00000000000E+00 0.  1.
</event>
<event>
12    1  0.1594973E-001  0.1791254E+03  0.7818608E-02  0.1169614E+00
         21   -1    0    0  503  502  0.00000000000E+00  0.00000000000E+00  0.11116916678E+03  0.11116916678E+03  0.00000000000E+00 0. -1.
         21   -1    0    0  501  503 -0.00000000000E+00 -0.00000000000E+00 -0.48084035700E+03  0.48084035700E+03  0.00000000000E+00 0. -1.
          6    2    1    2  501    0 -0.43932772390E+02  0.14597379520E+02 -0.37619955977E+03  0.41666776465E+03  0.17303972188E+03 0.  0.
         24    2    3    3    0    0  0.38232136047E+00 -0.31986141622E+02 -0.31913231791E+03  0.33057123702E+03  0.80054025417E+02 0.  0.
         -6    2    1    2    0  502  0.43932772390E+02 -0.14597379520E+02  0.65283695531E+01  0.17534175913E+03  0.16899390790E+03 0.  0.
        -24    2    5    5    0    0  0.30682561048E+02 -0.70051783424E+02  0.27626337731E+02  0.11436657341E+03  0.80422799400E+02 0.  0.
          5    1    3    3  501    0 -0.44315093750E+02  0.46583521142E+02 -0.57067241859E+02  0.86096527627E+02  0.47000000000E+01 0. -1.
        -13    1    4    4    0    0  0.40789524864E+01 -0.45553111369E+02 -0.89498003321E+02  0.10050679782E+03  0.00000000000E+00 0.  1.
         14    1    4    4    0    0 -0.36966311260E+01  0.13566969748E+02 -0.22963431459E+03  0.23006443921E+03  0.00000000000E+00 0. -1.
         -5    1    5    5    0  502  0.13250211342E+02  0.55454403904E+02 -0.21097968178E+02  0.60975185725E+02  0.47000000000E+01 0.  1.
         11    1    6    6    0    0  0.42695961970E+01  0.18231742391E+02  0.65449937876E+01  0.19835897408E+02  0.00000000000E+00 0. -1.
        -12    1    6    6    0    0  0.26412964851E+02 -0.88283525816E+02  0.21081343944E+02  0.94530676000E+02  0.00000000000E+00 0.  1.
</event>
<event>
12    1  0.1594973E-001  0.1979148E+03  0.7818608E-02  0.1152322E+00
         21   -1    0    0  503  502  0.00000000000E+00  0.00000000000E+00  0.69202953913E+03  0.69202953913E+03  0.00000000000E+00 0. -1.
         21   -1    0    0  501  503 -0.00000000000E+00 -0.00000000000E+00 -0.68322311945E+02  0.68322311945E+02  0.00000000000E+00 0. -1.
          6    2    1    2  501    0  0.10788075065E+02 -0.94861310007E+02  0.14980285346E+03  0.24821597368E+03  0.17336442537E+03 0.  0.
         24    2    3    3    0    0 -0.37188862587E+02 -0.54698764332E+02  0.15275015391E+03  0.18540201662E+03  0.81647608226E+02 0.  0.
         -6    2    1    2    0  502 -0.10788075065E+02  0.94861310007E+02  0.47390437373E+03  0.51213587740E+03  0.16906433918E+03 0.  0.
        -24    2    5    5    0    0 -0.41185287065E+01 -0.89633868007E+01  0.27086065498E+03  0.28394102155E+03  0.84615038364E+02 0.  0.
          5    1    3    3  501    0  0.47976937651E+02 -0.40162545675E+02 -0.29473004453E+01  0.62813957059E+02  0.47000000000E+01 0. -1.
        -11    1    4    4    0    0 -0.22877666330E+02 -0.75799954767E+02  0.12222359689E+03  0.14562839145E+03  0.00000000000E+00 0.  1.
         12    1    4    4    0    0 -0.14311196256E+02  0.21101190435E+02  0.30526557019E+02  0.39773625174E+02  0.00000000000E+00 0. -1.
         -5    1    5    5    0  502 -0.66695463580E+01  0.10382469681E+03  0.20304371874E+03  0.22819485585E+03  0.47000000000E+01 0.  1.
         11    1    6    6    0    0  0.18961514303E+02 -0.97958275791E+01  0.25507566687E+03  0.25596697656E+03  0.00000000000E+00 0. -1.
        -12    1    6    6    0    0 -0.23080043010E+02  0.83244077840E+00  0.15784988116E+02  0.27974044985E+02  0.00000000000E+00 0.  1.
</event>
<event>
12    1  0.1594973E-001  0.2082363E+03  0.7818608E-02  0.1144664E+00
         21   -1    0    0  501  502  0.00000000000E+00  0.00000000000E+00  0.95820062623E+02  0.95820062623E+02  0.00000000000E+00 0. -1.
         21   -1    0    0  502  503 -0.00000000000E+00 -0.00000000000E+00 -0.46613576505E+03  0.46613576505E+03  0.00000000000E+00 0. -1.
         -6    2    1    2    0  503 -0.79027932366E+02 -0.84676296157E+02 -0.25457600338E+03  0.32371641030E+03  0.16299657535E+03 0.  0.
        -24    2    3    3    0    0  0.12343662605E+02 -0.61424453175E+02 -0.16314617562E+03  0.19229753809E+03  0.80226797772E+02 0.  0.
          6    2    1    2  501    0  0.79027932366E+02  0.84676296157E+02 -0.11573969905E+03  0.23823941737E+03  0.17305159008E+03 0.  0.
         24    2    5    5    0    0  0.27892467054E+02  0.82355813999E+02 -0.64137064369E+01  0.11743178884E+03  0.78667779829E+02 0.  0.
          5    1    5    5  501    0  0.51135465312E+02  0.23204821581E+01 -0.10932599261E+03  0.12080762853E+03  0.47000000000E+01 0. -1.
        -11    1    6    6    0    0 -0.16352830526E+02 -0.35184642014E+01  0.99359308426E+01  0.19455523078E+02  0.00000000000E+00 0.  1.
         12    1    6    6    0    0  0.44245297580E+02  0.85874278200E+02 -0.16349637279E+02  0.97976265766E+02  0.00000000000E+00 0. -1.
         -5    1    3    3    0  503 -0.91371594971E+02 -0.23251842982E+02 -0.91429827755E+02  0.13141887221E+03  0.47000000000E+01 0.  1.
         11    1    4    4    0    0 -0.12273267800E+02 -0.50965134904E+01  0.42650375561E+01  0.13957008906E+02  0.00000000000E+00 0. -1.
        -12    1    4    4    0    0  0.24616930405E+02 -0.56327939684E+02 -0.16741121318E+03  0.17834052918E+03  0.00000000000E+00 0.  1.
</event>
<event>
12    1  0.1594973E-001  0.2061786E+03  0.7818608E-02  0.1148296E+00
         21   -1    0    0  501  502  0.00000000000E+00  0.00000000000E+00  0.26598244398E+03  0.26598244398E+03  0.00000000000E+00 0. -1.
         21   -1    0    0  502  503 -0.00000000000E+00 -0.00000000000E+00 -0.14741127740E+03  0.14741127740E+03  0.00000000000E+00 0. -1.
         -6    2    1    2    0  503  0.50385198602E+02 -0.81651995898E+02  0.76026488415E+02  0.21974901990E+03  0.18249352902E+03 0.  0.
        -24    2    3    3    0    0  0.51641276006E+02  0.21799702488E+02  0.12630487901E+02  0.98320133261E+02  0.79782648262E+02 0.  0.
          6    2    1    2  501    0 -0.50385198602E+02  0.81651995898E+02  0.42544678161E+02  0.19364470149E+03  0.16273445886E+03 0.  0.
         24    2    5    5    0    0  0.11620056242E+02  0.47345026201E+02 -0.20203913414E+02  0.98876059294E+02  0.83616384587E+02 0.  0.
          5    1    5    5  501    0 -0.62005254844E+02  0.34306969697E+02  0.62748591575E+02  0.94768642191E+02  0.47000000000E+01 0. -1.
        -13    1    6    6    0    0 -0.62986068308E+01  0.41672958742E+02 -0.48910316652E+02  0.64564131012E+02  0.00000000000E+00 0.  1.
         14    1    6    6    0    0  0.17918663073E+02  0.56720674595E+01  0.28706403239E+02  0.34311928283E+02  0.00000000000E+00 0. -1.
         -5    1    3    3    0  503 -0.12560774040E+01 -0.10345169839E+03  0.63396000514E+02  0.12142888664E+03  0.47000000000E+01 0.  1.
         13    1    4    4    0    0  0.49273126054E+02  0.28652971665E+02  0.40241723793E+02  0.69772702902E+02  0.00000000000E+00 0. -1.
        -14    1    4    4    0    0  0.23681499521E+01 -0.68532691769E+01 -0.27611235892E+02  0.28547430359E+02  0.00000000000E+00 0.  1.
</event>
<event>
12    1  0.1594973E-001  0.3286712E+03  0.7818608E-02  0.1072913E+00
         21   -1    0    0  503  502  0.00000000000E+00  0.00000000000E+00  0.21638488499E+04  0.21638488499E+04  0.00000000000E+00 0. -1.
         21   -1    0    0  501  503 -0.00000000000E+00 -0.00000000000E+00 -0.54440288970E+02  0.54440288970E+02  0.00000000000E+00 0.  1.
          6    2    1    2  501    0  0.19341595812E+03 -0.19358737545E+03  0.14107053001E+04  0.14461421242E+04  0.16233235922E+03 0.  0.
         24    2    3    3    0    0  0.11891241905E+03 -0.40521752566E+02  0.60450384073E+03  0.62215016712E+03  0.76575199302E+02 0.  0.
         -6    2    1    2    0  502 -0.19341595812E+03  0.19358737545E+03  0.69870326088E+03  0.77214701472E+03  0.18204109645E+03 0.  0.
        -24    2    5    5    0    0 -0.18485247527E+03  0.20917702780E+03  0.54826959974E+03  0.62059257929E+03  0.81302699163E+02 0.  0.
          5    1    3    3  501    0  0.74503539070E+02 -0.15306562288E+03  0.80620145935E+03  0.82399195706E+03  0.47000000000E+01 0. -1.
        -13    1    4    4    0    0  0.35119050754E+02 -0.35506425129E+01  0.57041459203E+02  0.67079675433E+02  0.00000000000E+00 0.  1.
         14    1    4    4    0    0  0.83793368294E+02 -0.36971110053E+02  0.54746238153E+03  0.55507049168E+03  0.00000000000E+00 0. -1.
         -5    1    5    5    0  502 -0.85634828510E+01 -0.15589652347E+02  0.15043366114E+03  0.15155443544E+03  0.47000000000E+01 0.  1.
         11    1    6    6    0    0 -0.25506636091E+02  0.57195807066E+02  0.69153550900E+02  0.93296100844E+02  0.00000000000E+00 0. -1.
        -12    1    6    6    0    0 -0.15934583918E+03  0.15198122073E+03  0.47911604884E+03  0.52729647844E+03  0.00000000000E+00 0.  1.
</event>
<event>
12    1  0.1594973E-001  0.1806009E+03  0.7818608E-02  0.1167349E+00
         21   -1    0    0  501  502  0.00000000000E+00  0.00000000000E+00  0.72829694197E+03  0.72829694197E+03  0.00000000000E+00 0.  1.
         21   -1    0    0  502  503 -0.00000000000E+00 -0.00000000000E+00 -0.45067682773E+02  0.45067682773E+02  0.00000000000E+00 0.  1.
         -6    2    1    2    0  503 -0.42017698417E+02 -0.33086389528E+02  0.37907469108E+03  0.41989795517E+03  0.17250065272E+03 0.  0.
        -24    2    3    3    0    0 -0.80064253621E+02  0.62750327539E+01  0.31865538421E+03  0.33823128774E+03  0.80059286628E+02 0.  0.
          6    2    1    2  501    0  0.42017698417E+02  0.33086389528E+02  0.30415456812E+03  0.35346666958E+03  0.17195490408E+03 0.  0.
         24    2    5    5    0    0  0.75099216180E+02 -0.15875917600E+02  0.24884816607E+03  0.27239520453E+03  0.79886173168E+02 0.  0.
          5    1    5    5  501    0 -0.33081517762E+02  0.48962307128E+02  0.55306402050E+02  0.81071465045E+02  0.47000000000E+01 0. -1.
        -11    1    6    6    0    0  0.65367456735E+02 -0.31504582970E+01  0.82628892787E+02  0.10540571005E+03  0.00000000000E+00 0.  1.
         12    1    6    6    0    0  0.97317594450E+01 -0.12725459303E+02  0.16621927328E+03  0.16698949448E+03  0.00000000000E+00 0. -1.
         -5    1    3    3    0  503  0.38046555204E+02 -0.39361422282E+02  0.60419306863E+02  0.81666667428E+02  0.47000000000E+01 0.  1.
         13    1    4    4    0    0  0.86066616456E+00  0.23130453989E+02  0.29524193178E+02  0.37515818407E+02  0.00000000000E+00 0. -1.
        -14    1    4    4    0    0 -0.80924919786E+02 -0.16855421235E+02  0.28913119104E+03  0.30071546934E+03  0.00000000000E+00 0.  1.
</event>
<event>
12    1  0.1594973E-001  0.2274986E+03  0.7818608E-02  0.1128525E+00
         21   -1    0    0  501  502  0.00000000000E+00  0.00000000000E+00  0.14228094305E+03  0.14228094305E+03  0.00000000000E+00 0. -1.
         21   -1    0    0  502  503 -0.00000000000E+00 -0.00000000000E+00 -0.36386392602E+03  0.36386392602E+03  0.00000000000E+00 0. -1.
         -6    2    1    2    0  503 -0.60398055976E+02 -0.13562694457E+03 -0.96682838710E+02  0.24661515044E+03  0.17154844174E+03 0.  0.
        -24    2    3    3    0    0  0.60385882406E+01 -0.61155899374E+02  0.11724248244E+02  0.99190760429E+02  0.76972984751E+02 0.  0.
          6    2    1    2  501    0  0.60398055976E+02  0.13562694457E+03 -0.12490014426E+03  0.25952971863E+03  0.17237469524E+03 0.  0.
         24    2    5    5    0    0  0.27535382553E+02  0.33660730115E+02 -0.12158629631E+03  0.15224441776E+03  0.80646718754E+02 0.  0.
          5    1    5    5  501    0  0.32862673422E+02  0.10196621445E+03 -0.33138479515E+01  0.10728530087E+03  0.47000000000E+01 0. -1.
        -11    1    6    6    0    0 -0.14718378312E+02  0.44411192821E+02 -0.75344901248E+02  0.88689564505E+02  0.00000000000E+00 0.  1.
         12    1    6    6    0    0  0.42253760865E+02 -0.10750462706E+02 -0.46241395060E+02  0.63554853259E+02  0.00000000000E+00 0. -1.
         -5    1    3    3    0  503 -0.66436644216E+02 -0.74471045194E+02 -0.10840708695E+03  0.14742439001E+03  0.47000000000E+01 0.  1.
         13    1    4    4    0    0 -0.31643669006E+02 -0.47201724583E+02 -0.16193057403E+01  0.56850213217E+02  0.00000000000E+00 0. -1.
        -14    1    4    4    0    0  0.37682257247E+02 -0.13954174791E+02  0.13343553984E+02  0.42340547212E+02  0.00000000000E+00 0.  1.
</event>
<event>
12    1  0.1594973E-001  0.2075181E+03  0.7818608E-02  0.1143797E+00
         21   -1    0    0  501  502  0.00000000000E+00  0.00000000000E+00  0.26090311880E+03  0.26090311880E+03  0.00000000000E+00 0. -1.
         21   -1    0    0  502  503 -0.00000000000E+00 -0.00000000000E+00 -0.16435694115E+03  0.16435694115E+03  0.00000000000E+00 0.  1.
         -6    2    1    2    0  503  0.11158074722E+03 -0.23007453376E+02  0.56997491592E+02  0.21400703661E+03  0.17196130847E+03 0.  0.
        -24    2    3    3    0    0  0.28821217462E+02  0.32541232292E+02  0.32338874259E+01  0.10066061462E+03  0.90733163358E+02 0.  0.
          6    2    1    2  501    0 -0.11158074722E+03  0.23007453376E+02  0.39548686061E+02  0.21125302334E+03  0.17344778822E+03 0.  0.
         24    2    5    5    0    0 -0.13098896643E+03 -0.22142474894E+02  0.45718400646E+02  0.16150013022E+03  0.79647481948E+02 0.  0.
          5    1    5    5  501    0  0.19408219211E+02  0.45149928270E+02 -0.61697145850E+01  0.49752893120E+02  0.47000000000E+01 0. -1.
        -13    1    6    6    0    0 -0.13620812662E+03 -0.43683292708E+01  0.38427380056E+02  0.14159237125E+03  0.00000000000E+00 0.  1.
         14    1    6    6    0    0  0.52191601904E+01 -0.17774145623E+02  0.72910205899E+01  0.19907758964E+02  0.00000000000E+00 0. -1.
         -5    1    3    3    0  503  0.82759529760E+02 -0.55548685668E+02  0.53763604166E+02  0.11334642199E+03  0.47000000000E+01 0.  1.
         13    1    4    4    0    0  0.41396716600E+02  0.54869073395E+02 -0.13511203909E+02  0.70048954250E+02  0.00000000000E+00 0. -1.
        -14    1    4    4    0    0 -0.12575499138E+02 -0.22327841103E+02  0.16745091334E+02  0.30611660371E+02  0.00000000000E+00 0.  1.
</event>
<event>
12    1  0.1594973E-001  0.1733620E+03  0.7818608E-02  0.1174459E+00
         21   -1    0    0  503  502  0.00000000000E+00  0.00000000000E+00  0.14242062301E+03  0.14242062301E+03  0.00000000000E+00 0. -1.
         21   -1    0    0  501  503 -0.00000000000E+00 -0.00000000000E+00 -0.29688305378E+03  0.29688305378E+03  0.00000000000E+00 0. -1.
          6    2    1    2  501    0 -0.22782542273E+00  0.19172028408E+02 -0.19563656084E+03  0.26139636724E+03  0.17229851505E+03 0.  0.
         24    2    3    3    0    0 -0.14678198017E+02 -0.29215346514E+02 -0.19345633781E+03  0.21063225893E+03  0.76626417722E+02 0.  0.
         -6    2    1    2    0  502  0.22782542273E+00 -0.19172028408E+02  0.41174130074E+02  0.17790730954E+03  0.17201186942E+03 0.  0.
        -24    2    5    5    0    0 -0.38902028490E+02  0.43764575494E+02  0.20644249800E+02  0.10086363646E+03  0.79489510131E+02 0.  0.
          5    1    3    3  501    0  0.14450372595E+02  0.48387374922E+02 -0.21802230302E+01  0.50764108309E+02  0.47000000000E+01 0. -1.
        -11    1    4    4    0    0  0.22551386556E+02  0.12745266741E+02 -0.44882279694E+02  0.51821095034E+02  0.00000000000E+00 0.  1.
         12    1    4    4    0    0 -0.37229584574E+02 -0.41960613255E+02 -0.14857405812E+03  0.15881116390E+03  0.00000000000E+00 0. -1.
         -5    1    5    5    0  502  0.39129853913E+02 -0.62936603903E+02  0.20529880274E+02  0.77043673083E+02  0.47000000000E+01 0.  1.
         11    1    6    6    0    0  0.25919162041E+01  0.16227395439E+02  0.43180467453E+02  0.46201722498E+02  0.00000000000E+00 0. -1.
        -12    1    6    6    0    0 -0.41493944694E+02  0.27537180055E+02 -0.22536217653E+02  0.54661913960E+02  0.00000000000E+00 0.  1.
</event>
<event>
12    1  0.1594973E-001  0.2714494E+03  0.7818608E-02  0.1100496E+00
         21   -1    0    0  501  502  0.00000000000E+00  0.00000000000E+00  0.16579474751E+04  0.16579474751E+04  0.00000000000E+00 0. -1.
         21   -1    0    0  502  503 -0.00000000000E+00 -0.00000000000E+00 -0.44458827612E+02  0.44458827612E+02  0.00000000000E+00 0. -1.
         -6    2    1    2    0  503  0.19534641984E+03  0.76385356738E+02  0.77467307216E+03  0.82085514392E+03  0.17230743483E+03 0.  0.
        -24    2    3    3    0    0  0.14978437188E+03  0.11931701132E+03  0.62520790810E+03  0.65874113328E+03  0.79893961408E+02 0.  0.
          6    2    1    2  501    0 -0.19534641984E+03 -0.76385356738E+02  0.83881557529E+03  0.88155115876E+03  0.17183110802E+03 0.  0.
         24    2    5    5    0    0 -0.12949808037E+03  0.13466913267E+02  0.58356990307E+03  0.60301592324E+03  0.78251270533E+02 0.  0.
          5    1    5    5  501    0 -0.65848339471E+02 -0.89852270005E+02  0.25524567223E+03  0.27853523552E+03  0.47000000000E+01 0. -1.
        -11    1    6    6    0    0 -0.20665932606E+02  0.21359404273E+02  0.48101384557E+02  0.56542445275E+02  0.00000000000E+00 0.  1.
         12    1    6    6    0    0 -0.10883214777E+03 -0.78924910067E+01  0.53546851851E+03  0.54647347796E+03  0.00000000000E+00 0. -1.
         -5    1    3    3    0  503  0.45562047963E+02 -0.42931654577E+02  0.14946516406E+03  0.16211401065E+03  0.47000000000E+01 0.  1.
         11    1    4    4    0    0  0.11635205648E+03  0.69363400052E+02  0.52215119424E+03  0.53943577186E+03  0.00000000000E+00 0. -1.
        -12    1    4    4    0    0  0.33432315406E+02  0.49953611263E+02  0.10305671386E+03  0.11930536142E+03  0.00000000000E+00 0.  1.
</event>
<event>
12    1  0.1594973E-001  0.3146985E+03  0.7818608E-02  0.1078565E+00
         21   -1    0    0  503  502  0.00000000000E+00  0.00000000000E+00  0.58121329916E+03  0.58121329916E+03  0.00000000000E+00 0.  1.
         21   -1    0    0  501  503 -0.00000000000E+00 -0.00000000000E+00 -0.25937962156E+03  0.25937962156E+03  0.00000000000E+00 0. -1.
          6    2    1    2  501    0 -0.22207281292E+03  0.14245508322E+03 -0.88711289506E+02  0.32330929827E+03  0.16446709240E+03 0.  0.
         24    2    3    3    0    0 -0.65721347827E+02  0.92503455973E+02 -0.37190076298E+02  0.15121202602E+03  0.92767397894E+02 0.  0.
         -6    2    1    2    0  502  0.22207281292E+03 -0.14245508322E+03  0.41054496711E+03  0.51728362245E+03  0.17153830786E+03 0.  0.
        -24    2    5    5    0    0  0.16228447006E+03 -0.14526182047E+03  0.22911421162E+03  0.32617702195E+03  0.80379611690E+02 0.  0.
          5    1    3    3  501    0 -0.15635146510E+03  0.49951627251E+02 -0.51521213208E+02  0.17209727224E+03  0.47000000000E+01 0. -1.
        -13    1    4    4    0    0 -0.10223675906E+02  0.29915196982E+01 -0.44385778020E+02  0.45646139263E+02  0.00000000000E+00 0.  1.
         14    1    4    4    0    0 -0.55497671921E+02  0.89511936275E+02  0.71957017225E+01  0.10556588676E+03  0.00000000000E+00 0. -1.
         -5    1    5    5    0  502  0.59788342867E+02  0.28067372473E+01  0.18143075549E+03  0.19110660050E+03  0.47000000000E+01 0.  1.
         13    1    6    6    0    0  0.64347654726E+01 -0.40407498007E+02  0.21578365949E+02  0.46257950440E+02  0.00000000000E+00 0. -1.
        -14    1    6    6    0    0  0.15584970458E+03 -0.10485432246E+03  0.20753584567E+03  0.27991907151E+03  0.00000000000E+00 0.  1.
</event>
<event>
12    1  0.1594973E-001  0.2228893E+03  0.7818608E-02  0.1131898E+00
         21   -1    0    0  501  502  0.00000000000E+00  0.00000000000E+00  0.16119125224E+03  0.16119125224E+03  0.00000000000E+00 0.  1.
         21   -1    0    0  502  503 -0.00000000000E+00 -0.00000000000E+00 -0.50598111333E+03  0.50598111333E+03  0.00000000000E+00 0.  1.
         -6    2    1    2    0  503  0.11243444544E+03  0.84027726723E+02 -0.38174333978E+03  0.44204934324E+03  0.17314006183E+03 0.  0.
        -24    2    3    3    0    0  0.78007882754E+02 -0.13916649206E+02 -0.16430651231E+03  0.20105317536E+03  0.84539023148E+02 0.  0.
          6    2    1    2  501    0 -0.11243444544E+03 -0.84027726723E+02  0.36953478689E+02  0.22512302234E+03  0.17208327117E+03 0.  0.
         24    2    5    5    0    0 -0.92266999651E+02 -0.21827287519E+02 -0.32572103021E+02  0.12956405091E+03  0.82074793263E+02 0.  0.
          5    1    5    5  501    0 -0.20167445792E+02 -0.62200439204E+02  0.69525581710E+02  0.95558971421E+02  0.47000000000E+01 0. -1.
        -13    1    6    6    0    0 -0.41222382416E+01 -0.35766089605E+02 -0.64186979990E+01  0.36570557800E+02  0.00000000000E+00 0.  1.
         14    1    6    6    0    0 -0.88144761409E+02  0.13938802086E+02 -0.26153405022E+02  0.92993493115E+02  0.00000000000E+00 0. -1.
         -5    1    3    3    0  503  0.34426562688E+02  0.97944375928E+02 -0.21743682747E+03  0.24099616788E+03  0.47000000000E+01 0.  1.
         11    1    4    4    0    0  0.32504379017E+02 -0.43981335765E+02 -0.48707646536E+02  0.73234741633E+02  0.00000000000E+00 0. -1.
        -12    1    4    4    0    0  0.45503503737E+02  0.30064686559E+02 -0.11559886578E+03  0.12781843372E+03  0.00000000000E+00 0.  1.
</event>
<event>
12    1  0.1594973E-001  0.1774897E+03  0.7818608E-02  0.1170293E+00
         21   -1    0    0  503  502  0.00000000000E+00  0.00000000000E+00  0.13475163315E+03  0.13475163315E+03  0.00000000000E+00 0. -1.
         21   -1    0    0  501  503 -0.00000000000E+00 -0.00000000000E+00 -0.26408610841E+03  0.26408610841E+03  0.00000000000E+00 0. -1.
          6    2    1    2  501    0 -0.32628594754E+02 -0.29349975309E+02  0.30887987505E+01  0.17751661183E+03  0.17197837233E+03 0.  0.
         24    2    3    3    0    0 -0.44721245804E+02  0.44092753151E+02 -0.10172390995E+02  0.10176692056E+03  0.79428382053E+02 0.  0.
         -6    2    1    2    0  502  0.32628594754E+02  0.29349975309E+02 -0.13242327401E+03  0.22132112974E+03  0.17181697449E+03 0.  0.
        -24    2    5    5    0    0 -0.35792174376E+02  0.10408806634E+02 -0.23364482157E+02  0.91105617603E+02  0.79780395652E+02 0.  0.
          5    1    3    3  501    0  0.12092651051E+02 -0.73442728460E+02  0.13261189746E+02  0.75749691263E+02  0.47000000000E+01 0. -1.
        -11    1    4    4    0    0  0.17009415582E+02  0.30594180823E+02  0.82170685648E+01  0.35956144599E+02  0.00000000000E+00 0.  1.
         12    1    4    4    0    0 -0.61730661386E+02  0.13498572328E+02 -0.18389459560E+02  0.65810775964E+02  0.00000000000E+00 0. -1.
         -5    1    5    5    0  502  0.68420769130E+02  0.18941168674E+02 -0.10905879186E+03  0.13021551213E+03  0.47000000000E+01 0.  1.
         11    1    6    6    0    0  0.90665757068E+01 -0.27628898762E+02 -0.51175209657E+01  0.29525376588E+02  0.00000000000E+00 0. -1.
        -12    1    6    6    0    0 -0.44858750083E+02  0.38037705396E+02 -0.18246961192E+02  0.61580241015E+02  0.00000000000E+00 0.  1.
</event>
<event>
12    1  0.1594973E-001  0.1987230E+03  0.7818608E-02  0.1151511E+00
         21   -1    0    0  501  502  0.00000000000E+00  0.00000000000E+00  0.17819886470E+03  0.17819886470E+03  0.00000000000E+00 0. -1.
         21   -1    0    0  502  503 -0.00000000000E+00 -0.00000000000E+00 -0.51471560804E+03  0.51471560804E+03  0.00000000000E+00 0.  1.
         -6    2    1    2    0  503  0.96114480754E+02  0.25002548595E+02 -0.43070418180E+03  0.47300060981E+03  0.16840535565E+03 0.  0.
        -24    2    3    3    0    0 -0.21342381637E+02 -0.19578700378E+02 -0.14917412226E+03  0.16467469992E+03  0.63450888724E+02 0.  0.
          6    2    1    2  501    0 -0.96114480754E+02 -0.25002548595E+02  0.94187438460E+02  0.21991386293E+03  0.17212702489E+03 0.  0.
         24    2    5    5    0    0 -0.78099623996E+01 -0.50412323904E+02  0.81736150571E+02  0.12706738096E+03  0.82842761187E+02 0.  0.
          5    1    5    5  501    0 -0.88304518355E+02  0.25409775309E+02  0.12451287889E+02  0.92846481964E+02  0.47000000000E+01 0. -1.
        -13    1    6    6    0    0 -0.23162593079E+02 -0.59664221041E+02  0.26988595116E+02  0.69460127101E+02  0.00000000000E+00 0.  1.
         14    1    6    6    0    0  0.15352630679E+02  0.92518971373E+01  0.54747555455E+02  0.57607253864E+02  0.00000000000E+00 0. -1.
         -5    1    3    3    0  503  0.11745686239E+03  0.44581248973E+02 -0.28153005954E+03  0.30832590989E+03  0.47000000000E+01 0.  1.
         13    1    4    4    0    0 -0.35224503412E+02  0.10382346320E+02 -0.79509695984E+02  0.87580537286E+02  0.00000000000E+00 0. -1.
        -14    1    4    4    0    0  0.13882121775E+02 -0.29961046699E+02 -0.69664426273E+02  0.77094162634E+02  0.00000000000E+00 0.  1.
</event>
<event>
12    1  0.1594973E-001  0.1778172E+03  0.7818608E-02  0.1170248E+00
         21   -1    0    0  503  502  0.00000000000E+00  0.00000000000E+00  0.94260700496E+02  0.94260700496E+02  0.00000000000E+00 0.  1.
         21   -1    0    0  501  503 -0.00000000000E+00 -0.00000000000E+00 -0.57294050831E+03  0.57294050831E+03  0.00000000000E+00 0.  1.
          6    2    1    2  501    0 -0.36844496507E+02 -0.28729104420E+02 -0.45571224627E+03  0.48917543007E+03  0.17156943673E+03 0.  0.
         24    2    3    3    0    0 -0.13100592396E+02 -0.46366416487E+02 -0.11858045138E+03  0.15071600135E+03  0.79577129355E+02 0.  0.
         -6    2    1    2    0  502  0.36844496507E+02  0.28729104420E+02 -0.22967561544E+02  0.17802577873E+03  0.17024332776E+03 0.  0.
        -24    2    5    5    0    0  0.54151529769E+02 -0.35963126762E+02 -0.36279060590E+02  0.10958672422E+03  0.80419806178E+02 0.  0.
          5    1    3    3  501    0 -0.23743904111E+02  0.17637312067E+02 -0.33713179489E+03  0.33845942872E+03  0.47000000000E+01 0. -1.
        -13    1    4    4    0    0 -0.23699526562E+02 -0.14413880973E+02 -0.11329229923E+03  0.11663864106E+03  0.00000000000E+00 0.  1.
         14    1    4    4    0    0  0.10598934167E+02 -0.31952535515E+02 -0.52881521454E+01  0.34077360291E+02  0.00000000000E+00 0. -1.
         -5    1    5    5    0  502 -0.17307033262E+02  0.64692231182E+02  0.13311499046E+02  0.68439054512E+02  0.47000000000E+01 0.  1.
         13    1    6    6    0    0  0.23929835789E+02 -0.36567986729E+02 -0.57813704339E+02  0.72472609334E+02  0.00000000000E+00 0. -1.
        -14    1    6    6    0    0  0.30221693981E+02  0.60485996672E+00  0.21534643749E+02  0.37114114889E+02  0.00000000000E+00 0.  1.
</event>
<event>
12    1  0.1594973E-001  0.1856061E+03  0.7818608E-02  0.1162714E+00
         21   -1    0    0  501  502  0.00000000000E+00  0.00000000000E+00  0.16043682537E+04  0.16043682537E+04  0.00000000000E+00 0. -1.
         21   -1    0    0  502  503 -0.00000000000E+00 -0.00000000000E+00 -0.24945678372E+02  0.24945678372E+02  0.00000000000E+00 0. -1.
         -6    2    1    2    0  503  0.14923085496E+02 -0.65715161643E+02  0.48259836788E+03  0.51705975736E+03  0.17294053038E+03 0.  0.
        -24    2    3    3    0    0 -0.61078791053E+01 -0.31119677926E+02  0.46563049813E+03  0.47291060596E+03  0.76334395211E+02 0.  0.
          6    2    1    2  501    0 -0.14923085496E+02  0.65715161643E+02  0.10968242075E+04  0.11122541747E+04  0.17188608489E+03 0.  0.
         24    2    5    5    0    0  0.13965400814E+02  0.42122273616E+02  0.27984544344E+03  0.29441093799E+03  0.79968805437E+02 0.  0.
          5    1    5    5  501    0 -0.28888486310E+02  0.23592888027E+02  0.81697876405E+03  0.81784323676E+03  0.47000000000E+01 0. -1.
        -13    1    6    6    0    0  0.24023899120E+02 -0.15685727358E+02  0.54980556898E+02  0.62016541410E+02  0.00000000000E+00 0.  1.
         14    1    6    6    0    0 -0.10058498306E+02  0.57808000974E+02  0.22486488654E+03  0.23239439658E+03  0.00000000000E+00 0. -1.
         -5    1    3    3    0  503  0.21030964602E+02 -0.34595483717E+02  0.16967869745E+02  0.44149151400E+02  0.47000000000E+01 0.  1.
         11    1    4    4    0    0 -0.33620416935E+02 -0.25293341273E+02  0.14310675055E+03  0.14916309061E+03  0.00000000000E+00 0. -1.
        -12    1    4    4    0    0  0.27512537830E+02 -0.58263366528E+01  0.32252374759E+03  0.32374751535E+03  0.00000000000E+00 0.  1.
</event>
<event>
12    1  0.1594973E-001  0.2301535E+03  0.7818608E-02  0.1126656E+00
         21   -1    0    0  503  502  0.00000000000E+00  0.00000000000E+00  0.21041934406E+03  0.21041934406E+03  0.00000000000E+00 0.  1.
         21   -1    0    0  501  503 -0.00000000000E+00 -0.00000000000E+00 -0.28580720040E+03  0.28580720040E+03  0.00000000000E+00 0.  1.
          6    2    1    2  501    0 -0.32690302450E+02 -0.14826526066E+03 -0.12437383146E+03  0.26160943714E+03  0.17297226440E+03 0.  0.
         24    2    3    3    0    0  0.33115256031E+01 -0.15647801893E+03 -0.56625132008E+02  0.18430770818E+03  0.79161790730E+02 0.  0.
         -6    2    1    2    0  502  0.32690302450E+02  0.14826526066E+03  0.48985975131E+02  0.23461710732E+03  0.17202999126E+03 0.  0.
        -24    2    5    5    0    0  0.66500009659E+01  0.89257598854E+02  0.98187262532E+02  0.15335913457E+03  0.76597285633E+02 0.  0.
          5    1    3    3  501    0 -0.36001828053E+02  0.82127582641E+01 -0.67748699457E+02  0.77301728956E+02  0.47000000000E+01 0. -1.
        -13    1    4    4    0    0  0.17501272270E+02 -0.18692350443E+02 -0.36131815536E+02  0.44285512192E+02  0.00000000000E+00 0.  1.
         14    1    4    4    0    0 -0.14189746667E+02 -0.13778566849E+03 -0.20493316472E+02  0.14002219599E+03  0.00000000000E+00 0. -1.
         -5    1    5    5    0  502  0.26040301484E+02  0.59007661810E+02 -0.49201287401E+02  0.81257972751E+02  0.47000000000E+01 0. -1.
         13    1    6    6    0    0  0.26835690237E+01  0.85703210113E+02  0.11054558971E+03  0.13990199845E+03  0.00000000000E+00 0. -1.
        -14    1    6    6    0    0  0.39664319422E+01  0.35543887403E+01 -0.12358327182E+02  0.13457136114E+02  0.00000000000E+00 0.  1.
</event>
<event>
12    1  0.1594973E-001  0.2246005E+03  0.7818608E-02  0.1130646E+00
         21   -1    0    0  503  502  0.00000000000E+00  0.00000000000E+00  0.27934781454E+03  0.27934781454E+03  0.00000000000E+00 0. -1.
         21   -1    0    0  501  503 -0.00000000000E+00 -0.00000000000E+00 -0.20481625857E+03  0.20481625857E+03  0.00000000000E+00 0.  1.
          6    2    1    2  501    0  0.14211926123E+03 -0.25231167004E+02 -0.47172336714E+02  0.22870912489E+03  0.17102087083E+03 0.  0.
         24    2    3    3    0    0  0.10149863627E+02 -0.16249237871E+02 -0.35262308291E+02  0.95816176506E+02  0.87007194134E+02 0.  0.
         -6    2    1    2    0  502 -0.14211926123E+03  0.25231167004E+02  0.12170389269E+03  0.25545494822E+03  0.17207817082E+03 0.  0.
        -24    2    5    5    0    0 -0.30309426027E+02  0.55565269855E+02  0.76597603345E+02  0.13104327521E+03  0.85434106881E+02 0.  0.
          5    1    3    3  501    0  0.13196939760E+03 -0.89819291328E+01 -0.11910028423E+02  0.13289294839E+03  0.47000000000E+01 0. -1.
        -13    1    4    4    0    0 -0.13055699100E+01 -0.50820252211E+02 -0.29971495630E+02  0.59014346543E+02  0.00000000000E+00 0.  1.
         14    1    4    4    0    0  0.11455433537E+02  0.34571014340E+02 -0.52908126610E+01  0.36801829963E+02  0.00000000000E+00 0. -1.
         -5    1    5    5    0  502 -0.11180983520E+03 -0.30334102850E+02  0.45106289343E+02  0.12441167301E+03  0.47000000000E+01 0.  1.
         13    1    6    6    0    0 -0.20345376960E+02  0.30189778442E+02  0.92553101136E+02  0.99455686694E+02  0.00000000000E+00 0. -1.
        -14    1    6    6    0    0 -0.99640490671E+01  0.25375491413E+02 -0.15955497791E+02  0.31587588512E+02  0.00000000000E+00 0.  1.
</event>
<event>
12    1  0.1594973E-001  0.1777013E+03  0.7818608E-02  0.1172851E+00
         21   -1    0    0  503  502  0.00000000000E+00  0.00000000000E+00  0.19755556413E+03  0.19755556413E+03  0.00000000000E+00 0. -1.
         21   -1    0    0  501  503 -0.00000000000E+00 -0.00000000000E+00 -0.18271859202E+03  0.18271859202E+03  0.00000000000E+00 0. -1.
          6    2    1    2  501    0  0.49469075910E+02 -0.57657776389E+01 -0.72703393206E+02  0.19199883276E+03  0.17057940888E+03 0.  0.
         24    2    3    3    0    0  0.48377421083E+02  0.35137911223E+02 -0.10036714146E+03  0.14238354841E+03  0.81390810892E+02 0.  0.
         -6    2    1    2    0  502 -0.49469075910E+02  0.57657776389E+01  0.87540365316E+02  0.18827532339E+03  0.15907183338E+03 0.  0.
        -24    2    5    5    0    0  0.13056755197E+02 -0.38846076470E+02  0.58696263095E+02  0.10609400364E+03  0.78301914369E+02 0.  0.
          5    1    3    3  501    0  0.10916548269E+01 -0.40903688862E+02  0.27663748257E+02  0.49615284343E+02  0.47000000000E+01 0. -1.
        -11    1    4    4    0    0 -0.12078234236E+02  0.33118366421E+02 -0.16356685905E+02  0.38861949390E+02  0.00000000000E+00 0.  1.
         12    1    4    4    0    0  0.60455655319E+02  0.20195448022E+01 -0.84010455559E+02  0.10352159902E+03  0.00000000000E+00 0. -1.
         -5    1    5    5    0  502 -0.62525831107E+02  0.44611854109E+02  0.28844102222E+02  0.82181319749E+02  0.47000000000E+01 0.  1.
         13    1    6    6    0    0  0.19589088714E+02 -0.31380987283E+02  0.76915576603E+02  0.85349309802E+02  0.00000000000E+00 0. -1.
        -14    1    6    6    0    0 -0.65323335163E+01 -0.74650891867E+01 -0.18219313509E+02  0.20744693839E+02  0.00000000000E+00 0.  1.
</event>
<event>
12    1  0.1594973E-001  0.1787340E+03  0.7818608E-02  0.1169241E+00
         21   -1    0    0  501  502  0.00000000000E+00  0.00000000000E+00  0.18724623988E+03  0.18724623988E+03  0.00000000000E+00 0. -1.
         21   -1    0    0  502  503 -0.00000000000E+00 -0.00000000000E+00 -0.54865783017E+03  0.54865783017E+03  0.00000000000E+00 0. -1.
         -6    2    1    2    0  503  0.35126752549E+02 -0.22687805205E+02 -0.48633062451E+03  0.51784302588E+03  0.17290256755E+03 0.  0.
        -24    2    3    3    0    0  0.26975317414E+02 -0.58669277129E+02 -0.16502292345E+03  0.19439002933E+03  0.79907236280E+02 0.  0.
          6    2    1    2  501    0 -0.35126752549E+02  0.22687805205E+02  0.12491903422E+03  0.21806104417E+03  0.17377349805E+03 0.  0.
         24    2    5    5    0    0 -0.74154445133E+02 -0.27576313032E+02  0.95787590220E+02  0.14791567084E+03  0.80277322237E+02 0.  0.
          5    1    5    5  501    0  0.39027692583E+02  0.50264118237E+02  0.29131443995E+02  0.70145373331E+02  0.47000000000E+01 0. -1.
        -13    1    6    6    0    0 -0.33564899190E+02 -0.54230158314E+02  0.60314866525E+02  0.87780383072E+02  0.00000000000E+00 0.  1.
         14    1    6    6    0    0 -0.40589545942E+02  0.26653845282E+02  0.35472723695E+02  0.60135287764E+02  0.00000000000E+00 0. -1.
         -5    1    3    3    0  503  0.81514351354E+01  0.35981471924E+02 -0.32130770105E+03  0.32345299654E+03  0.47000000000E+01 0.  1.
         11    1    4    4    0    0  0.40242406659E+02 -0.46985838979E+02 -0.16552180134E+03  0.17670480207E+03  0.00000000000E+00 0. -1.
        -12    1    4    4    0    0 -0.13267089245E+02 -0.11683438150E+02  0.49887788215E+00  0.17685227258E+02  0.00000000000E+00 0.  1.
</event>
<event>
12    1  0.1594973E-001  0.2321476E+03  0.7818608E-02  0.1125552E+00
         21   -1    0    0  501  502  0.00000000000E+00  0.00000000000E+00  0.69054474579E+03  0.69054474579E+03  0.00000000000E+00 0. -1.
         21   -1    0    0  502  503 -0.00000000000E+00 -0.00000000000E+00 -0.16941202853E+03  0.16941202853E+03  0.00000000000E+00 0.  1.
         -6    2    1    2    0  503 -0.96547401892E+01  0.15158434944E+03 -0.57184522439E+02  0.23678477231E+03  0.17241209293E+03 0.  0.
        -24    2    3    3    0    0  0.21203474881E+02  0.11012381880E+03  0.24869207192E+02  0.13969661863E+03  0.79497326851E+02 0.  0.
          6    2    1    2  501    0  0.96547401892E+01 -0.15158434944E+03  0.57831723971E+03  0.62317200201E+03  0.17556048913E+03 0.  0.
         24    2    5    5    0    0  0.59808659513E+02 -0.98351340568E+02  0.48269359467E+03  0.50269320575E+03  0.80357269929E+02 0.  0.
          5    1    5    5  501    0 -0.50153919323E+02 -0.53233008876E+02  0.95623645038E+02  0.12047879626E+03  0.47000000000E+01 0. -1.
        -11    1    6    6    0    0  0.66312616483E+02 -0.10848129172E+03  0.41876445872E+03  0.43764052103E+03  0.00000000000E+00 0.  1.
         12    1    6    6    0    0 -0.65039569707E+01  0.10129951153E+02  0.63929135946E+02  0.65052684722E+02  0.00000000000E+00 0. -1.
         -5    1    3    3    0  503 -0.30858215070E+02  0.41460530644E+02 -0.82053729632E+02  0.97088153680E+02  0.47000000000E+01 0.  1.
         13    1    4    4    0    0 -0.11743690061E+02  0.26084239836E+02  0.38962258262E+02  0.48335901697E+02  0.00000000000E+00 0. -1.
        -14    1    4    4    0    0  0.32947164942E+02  0.84039578964E+02 -0.14093051069E+02  0.91360716934E+02  0.00000000000E+00 0.  1.
</event>
<event>
12    1  0.1594973E-001  0.1769582E+03  0.7818608E-02  0.1171127E+00
         21   -1    0    0  503  502  0.00000000000E+00  0.00000000000E+00  0.45110788867E+03  0.45110788867E+03  0.00000000000E+00 0.  1.
         21   -1    0    0  501  503 -0.00000000000E+00 -0.00000000000E+00 -0.70516835626E+02  0.70516835626E+02  0.00000000000E+00 0.  1.
          6    2    1    2  501    0  0.26712194055E+02 -0.29232140724E+02  0.14968354242E+03  0.23070808594E+03  0.17103508027E+03 0.  0.
         24    2    3    3    0    0 -0.47719922410E+02 -0.10000449062E+02  0.52723546023E+02  0.10688026666E+03  0.79160717025E+02 0.  0.
         -6    2    1    2    0  502 -0.26712194055E+02  0.29232140724E+02  0.23090751062E+03  0.29091663836E+03  0.17247072983E+03 0.  0.
        -24    2    5    5    0    0 -0.48427063462E+02 -0.33249246301E+02  0.18538040020E+03  0.21047866808E+03  0.80527536200E+02 0.  0.
          5    1    3    3  501    0  0.74432116465E+02 -0.19231691661E+02  0.96959996399E+02  0.12382781928E+03  0.47000000000E+01 0. -1.
        -11    1    4    4    0    0  0.31401435312E+01 -0.35798782888E+02  0.20966842673E+02  0.41605550703E+02  0.00000000000E+00 0.  1.
         12    1    4    4    0    0 -0.50860065941E+02  0.25798333825E+02  0.31756703350E+02  0.65274715958E+02  0.00000000000E+00 0. -1.
         -5    1    5    5    0  502  0.21714869406E+02  0.62481387025E+02  0.45527110425E+02  0.80437970273E+02  0.47000000000E+01 0.  1.
         13    1    6    6    0    0 -0.13922277493E+02 -0.49222231700E+01 -0.44870171189E+01  0.15433451142E+02  0.00000000000E+00 0. -1.
        -14    1    6    6    0    0 -0.34504785969E+02 -0.28327023131E+02  0.18986741731E+03  0.19504521694E+03  0.00000000000E+00 0.  1.
</event>
<event>
12    1  0.1594973E-001  0.1820283E+03  0.7818608E-02  0.1166024E+00
         21   -1    0    0  501  502  0.00000000000E+00  0.00000000000E+00  0.12033213688E+03  0.12033213688E+03  0.00000000000E+00 0.  1.
         21   -1    0    0  502  503 -0.00000000000E+00 -0.00000000000E+00 -0.37750496312E+03  0.37750496312E+03  0.00000000000E+00 0.  1.
         -6    2    1    2    0  503 -0.69275696668E+01 -0.57608274632E+02 -0.25856338869E+03  0.31580350214E+03  0.17178510256E+03 0.  0.
        -24    2    3    3    0    0 -0.88417006223E+01 -0.10325447263E+03 -0.22057129831E+03  0.25619873538E+03  0.79034375970E+02 0.  0.
          6    2    1    2  501    0  0.69275696668E+01  0.57608274632E+02  0.13905624591E+01  0.18203359786E+03  0.17253287385E+03 0.  0.
         24    2    5    5    0    0  0.45494538704E+02  0.34190096097E+02  0.54683948110E+02  0.11204719103E+03  0.79533157327E+02 0.  0.
          5    1    5    5  501    0 -0.38566969037E+02  0.23418178535E+02 -0.53293385651E+02  0.69986406828E+02  0.47000000000E+01 0. -1.
        -11    1    6    6    0    0  0.22323001193E+02  0.58522676464E+02  0.25810398433E+02  0.67745086243E+02  0.00000000000E+00 0.  1.
         12    1    6    6    0    0  0.23171537510E+02 -0.24332580366E+02  0.28873549677E+02  0.44302104790E+02  0.00000000000E+00 0. -1.
         -5    1    3    3    0  503  0.19141309555E+01  0.45646197994E+02 -0.37992090383E+02  0.59604766758E+02  0.47000000000E+01 0.  1.
         11    1    4    4    0    0 -0.84883346569E+01  0.76175715715E+01 -0.26722297543E+01  0.11714095516E+02  0.00000000000E+00 0. -1.
        -12    1    4    4    0    0 -0.35336596537E+00 -0.11087204420E+03 -0.21789906856E+03  0.24448463986E+03  0.00000000000E+00 0.  1.
</event>
<event>
12    1  0.1594973E-001  0.1808198E+03  0.7818608E-02  0.1172212E+00
         21   -1    0    0  503  502  0.00000000000E+00  0.00000000000E+00  0.70068834519E+03  0.70068834519E+03  0.00000000000E+00 0. -1.
         21   -1    0    0  501  503 -0.00000000000E+00 -0.00000000000E+00 -0.42736567894E+02  0.42736567894E+02  0.00000000000E+00 0. -1.
          6    2    1    2  501    0 -0.48081711343E+02 -0.23994559375E+02  0.24873731254E+03  0.29604108158E+03  0.15126956564E+03 0.  0.
         24    2    3    3    0    0  0.13742460099E+02 -0.40077582856E+02  0.88672947708E+02  0.12363579539E+03  0.75019000185E+02 0.  0.
         -6    2    1    2    0  502  0.48081711343E+02  0.23994559375E+02  0.40921446476E+03  0.44738383150E+03  0.17265058552E+03 0.  0.
        -24    2    5    5    0    0  0.77490865610E+02 -0.34556396789E+02  0.24784580461E+03  0.27315683216E+03  0.77383029672E+02 0.  0.
          5    1    3    3  501    0 -0.61824171442E+02  0.16083023481E+02  0.16006436483E+03  0.17240528619E+03  0.47000000000E+01 0. -1.
        -13    1    4    4    0    0  0.33490412610E+02 -0.36929234088E+02  0.90738676072E+02  0.10353204046E+03  0.00000000000E+00 0.  1.
         14    1    4    4    0    0 -0.19747952512E+02 -0.31483487677E+01 -0.20657283645E+01  0.20103754924E+02  0.00000000000E+00 0. -1.
         -5    1    5    5    0  502 -0.29409154267E+02  0.58550956164E+02  0.16136866014E+03  0.17422699934E+03  0.47000000000E+01 0.  1.
         11    1    6    6    0    0  0.35585995222E+02 -0.27856479514E+02  0.37947429206E+02  0.59011472530E+02  0.00000000000E+00 0. -1.
        -12    1    6    6    0    0  0.41904870387E+02 -0.66999172749E+01  0.20989837541E+03  0.21414535963E+03  0.00000000000E+00 0.  1.
</event>
<event>
12    1  0.1594973E-001  0.2386438E+03  0.7818608E-02  0.1120909E+00
         21   -1    0    0  501  502  0.00000000000E+00  0.00000000000E+00  0.20348343998E+03  0.20348343998E+03  0.00000000000E+00 0.  1.
         21   -1    0    0  502  503 -0.00000000000E+00 -0.00000000000E+00 -0.34244784721E+03  0.34244784721E+03  0.00000000000E+00 0. -1.
         -6    2    1    2    0  503 -0.13643845022E+03  0.92939531375E+02 -0.18766088415E+03  0.30359097700E+03  0.17233010963E+03 0.  0.
        -24    2    3    3    0    0 -0.11565458490E+03  0.12096784937E+03 -0.10248494192E+03  0.21142489429E+03  0.78664598239E+02 0.  0.
          6    2    1    2  501    0  0.13643845022E+03 -0.92939531375E+02  0.48696476921E+02  0.24234031019E+03  0.17059974176E+03 0.  0.
         24    2    5    5    0    0  0.14562106303E+03 -0.10811865357E+03  0.95604994768E+01  0.19911484479E+03  0.81609932086E+02 0.  0.
          5    1    5    5  501    0 -0.91826128138E+01  0.15179122198E+02  0.39135977444E+02  0.43225465403E+02  0.47000000000E+01 0. -1.
        -13    1    6    6    0    0  0.21956198853E+02  0.76871941859E+01  0.18103324052E+02  0.29477075233E+02  0.00000000000E+00 0.  1.
         14    1    6    6    0    0  0.12366486418E+03 -0.11580584776E+03 -0.85428245753E+01  0.16963776955E+03  0.00000000000E+00 0. -1.
         -5    1    3    3    0  503 -0.20783865317E+02 -0.28028317994E+02 -0.85175942232E+02  0.92166082711E+02  0.47000000000E+01 0.  1.
         13    1    4    4    0    0 -0.22176437602E+02  0.64943876875E+02 -0.69238009566E+02  0.97485401455E+02  0.00000000000E+00 0. -1.
        -14    1    4    4    0    0 -0.93478147300E+02  0.56023972494E+02 -0.33246932349E+02  0.11393949283E+03  0.00000000000E+00 0.  1.
</event>
<event>
12    1  0.1594973E-001  0.1813761E+03  0.7818608E-02  0.1166654E+00
         21   -1    0    0  503  502  0.00000000000E+00  0.00000000000E+00  0.92073185650E+02  0.92073185650E+02  0.00000000000E+00 0.  1.
         21   -1    0    0  501  503 -0.00000000000E+00 -0.00000000000E+00 -0.37341086172E+03  0.37341086172E+03  0.00000000000E+00 0.  1.
          6    2    1    2  501    0 -0.40285605626E+02 -0.38664504539E+02 -0.19140910289E+03  0.26369440346E+03  0.17256714581E+03 0.  0.
         24    2    3    3    0    0 -0.48982573951E+02  0.32993553725E+02 -0.88273797182E+02  0.13772021620E+03  0.87673984413E+02 0.  0.
         -6    2    1    2    0  502  0.40285605626E+02  0.38664504539E+02 -0.89928573178E+02  0.20178964391E+03  0.17179650224E+03 0.  0.
        -24    2    5    5    0    0  0.16156515243E+02  0.73295442151E+02 -0.84192195055E+01  0.10988001667E+03  0.79809021934E+02 0.  0.
          5    1    3    3  501    0  0.86969683246E+01 -0.71658058263E+02 -0.10313530570E+03  0.12597418726E+03  0.47000000000E+01 0. -1.
        -11    1    4    4    0    0  0.16994046807E+02  0.22856790274E+02 -0.18808169717E+01  0.28544140572E+02  0.00000000000E+00 0.  1.
         12    1    4    4    0    0 -0.65976620757E+02  0.10136763451E+02 -0.86392980210E+02  0.10917607563E+03  0.00000000000E+00 0. -1.
         -5    1    5    5    0  502  0.24129090383E+02 -0.34630937612E+02 -0.81509353673E+02  0.91909627237E+02  0.47000000000E+01 0.  1.
         13    1    6    6    0    0  0.35596312556E+02  0.42654158701E+02  0.24655040903E+02  0.60781129999E+02  0.00000000000E+00 0. -1.
        -14    1    6    6    0    0 -0.19439797314E+02  0.30641283450E+02 -0.33074260408E+02  0.49098886674E+02  0.00000000000E+00 0.  1.
</event>
<event>
12    1  0.1594973E-001  0.1768549E+03  0.7818608E-02  0.1171482E+00
         21   -1    0    0  501  502  0.00000000000E+00  0.00000000000E+00  0.84107470170E+03  0.84107470170E+03  0.00000000000E+00 0.  1.
         21   -1    0    0  502  503 -0.00000000000E+00 -0.00000000000E+00 -0.89975792914E+02  0.89975792914E+02  0.00000000000E+00 0.  1.
         -6    2    1    2    0  503 -0.20722282439E+02  0.23140166527E+02  0.16232832730E+02  0.17520275271E+03  0.17166135093E+03 0.  0.
        -24    2    3    3    0    0  0.51293117498E+02  0.33608907431E+01  0.28809338527E+02  0.99323268814E+02  0.79955326603E+02 0.  0.
          6    2    1    2  501    0  0.20722282439E+02 -0.23140166527E+02  0.73486607606E+03  0.75584774190E+03  0.17410565443E+03 0.  0.
         24    2    5    5    0    0  0.26251901883E+02  0.12330242966E+02  0.17175423244E+03  0.19157319431E+03  0.79746944596E+02 0.  0.
          5    1    5    5  501    0 -0.55296194439E+01 -0.35470409493E+02  0.56311184362E+03  0.56427454760E+03  0.47000000000E+01 0. -1.
        -13    1    6    6    0    0  0.26387478685E+02  0.25849677842E+02  0.17399128590E+03  0.17786925660E+03  0.00000000000E+00 0.  1.
         14    1    6    6    0    0 -0.13557680246E+00 -0.13519434876E+02 -0.22370534593E+01  0.13703937705E+02  0.00000000000E+00 0. -1.
         -5    1    3    3    0  503 -0.72015399937E+02  0.19779275784E+02 -0.12576505797E+02  0.75879483899E+02  0.47000000000E+01 0.  1.
         11    1    4    4    0    0  0.15510754973E+02 -0.35529631919E+02 -0.74166537956E+00  0.38774841479E+02  0.00000000000E+00 0. -1.
        -12    1    4    4    0    0  0.35782362526E+02  0.38890522663E+02  0.29551003906E+02  0.60548427335E+02  0.00000000000E+00 0.  1.
</event>
<event>
12    1  0.1594973E-001  0.1835183E+03  0.7818608E-02  0.1164638E+00
         21   -1    0    0  501  502  0.00000000000E+00  0.00000000000E+00  0.17562274852E+04  0.17562274852E+04  0.00000000000E+00 0.  1.
         21   -1    0    0  502  503 -0.00000000000E+00 -0.00000000000E+00 -0.19099966890E+02  0.19099966890E+02  0.00000000000E+00 0.  1.
         -6    2    1    2    0  503  0.35593274660E+02  0.55915108964E+02  0.85027089980E+03  0.86985032030E+03  0.17113034816E+03 0.  0.
        -24    2    3    3    0    0  0.42362544302E+02  0.68133579891E+00  0.23154890137E+03  0.24861317230E+03  0.79991039105E+02 0.  0.
          6    2    1    2  501    0 -0.35593274660E+02 -0.55915108964E+02  0.88685661850E+03  0.90547713178E+03  0.17023746296E+03 0.  0.
         24    2    5    5    0    0 -0.68633885673E+02 -0.29400590760E+02  0.81272605933E+03  0.81996612983E+03  0.79030383778E+02 0.  0.
          5    1    5    5  501    0  0.33040611013E+02 -0.26514518204E+02  0.74130559173E+02  0.85511001953E+02  0.47000000000E+01 0. -1.
        -13    1    6    6    0    0 -0.24357158708E+02 -0.51911736286E+02  0.50684865310E+03  0.51008200978E+03  0.00000000000E+00 0.  1.
         14    1    6    6    0    0 -0.44276726965E+02  0.22511145526E+02  0.30587740622E+03  0.30988412005E+03  0.00000000000E+00 0. -1.
         -5    1    3    3    0  503 -0.67692696420E+01  0.55233773165E+02  0.61872199843E+03  0.62123714800E+03  0.47000000000E+01 0.  1.
         11    1    4    4    0    0 -0.40300712069E+00 -0.31009796070E+02  0.13342752895E+03  0.13698421569E+03  0.00000000000E+00 0. -1.
        -12    1    4    4    0    0  0.42765551423E+02  0.31691131869E+02  0.98121372417E+02  0.11162895661E+03  0.00000000000E+00 0.  1.
</event>
<event>
12    1  0.1594973E-001  0.1824387E+03  0.7818608E-02  0.1165531E+00
         21   -1    0    0  503  502  0.00000000000E+00  0.00000000000E+00  0.28515539173E+03  0.28515539173E+03  0.00000000000E+00 0.  1.
         21   -1    0    0  501  503 -0.00000000000E+00 -0.00000000000E+00 -0.13466186444E+03  0.13466186444E+03  0.00000000000E+00 0.  1.
          6    2    1    2  501    0  0.49702937794E+02  0.33740609666E+02  0.15229945285E+03  0.23765308109E+03  0.17226448515E+03 0.  0.
         24    2    3    3    0    0  0.32456039264E+02  0.67933169454E+02  0.16396989155E+03  0.19734333297E+03  0.79937198691E+02 0.  0.
         -6    2    1    2    0  502 -0.49702937794E+02 -0.33740609666E+02 -0.18059255627E+01  0.18216417508E+03  0.17196428277E+03 0.  0.
        -24    2    5    5    0    0 -0.41312099456E+02 -0.86200979357E+02 -0.21688997089E+02  0.12524385279E+03  0.77963527779E+02 0.  0.
          5    1    3    3  501    0  0.17246898530E+02 -0.34192559788E+02 -0.11670438703E+02  0.40309748118E+02  0.47000000000E+01 0. -1.
        -11    1    4    4    0    0 -0.11889684418E+02 -0.22921746685E+01  0.73659634925E+02  0.74648244973E+02  0.00000000000E+00 0.  1.
         12    1    4    4    0    0  0.44345723683E+02  0.70225344122E+02  0.90310256627E+02  0.12269508799E+03  0.00000000000E+00 0. -1.
         -5    1    5    5    0  502 -0.83908383386E+01  0.52460369692E+02  0.19883071526E+02  0.56920322290E+02  0.47000000000E+01 0.  1.
         13    1    6    6    0    0 -0.61053283003E+02 -0.43027780317E+02 -0.21667657463E+02  0.77771335493E+02  0.00000000000E+00 0. -1.
        -14    1    6    6    0    0  0.19741183547E+02 -0.43173199040E+02 -0.21339625156E-01  0.47472517298E+02  0.00000000000E+00 0.  1.
</event>
<event>
12    1  0.1594973E-001  0.2308180E+03  0.7818608E-02  0.1126482E+00
         21   -1    0    0  501  502  0.00000000000E+00  0.00000000000E+00  0.51401289102E+03  0.51401289102E+03  0.00000000000E+00 0.  1.
         21   -1    0    0  502  503 -0.00000000000E+00 -0.00000000000E+00 -0.10277365563E+03  0.10277365563E+03  0.00000000000E+00 0. -1.
         -6    2    1    2    0  503 -0.54471816764E+02  0.13821327364E+03  0.21975882696E+03  0.31870187254E+03  0.17665461699E+03 0.  0.
        -24    2    3    3    0    0  0.35620481942E+02  0.37081819018E+02  0.13228616909E+03  0.15740168880E+03  0.68057189695E+02 0.  0.
          6    2    1    2  501    0  0.54471816764E+02 -0.13821327364E+03  0.19148040843E+03  0.29808467410E+03  0.17355010311E+03 0.  0.
         24    2    5    5    0    0  0.39339354185E+02 -0.15594312016E+03  0.10305450551E+03  0.20651738087E+03  0.78507044170E+02 0.  0.
          5    1    5    5  501    0  0.15132462579E+02  0.17729846520E+02  0.88425902922E+02  0.91567293227E+02  0.47000000000E+01 0. -1.
        -11    1    6    6    0    0  0.16532094972E+02  0.36407298893E+01  0.42917544834E+01  0.17463797836E+02  0.00000000000E+00 0.  1.
         12    1    6    6    0    0  0.22807259213E+02 -0.15958385005E+03  0.98762751029E+02  0.18905358304E+03  0.00000000000E+00 0. -1.
         -5    1    3    3    0  503 -0.90092298706E+02  0.10113145462E+03  0.87472657867E+02  0.16130018374E+03  0.47000000000E+01 0.  1.
         11    1    4    4    0    0  0.36061204419E+02 -0.38242052915E+01  0.29409837619E+02  0.46690186967E+02  0.00000000000E+00 0. -1.
        -12    1    4    4    0    0 -0.44072247710E+00  0.40906024310E+02  0.10287633147E+03  0.11071150183E+03  0.00000000000E+00 0.  1.
</event>
<event>
12    1  0.1594973E-001  0.1813350E+03  0.7818608E-02  0.1167056E+00
         21   -1    0    0  501  502  0.00000000000E+00  0.00000000000E+00  0.26646724354E+03  0.26646724354E+03  0.00000000000E+00 0.  1.
         21   -1    0    0  502  503 -0.00000000000E+00 -0.00000000000E+00 -0.13017242130E+03  0.13017242130E+03  0.00000000000E+00 0.  1.
         -6    2    1    2    0  503  0.59190919352E+02 -0.25781100711E+02  0.11778788004E+03  0.21436267474E+03  0.16706029316E+03 0.  0.
        -24    2    3    3    0    0  0.32815041334E+02 -0.17442826763E+02  0.14866760202E+03  0.17263904854E+03  0.79505383754E+02 0.  0.
          6    2    1    2  501    0 -0.59190919352E+02  0.25781100711E+02  0.18506942202E+02  0.18227699011E+03  0.16945254240E+03 0.  0.
         24    2    5    5    0    0  0.14755184703E+02  0.22241585568E+02 -0.35547245268E+02  0.90491916946E+02  0.78821169633E+02 0.  0.
          5    1    5    5  501    0 -0.73946104055E+02  0.35395151433E+01  0.54054187470E+02  0.91785073162E+02  0.47000000000E+01 0. -1.
        -11    1    6    6    0    0 -0.53822983781E+01  0.45794629121E+02 -0.37512391671E+02  0.59441540365E+02  0.00000000000E+00 0.  1.
         12    1    6    6    0    0  0.20137483081E+02 -0.23553043553E+02  0.19651464026E+01  0.31050376581E+02  0.00000000000E+00 0. -1.
         -5    1    3    3    0  503  0.26375878018E+02 -0.83382739480E+01 -0.30879721982E+02  0.41723626200E+02  0.47000000000E+01 0.  1.
         13    1    4    4    0    0  0.13621592195E+01  0.29152176244E+02  0.70972690671E+02  0.76738697399E+02  0.00000000000E+00 0. -1.
        -14    1    4    4    0    0  0.31452882115E+02 -0.46595003008E+02  0.77694911352E+02  0.95900351139E+02  0.00000000000E+00 0.  1.
</event>
<event>
12    1  0.1594973E-001  0.1879015E+03  0.7818608E-02  0.1160682E+00
         21   -1    0    0  501  502  0.00000000000E+00  0.00000000000E+00  0.45367625998E+03  0.45367625998E+03  0.00000000000E+00 0.  1.
         21   -1    0    0  502  503 -0.00000000000E+00 -0.00000000000E+00 -0.58927092537E+03  0.58927092537E+03  0.00000000000E+00 0.  1.
         -6    2    1    2    0  503  0.73849363972E+02  0.11242942170E+02 -0.55391753544E+03  0.58492017910E+03  0.17241475442E+03 0.  0.
        -24    2    3    3    0    0  0.57714387229E+02  0.34998179448E+02 -0.54435168596E+03  0.55428940619E+03  0.79763179173E+02 0.  0.
          6    2    1    2  501    0 -0.73849363972E+02 -0.11242942170E+02  0.41832287005E+03  0.45802700625E+03  0.17092273852E+03 0.  0.
         24    2    5    5    0    0 -0.38186637353E+02 -0.49600391403E+02  0.37981798086E+03  0.39285154712E+03  0.78436097496E+02 0.  0.
          5    1    5    5  501    0 -0.35662726619E+02  0.38357449233E+02  0.38504889189E+02  0.65175459132E+02  0.47000000000E+01 0. -1.
        -11    1    6    6    0    0  0.20018776613E+02  0.38669611580E+01  0.10157908427E+03  0.10360509237E+03  0.00000000000E+00 0.  1.
         12    1    6    6    0    0 -0.58205413966E+02 -0.53467352561E+02  0.27823889660E+03  0.28924645475E+03  0.00000000000E+00 0. -1.
         -5    1    3    3    0  503  0.16134976743E+02 -0.23755237278E+02 -0.95658494831E+01  0.30630772908E+02  0.47000000000E+01 0.  1.
         13    1    4    4    0    0 -0.90189827085E+01 -0.16615660951E+02 -0.13656184560E+03  0.13786428077E+03  0.00000000000E+00 0. -1.
        -14    1    4    4    0    0  0.66733369938E+02  0.51613840400E+02 -0.40778984035E+03  0.41642512542E+03  0.00000000000E+00 0.  1.
</event>
<event>
12    1  0.1594973E-001  0.1741720E+03  0.7818608E-02  0.1173815E+00
         21   -1    0    0  503  502  0.00000000000E+00  0.00000000000E+00  0.10596771605E+03  0.10596771605E+03  0.00000000000E+00 0.  1.
         21   -1    0    0  501  503 -0.00000000000E+00 -0.00000000000E+00 -0.29327290947E+03  0.29327290947E+03  0.00000000000E+00 0.  1.
          6    2    1    2  501    0 -0.40425675405E+01  0.15489275795E+02 -0.12760942825E+03  0.21512257869E+03  0.17244505696E+03 0.  0.
         24    2    3    3    0    0 -0.12361295740E+02  0.42558257659E+02 -0.15254762252E+03  0.17709713258E+03  0.78285441202E+02 0.  0.
         -6    2    1    2    0  502  0.40425675405E+01 -0.15489275795E+02 -0.59695765168E+02  0.18411804682E+03  0.17343474499E+03 0.  0.
        -24    2    5    5    0    0  0.39861771183E+02 -0.30225564847E+02  0.20908084800E+02  0.94567814026E+02  0.77481467897E+02 0.  0.
          5    1    3    3  501    0  0.83187281992E+01 -0.27068981864E+02  0.24938194276E+02  0.38025446109E+02  0.47000000000E+01 0. -1.
        -13    1    4    4    0    0  0.19828187498E+02 -0.13221890270E+02 -0.27132804911E+02  0.36113217859E+02  0.00000000000E+00 0.  1.
         14    1    4    4    0    0 -0.32189483238E+02  0.55780147929E+02 -0.12541481761E+03  0.14098391472E+03  0.00000000000E+00 0. -1.
         -5    1    5    5    0  502 -0.35819203642E+02  0.14736289052E+02 -0.80603849968E+02  0.89550232798E+02  0.47000000000E+01 0.  1.
         13    1    6    6    0    0  0.57486604828E+02 -0.11257729253E+01  0.74361901720E+01  0.57976495441E+02  0.00000000000E+00 0. -1.
        -14    1    6    6    0    0 -0.17624833645E+02 -0.29099791922E+02  0.13471894628E+02  0.36591318585E+02  0.00000000000E+00 0.  1.
</event>
<event>
12    1  0.1594973E-001  0.1767564E+03  0.7818608E-02  0.1171046E+00
         21   -1    0    0  503  502  0.00000000000E+00  0.00000000000E+00  0.13633282406E+03  0.13633282406E+03  0.00000000000E+00 0.  1.
         21   -1    0    0  501  503 -0.00000000000E+00 -0.00000000000E+00 -0.24450553863E+03  0.24450553863E+03  0.00000000000E+00 0.  1.
          6    2    1    2  501    0 -0.36835982207E+02 -0.13370164802E+02 -0.10227914821E+03  0.20398369444E+03  0.17208333024E+03 0.  0.
         24    2    3    3    0    0 -0.43369929635E+02 -0.71284315261E+02 -0.54681042958E+02  0.12858866200E+03  0.81133366370E+02 0.  0.
         -6    2    1    2    0  502  0.36835982207E+02  0.13370164802E+02 -0.58935663611E+01  0.17685466825E+03  0.17235773456E+03 0.  0.
        -24    2    5    5    0    0 -0.14143397135E+02  0.25091088554E+02 -0.57144279143E+02  0.10347209039E+03  0.81310555552E+02 0.  0.
          5    1    3    3  501    0  0.65339474282E+01  0.57914150459E+02 -0.47598105255E+02  0.75395032438E+02  0.47000000000E+01 0. -1.
        -13    1    4    4    0    0 -0.45740607614E+02 -0.24806218246E+02 -0.62577629407E+02  0.81384957767E+02  0.00000000000E+00 0.  1.
         14    1    4    4    0    0  0.23706779791E+01 -0.46478097015E+02  0.78965864492E+01  0.47203704237E+02  0.00000000000E+00 0. -1.
         -5    1    5    5    0  502  0.50979379342E+02 -0.11720923752E+02  0.51250712782E+02  0.73382577853E+02  0.47000000000E+01 0.  1.
         13    1    6    6    0    0 -0.20645425521E+02  0.44382378305E+02 -0.71202892042E+01  0.49464407580E+02  0.00000000000E+00 0. -1.
        -14    1    6    6    0    0  0.65020283857E+01 -0.19291289751E+02 -0.50023989939E+02  0.54007682813E+02  0.00000000000E+00 0.  1.
</event>
<event>
12    1  0.1594973E-001  0.2386145E+03  0.7818608E-02  0.1121390E+00
         21   -1    0    0  503  502  0.00000000000E+00  0.00000000000E+00  0.14940313825E+03  0.14940313825E+03  0.00000000000E+00 0.  1.
         21   -1    0    0  501  503 -0.00000000000E+00 -0.00000000000E+00 -0.10842885451E+04  0.10842885451E+04  0.00000000000E+00 0.  1.
          6    2    1    2  501    0 -0.24918653462E+01  0.16582736236E+03 -0.96505838221E+03  0.99317709084E+03  0.16600641313E+03 0.  0.
         24    2    3    3    0    0  0.17210394122E+02  0.40262228195E+02 -0.25158330402E+03  0.26845399948E+03  0.82801849581E+02 0.  0.
         -6    2    1    2    0  502  0.24918653462E+01 -0.16582736236E+03  0.30172975318E+02  0.24051459255E+03  0.17155738775E+03 0.  0.
        -24    2    5    5    0    0  0.49231311571E+02 -0.42240449162E+02 -0.55298031297E+01  0.10356540732E+03  0.80543387604E+02 0.  0.
          5    1    3    3  501    0 -0.19702259468E+02  0.12556513416E+03 -0.71347507820E+03  0.72472309136E+03  0.47000000000E+01 0. -1.
        -13    1    4    4    0    0  0.16053170436E+02  0.17282315642E+02 -0.24261499767E+03  0.24375893791E+03  0.00000000000E+00 0.  1.
         14    1    4    4    0    0  0.11572236856E+01  0.22979912553E+02 -0.89683063475E+01  0.24695061578E+02  0.00000000000E+00 0. -1.
         -5    1    5    5    0  502 -0.46739446225E+02 -0.12358691319E+03  0.35702778447E+02  0.13694918523E+03  0.47000000000E+01 0.  1.
         11    1    6    6    0    0  0.22020245847E+02 -0.14937108683E+02 -0.42507961461E+02  0.50149129908E+02  0.00000000000E+00 0. -1.
        -12    1    6    6    0    0  0.27211065724E+02 -0.27303340480E+02  0.36978158331E+02  0.53416277414E+02  0.00000000000E+00 0.  1.
</event>
<event>
12    1  0.1594973E-001  0.1739360E+03  0.7818608E-02  0.1173949E+00
         21   -1    0    0  501  502  0.00000000000E+00  0.00000000000E+00  0.49363536004E+02  0.49363536004E+02  0.00000000000E+00 0. -1.
         21   -1    0    0  502  503 -0.00000000000E+00 -0.00000000000E+00 -0.67721471905E+03  0.67721471905E+03  0.00000000000E+00 0. -1.
         -6    2    1    2    0  503  0.24091999038E+02  0.38060662018E+01 -0.42810839369E+03  0.46209364458E+03  0.17221738895E+03 0.  0.
        -24    2    3    3    0    0  0.39794448945E+02  0.53210371485E+02 -0.36856642782E+03  0.38300705903E+03  0.80238729775E+02 0.  0.
          6    2    1    2  501    0 -0.24091999038E+02 -0.38060662018E+01 -0.19974278935E+03  0.26448461047E+03  0.17163920508E+03 0.  0.
         24    2    5    5    0    0  0.41320611255E+02  0.35881739404E+02 -0.10598180085E+03  0.14337662368E+03  0.79560178288E+02 0.  0.
          5    1    5    5  501    0 -0.65412610293E+02 -0.39687805606E+02 -0.93760988501E+02  0.12110798679E+03  0.47000000000E+01 0. -1.
        -11    1    6    6    0    0  0.23821873773E+02  0.14195366504E+02 -0.11156263576E+03  0.11495743472E+03  0.00000000000E+00 0.  1.
         12    1    6    6    0    0  0.17498737482E+02  0.21686372900E+02  0.55808349044E+01  0.28419188962E+02  0.00000000000E+00 0. -1.
         -5    1    3    3    0  503 -0.15702449906E+02 -0.49404305283E+02 -0.59541965872E+02  0.79086585547E+02  0.47000000000E+01 0.  1.
         13    1    4    4    0    0 -0.23132167325E+02  0.14107288228E+02 -0.62845150944E+02  0.68437020270E+02  0.00000000000E+00 0. -1.
        -14    1    4    4    0    0  0.62926616269E+02  0.39103083257E+02 -0.30572127687E+03  0.31457003876E+03  0.00000000000E+00 0.  1.
</event>
<event>
12    1  0.1594973E-001  0.2033517E+03  0.7818608E-02  0.1147345E+00
         21   -1    0    0  501  502  0.00000000000E+00  0.00000000000E+00  0.15855199093E+03  0.15855199093E+03  0.00000000000E+00 0.  1.
         21   -1    0    0  502  503 -0.00000000000E+00 -0.00000000000E+00 -0.25858793187E+03  0.25858793187E+03  0.00000000000E+00 0.  1.
         -6    2    1    2    0  503 -0.71376477614E+02  0.78326889373E+02 -0.56485049052E+02  0.20917694789E+03  0.17127384975E+03 0.  0.
        -24    2    3    3    0    0 -0.33787005593E+02 -0.16667121948E+02 -0.58761422513E+02  0.10688275221E+03  0.80942345181E+02 0.  0.
          6    2    1    2  501    0  0.71376477614E+02 -0.78326889373E+02 -0.43550891885E+02  0.20796297490E+03  0.17355752819E+03 0.  0.
         24    2    5    5    0    0  0.51022465378E+02 -0.11271244365E+03  0.19036450542E+01  0.14725995121E+03  0.79840355956E+02 0.  0.
          5    1    5    5  501    0  0.20354012236E+02  0.34385554276E+02 -0.45454536939E+02  0.60703023692E+02  0.47000000000E+01 0. -1.
        -13    1    6    6    0    0  0.62335705166E+02 -0.67757011603E+02  0.25091296559E+02  0.95427071227E+02  0.00000000000E+00 0.  1.
         14    1    6    6    0    0 -0.11313239789E+02 -0.44955432046E+02 -0.23187651505E+02  0.51832879983E+02  0.00000000000E+00 0. -1.
         -5    1    3    3    0  503 -0.37589472021E+02  0.94994011321E+02  0.22763734618E+01  0.10229419568E+03  0.47000000000E+01 0.  1.
         13    1    4    4    0    0 -0.39976391570E+02 -0.41465912115E+02 -0.21046430701E+02  0.61322801597E+02  0.00000000000E+00 0. -1.
        -14    1    4    4    0    0  0.61893859762E+01  0.24798790167E+02 -0.37714991812E+02  0.45559950614E+02  0.00000000000E+00 0.  1.
</event>
<event>
12    1  0.1594973E-001  0.1768858E+03  0.7818608E-02  0.1170910E+00
         21   -1    0    0  501  502  0.00000000000E+00  0.00000000000E+00  0.47302069654E+03  0.47302069654E+03  0.00000000000E+00 0.  1.
         21   -1    0    0  502  503 -0.00000000000E+00 -0.00000000000E+00 -0.66278312717E+02  0.66278312717E+02  0.00000000000E+00 0.  1.
         -6    2    1    2    0  503  0.21825578964E+02  0.39022275993E+02  0.18767407685E+03  0.25773280800E+03  0.17089630562E+03 0.  0.
        -24    2    3    3    0    0  0.73254272119E+02  0.25268763106E+02  0.14830972894E+03  0.19135727423E+03  0.92828508170E+02 0.  0.
          6    2    1    2  501    0 -0.21825578964E+02 -0.39022275993E+02  0.21906830697E+03  0.28156620126E+03  0.17114177939E+03 0.  0.
         24    2    5    5    0    0  0.45229582143E+01  0.10240076170E+02  0.31323415001E+02  0.85629325680E+02  0.78904428127E+02 0.  0.
          5    1    5    5  501    0 -0.26348537178E+02 -0.49262352163E+02  0.18774489197E+03  0.19593687558E+03  0.47000000000E+01 0. -1.
        -11    1    6    6    0    0 -0.25070016835E+02 -0.37363689749E+01  0.43799126222E+02  0.50604640647E+02  0.00000000000E+00 0.  1.
         12    1    6    6    0    0  0.29592975050E+02  0.13976445145E+02 -0.12475711221E+02  0.35024685033E+02  0.00000000000E+00 0. -1.
         -5    1    3    3    0  503 -0.51428693155E+02  0.13753512887E+02  0.39364347917E+02  0.66375533770E+02  0.47000000000E+01 0.  1.
         11    1    4    4    0    0  0.24662570287E+02 -0.70502884737E+00  0.13143845617E+03  0.13373409139E+03  0.00000000000E+00 0. -1.
        -12    1    4    4    0    0  0.48591701832E+02  0.25973791953E+02  0.16871272763E+02  0.57623182835E+02  0.00000000000E+00 0.  1.
</event>
<event>
12    1  0.1594973E-001  0.1823424E+03  0.7818608E-02  0.1165725E+00
         21   -1    0    0  503  502  0.00000000000E+00  0.00000000000E+00  0.20789395768E+03  0.20789395768E+03  0.00000000000E+00 0.  1.
         21   -1    0    0  501  503 -0.00000000000E+00 -0.00000000000E+00 -0.31410415976E+03  0.31410415976E+03  0.00000000000E+00 0.  1.
          6    2    1    2  501    0 -0.53513736069E+02  0.27248480901E+02 -0.23627756525E+03  0.29801987757E+03  0.17141341816E+03 0.  0.
         24    2    3    3    0    0 -0.65885831000E+02  0.22789567301E+02 -0.60668188227E+02  0.12185605057E+03  0.79422672419E+02 0.  0.
         -6    2    1    2    0  502  0.53513736069E+02 -0.27248480901E+02  0.13006736317E+03  0.22397823987E+03  0.17217007090E+03 0.  0.
        -24    2    5    5    0    0  0.66076486236E+02  0.91837956376E+01  0.17829238506E+02  0.10521536649E+03  0.79384806258E+02 0.  0.
          5    1    3    3  501    0  0.12372094931E+02  0.44589136003E+01 -0.17560937703E+03  0.17616382700E+03  0.47000000000E+01 0. -1.
        -13    1    4    4    0    0 -0.52085119148E+02  0.49617928076E+02 -0.27484767969E+02  0.77007862543E+02  0.00000000000E+00 0.  1.
         14    1    4    4    0    0 -0.13800711853E+02 -0.26828360775E+02 -0.33183420258E+02  0.44848188030E+02  0.00000000000E+00 0. -1.
         -5    1    5    5    0  502 -0.12562750168E+02 -0.36432276539E+02  0.11223812466E+03  0.11876287338E+03  0.47000000000E+01 0.  1.
         11    1    6    6    0    0  0.46280581398E+02 -0.30775422760E+02  0.23342838799E+02  0.60281895987E+02  0.00000000000E+00 0. -1.
        -12    1    6    6    0    0  0.19795904839E+02  0.39959218398E+02 -0.55136002934E+01  0.44933470504E+02  0.00000000000E+00 0.  1.
</event>
<event>
12    1  0.1594973E-001  0.1839969E+03  0.7818608E-02  0.1164169E+00
         21   -1    0    0  503  502  0.00000000000E+00  0.00000000000E+00  0.30685780325E+03  0.30685780325E+03  0.00000000000E+00 0.  1.
         21   -1    0    0  501  503 -0.00000000000E+00 -0.00000000000E+00 -0.13760501160E+03  0.13760501160E+03  0.00000000000E+00 0.  1.
          6    2    1    2  501    0 -0.35167505642E+02  0.56381717606E+02 -0.14999978004E+02  0.18460727333E+03  0.17157853739E+03 0.  0.
         24    2    3    3    0    0 -0.30181321279E+02  0.41814322753E+02 -0.75521806037E+02  0.12198097937E+03  0.80724633159E+02 0.  0.
         -6    2    1    2    0  502  0.35167505642E+02 -0.56381717606E+02  0.18425276966E+03  0.25985554151E+03  0.17076348496E+03 0.  0.
        -24    2    5    5    0    0  0.48863677824E+02 -0.74745332070E+02  0.60604423751E+02  0.13401512307E+03  0.79452082144E+02 0.  0.
          5    1    3    3  501    0 -0.49861843622E+01  0.14567394853E+02  0.60521828033E+02  0.62626293965E+02  0.47000000000E+01 0. -1.
        -13    1    4    4    0    0 -0.50039374841E+02  0.50388747906E+02 -0.69873208362E+02  0.99625449544E+02  0.00000000000E+00 0.  1.
         14    1    4    4    0    0  0.19858053562E+02 -0.85744251534E+01 -0.56485976752E+01  0.22355529823E+02  0.00000000000E+00 0. -1.
         -5    1    5    5    0  502 -0.13696172182E+02  0.18363614463E+02  0.12364834590E+03  0.12584041844E+03  0.47000000000E+01 0.  1.
         11    1    6    6    0    0 -0.19428143134E+02 -0.21435620839E+02  0.11719266185E+01  0.28953618053E+02  0.00000000000E+00 0. -1.
        -12    1    6    6    0    0  0.68291820958E+02 -0.53309711231E+02  0.59432497133E+02  0.10506150502E+03  0.00000000000E+00 0.  1.
</event>
<event>
12    1  0.1594973E-001  0.2095391E+03  0.7818608E-02  0.1142024E+00
         21   -1    0    0  501  502  0.00000000000E+00  0.00000000000E+00  0.76357398084E+03  0.76357398084E+03  0.00000000000E+00 0. -1.
         21   -1    0    0  502  503 -0.00000000000E+00 -0.00000000000E+00 -0.96657191332E+02  0.96657191332E+02  0.00000000000E+00 0. -1.
         -6    2    1    2    0  503  0.60996641592E+01  0.12044013865E+03  0.59036934250E+02  0.21725017808E+03  0.17079006812E+03 0.  0.
        -24    2    3    3    0    0 -0.61358932636E+02  0.64780923012E+02  0.18671845556E+02  0.12081345814E+03  0.79282830744E+02 0.  0.
          6    2    1    2  501    0 -0.60996641592E+01 -0.12044013865E+03  0.60787985526E+03  0.64298099409E+03  0.17135812627E+03 0.  0.
         24    2    5    5    0    0 -0.10647816453E+02 -0.61157210247E+02  0.14519560554E+03  0.17646844740E+03  0.78776701496E+02 0.  0.
          5    1    5    5  501    0  0.45481522938E+01 -0.59282928403E+02  0.46268424971E+03  0.46651254669E+03  0.47000000000E+01 0. -1.
        -11    1    6    6    0    0 -0.27468727642E+02 -0.71796415227E+02  0.93311824121E+02  0.12089810899E+03  0.00000000000E+00 0.  1.
         12    1    6    6    0    0  0.16820911189E+02  0.10639204980E+02  0.51883781424E+02  0.55570338407E+02  0.00000000000E+00 0. -1.
         -5    1    3    3    0  503  0.67458596795E+02  0.55659215638E+02  0.40365088694E+02  0.96436719938E+02  0.47000000000E+01 0.  1.
         13    1    4    4    0    0  0.18905592741E+01 -0.16304951731E+02  0.78757376245E+00  0.16433074507E+02  0.00000000000E+00 0. -1.
        -14    1    4    4    0    0 -0.63249491910E+02  0.81085874743E+02  0.17884271794E+02  0.10438038363E+03  0.00000000000E+00 0.  1.
</event>
<event>
12    1  0.1594973E-001  0.3636151E+03  0.7818608E-02  0.1057162E+00
         21   -1    0    0  503  502  0.00000000000E+00  0.00000000000E+00  0.28315650104E+03  0.28315650104E+03  0.00000000000E+00 0. -1.
         21   -1    0    0  501  503 -0.00000000000E+00 -0.00000000000E+00 -0.58660601445E+03  0.58660601445E+03  0.00000000000E+00 0.  1.
          6    2    1    2  501    0 -0.24832706326E+03  0.20247893224E+03 -0.34815358006E+03  0.50340969806E+03  0.17189054784E+03 0.  0.
         24    2    3    3    0    0 -0.10865246936E+03  0.12485133034E+03 -0.26776149576E+03  0.32446832783E+03  0.78678226790E+02 0.  0.
         -6    2    1    2    0  502  0.24832706326E+03 -0.20247893224E+03  0.44704066660E+02  0.36635281743E+03  0.17190661684E+03 0.  0.
        -24    2    5    5    0    0  0.22036243926E+03 -0.17844221953E+03  0.89437316877E+02  0.30818979285E+03  0.81121417759E+02 0.  0.
          5    1    3    3  501    0 -0.13967459390E+03  0.77627601901E+02 -0.80392084309E+02  0.17894137023E+03  0.47000000000E+01 0. -1.
        -13    1    4    4    0    0 -0.97930367670E+02  0.61340723455E+02 -0.19997602718E+03  0.23096201574E+03  0.00000000000E+00 0.  1.
         14    1    4    4    0    0 -0.10722101685E+02  0.63510606886E+02 -0.67785468575E+02  0.93506312095E+02  0.00000000000E+00 0. -1.
         -5    1    5    5    0  502  0.27964624003E+02 -0.24036712716E+02 -0.44733250217E+02  0.58163024584E+02  0.47000000000E+01 0.  1.
         11    1    6    6    0    0  0.28092543932E+02  0.51549410930E+01  0.14216164538E+02  0.31903977438E+02  0.00000000000E+00 0. -1.
        -12    1    6    6    0    0  0.19226989532E+03 -0.18359716062E+03  0.75221152339E+02  0.27628581541E+03  0.00000000000E+00 0.  1.
</event>
<event>
12    1  0.1594973E-001  0.1922930E+03  0.7818608E-02  0.1156683E+00
         21   -1    0    0  503  502  0.00000000000E+00  0.00000000000E+00  0.25046605291E+03  0.25046605291E+03  0.00000000000E+00 0. -1.
         21   -1    0    0  501  503 -0.00000000000E+00 -0.00000000000E+00 -0.17435765058E+03  0.17435765058E+03  0.00000000000E+00 0. -1.
          6    2    1    2  501    0 -0.87464364643E+02 -0.11422967469E+02 -0.46665451701E+02  0.19667899147E+03  0.16948292549E+03 0.  0.
         24    2    3    3    0    0  0.45765325307E+01 -0.46191299759E+02 -0.31527642256E+02  0.97021543388E+02  0.79149269305E+02 0.  0.
         -6    2    1    2    0  502  0.87464364643E+02  0.11422967469E+02  0.12277385403E+03  0.22814471201E+03  0.17086863703E+03 0.  0.
        -24    2    5    5    0    0  0.23188191503E+02  0.67660534352E+02  0.72889696406E+02  0.12912648367E+03  0.79025950226E+02 0.  0.
          5    1    3    3  501    0 -0.92040897174E+02  0.34768332290E+02 -0.15137809444E+02  0.99657448079E+02  0.47000000000E+01 0. -1.
        -11    1    4    4    0    0  0.39161430591E+02 -0.16870024938E+02 -0.15549949003E+01  0.42668880891E+02  0.00000000000E+00 0.  1.
         12    1    4    4    0    0 -0.34584898060E+02 -0.29321274822E+02 -0.29972647356E+02  0.54352662497E+02  0.00000000000E+00 0. -1.
         -5    1    5    5    0  502  0.64276173141E+02 -0.56237566883E+02  0.49884157624E+02  0.99018228344E+02  0.47000000000E+01 0.  1.
         11    1    6    6    0    0  0.28001092940E+02  0.41772733510E+01 -0.47655192694E+01  0.28709249248E+02  0.00000000000E+00 0. -1.
        -12    1    6    6    0    0 -0.48129014375E+01  0.63483261001E+02  0.77655215675E+02  0.10041723442E+03  0.00000000000E+00 0.  1.
</event>
<event>
12    1  0.1594973E-001  0.2222438E+03  0.7818608E-02  0.1132507E+00
         21   -1    0    0  503  502  0.00000000000E+00  0.00000000000E+00  0.17485407394E+03  0.17485407394E+03  0.00000000000E+00 0. -1.
         21   -1    0    0  501  503 -0.00000000000E+00 -0.00000000000E+00 -0.29037410176E+03  0.29037410176E+03  0.00000000000E+00 0.  1.
          6    2    1    2  501    0  0.49320626152E+02 -0.13111848455E+03 -0.10081378225E+03  0.24404039728E+03  0.17253323059E+03 0.  0.
         24    2    3    3    0    0 -0.15774912968E+02 -0.52697942553E+02  0.61908077989E+01  0.96191545705E+02  0.78667441394E+02 0.  0.
         -6    2    1    2    0  502 -0.49320626152E+02  0.13111848455E+03 -0.14706245575E+02  0.22118777841E+03  0.17053790929E+03 0.  0.
        -24    2    5    5    0    0  0.85364352205E+01  0.85843422956E+01 -0.26524616518E+02  0.85085539414E+02  0.79933923193E+02 0.  0.
          5    1    3    3  501    0  0.65095539120E+02 -0.78420541999E+02 -0.10700459005E+03  0.14784885157E+03  0.47000000000E+01 0. -1.
        -11    1    4    4    0    0  0.41265431521E+01 -0.41799453931E+02 -0.31290875185E+02  0.52376918362E+02  0.00000000000E+00 0.  1.
         12    1    4    4    0    0 -0.19901456120E+02 -0.10898488622E+02  0.37481682984E+02  0.43814627343E+02  0.00000000000E+00 0. -1.
         -5    1    5    5    0  502 -0.57857061372E+02  0.12253414226E+03  0.11818370943E+02  0.13610223900E+03  0.47000000000E+01 0.  1.
         11    1    6    6    0    0  0.28465845235E+01  0.79251532646E+01  0.28523325368E+02  0.29740396564E+02  0.00000000000E+00 0. -1.
        -12    1    6    6    0    0  0.56898506970E+01  0.65918903095E+00 -0.55047941886E+02  0.55345142850E+02  0.00000000000E+00 0.  1.
</event>
<event>
12    1  0.1594973E-001  0.1737367E+03  0.7818608E-02  0.1174110E+00
         21   -1    0    0  503  502  0.00000000000E+00  0.00000000000E+00  0.18295190680E+03  0.18295190680E+03  0.00000000000E+00 0.  1.
         21   -1    0    0  501  503 -0.00000000000E+00 -0.00000000000E+00 -0.47379705626E+03  0.47379705626E+03  0.00000000000E+00 0.  1.
          6    2    1    2  501    0 -0.59881537859E+01 -0.18774068452E+02 -0.41075399327E+03  0.44598572779E+03  0.17261547662E+03 0.  0.
         24    2    3    3    0    0 -0.23705394673E+02  0.55429472839E+01 -0.40694201627E+03  0.41529633145E+03  0.79224796036E+02 0.  0.
         -6    2    1    2    0  502  0.59881537859E+01  0.18774068452E+02  0.11990884381E+03  0.21076323527E+03  0.17220536254E+03 0.  0.
        -24    2    5    5    0    0  0.22178023865E+02  0.72157089718E+02  0.46477404443E+02  0.11842621594E+03  0.78524576778E+02 0.  0.
          5    1    3    3  501    0  0.17717240887E+02 -0.24317015736E+02 -0.38119769997E+01  0.30689396338E+02  0.47000000000E+01 0. -1.
        -11    1    4    4    0    0 -0.24371201470E+02 -0.56323232283E+01 -0.40246128693E+03  0.40323785289E+03  0.00000000000E+00 0.  1.
         12    1    4    4    0    0  0.66580679784E+00  0.11175270512E+02 -0.44807293405E+01  0.12058478558E+02  0.00000000000E+00 0. -1.
         -5    1    5    5    0  502 -0.16189870079E+02 -0.53383021266E+02  0.73431439366E+02  0.92337019337E+02  0.47000000000E+01 0.  1.
         11    1    6    6    0    0 -0.17661144081E+02  0.25626650137E+01  0.32427746372E+02  0.37014078362E+02  0.00000000000E+00 0. -1.
        -12    1    6    6    0    0  0.39839167946E+02  0.69594424704E+02  0.14049658071E+02  0.81412137574E+02  0.00000000000E+00 0.  1.
</event>
<event>
12    1  0.1594973E-001  0.2381870E+03  0.7818608E-02  0.1121511E+00
         21   -1    0    0  503  502  0.00000000000E+00  0.00000000000E+00  0.16363359401E+03  0.16363359401E+03  0.00000000000E+00 0.  1.
         21   -1    0    0  501  503 -0.00000000000E+00 -0.00000000000E+00 -0.60329419691E+03  0.60329419691E+03  0.00000000000E+00 0.  1.
          6    2    1    2  501    0  0.13633087661E+03 -0.90557943936E+02 -0.47278924638E+03  0.52939845537E+03  0.17304971521E+03 0.  0.
         24    2    3    3    0    0  0.11668630207E+03 -0.25223506541E+01 -0.22391511310E+03  0.26464083186E+03  0.79213235447E+02 0.  0.
         -6    2    1    2    0  502 -0.13633087661E+03  0.90557943936E+02  0.33128643477E+02  0.23752933555E+03  0.16892551347E+03 0.  0.
        -24    2    5    5    0    0 -0.27479884368E+02  0.38171047369E+02 -0.27442315983E+02  0.10231152395E+03  0.86616362917E+02 0.  0.
          5    1    3    3  501    0  0.19644574539E+02 -0.88035593282E+02 -0.24887413327E+03  0.26475762351E+03  0.47000000000E+01 0. -1.
        -13    1    4    4    0    0  0.11723645107E+03 -0.22863392606E+02 -0.17733719350E+03  0.21381206790E+03  0.00000000000E+00 0.  1.
         14    1    4    4    0    0 -0.55014899945E+00  0.20341041952E+02 -0.46577919605E+02  0.50828763967E+02  0.00000000000E+00 0. -1.
         -5    1    5    5    0  502 -0.10885099224E+03  0.52386896567E+02  0.60570959460E+02  0.13521781160E+03  0.47000000000E+01 0.  1.
         11    1    6    6    0    0 -0.34600616405E+02 -0.78188985138E+01 -0.40634615355E+02  0.53939872030E+02  0.00000000000E+00 0. -1.
        -12    1    6    6    0    0  0.71207320364E+01  0.45989945883E+02  0.13192299372E+02  0.48371651923E+02  0.00000000000E+00 0.  1.
</event>
<event>
12    1  0.1594973E-001  0.1741683E+03  0.7818608E-02  0.1174037E+00
         21   -1    0    0  503  502  0.00000000000E+00  0.00000000000E+00  0.12268541237E+03  0.12268541237E+03  0.00000000000E+00 0. -1.
         21   -1    0    0  501  503 -0.00000000000E+00 -0.00000000000E+00 -0.24503585121E+03  0.24503585121E+03  0.00000000000E+00 0. -1.
          6    2    1    2  501    0 -0.33782436890E+01 -0.13823408324E+02 -0.68822405906E+02  0.18727288384E+03  0.17358603147E+03 0.  0.
         24    2    3    3    0    0 -0.48377892246E+02  0.43360457166E+02 -0.32669336296E+02  0.10588432639E+03  0.76965286568E+02 0.  0.
         -6    2    1    2    0  502  0.33782436890E+01  0.13823408324E+02 -0.53528032938E+02  0.18044837973E+03  0.17173778935E+03 0.  0.
        -24    2    5    5    0    0 -0.48412929377E+02  0.36200720456E+02 -0.69646080959E+02  0.12158454382E+03  0.79233331444E+02 0.  0.
          5    1    3    3  501    0  0.44999648557E+02 -0.57183865490E+02 -0.36153069610E+02  0.81388557457E+02  0.47000000000E+01 0. -1.
        -13    1    4    4    0    0  0.11342211397E+02  0.26317620551E+02 -0.33095262598E+02  0.43778525754E+02  0.00000000000E+00 0.  1.
         14    1    4    4    0    0 -0.59720103642E+02  0.17042836616E+02  0.42592630135E+00  0.62105800632E+02  0.00000000000E+00 0. -1.
         -5    1    5    5    0  502  0.51791173066E+02 -0.22377312132E+02  0.16118048021E+02  0.58863835908E+02  0.47000000000E+01 0.  1.
         11    1    6    6    0    0  0.26189181540E+01  0.26174187866E+02  0.85616602797E+01  0.27663131953E+02  0.00000000000E+00 0. -1.
        -12    1    6    6    0    0 -0.51031847531E+02  0.10026532590E+02 -0.78207741239E+02  0.93921411871E+02  0.00000000000E+00 0.  1.
</event>
<event>
12    1  0.1594973E-001  0.1733750E+03  0.7818608E-02  0.1174489E+00
         21   -1    0    0  503  502  0.00000000000E+00  0.00000000000E+00  0.22532239340E+02  0.22532239340E+02  0.00000000000E+00 0. -1.
         21   -1    0    0  501  503 -0.00000000000E+00 -0.00000000000E+00 -0.15903918397E+04  0.15903918397E+04  0.00000000000E+00 0. -1.
          6    2    1    2  501    0 -0.71118699258E+01  0.14798237870E+02 -0.45708390833E+03  0.48869922329E+03  0.17213850545E+03 0.  0.
         24    2    3    3    0    0  0.34120925440E+02  0.55083817682E+02 -0.19349853073E+03  0.21884294185E+03  0.79070141503E+02 0.  0.
         -6    2    1    2    0  502  0.71118699258E+01 -0.14798237870E+02 -0.11107756920E+04  0.11242248557E+04  0.17259583346E+03 0.  0.
        -24    2    5    5    0    0  0.51040194451E+02 -0.75143655118E+01 -0.50922464992E+03  0.52100972102E+03  0.97364357827E+02 0.  0.
          5    1    3    3  501    0 -0.41232795366E+02 -0.40285579812E+02 -0.26358537759E+03  0.26985628145E+03  0.47000000000E+01 0. -1.
        -11    1    4    4    0    0 -0.25333166141E+02  0.10734229458E+02 -0.62828307662E+02  0.68588550301E+02  0.00000000000E+00 0.  1.
         12    1    4    4    0    0  0.59454091582E+02  0.44349588225E+02 -0.13067022307E+03  0.15025439155E+03  0.00000000000E+00 0. -1.
         -5    1    5    5    0  502 -0.43928324525E+02 -0.72838723581E+01 -0.60155104207E+03  0.60321513468E+03  0.47000000000E+01 0.  1.
         13    1    6    6    0    0  0.60672425298E+01  0.16448749814E+02 -0.40105148507E+03  0.40143451083E+03  0.00000000000E+00 0. -1.
        -14    1    6    6    0    0  0.44972951921E+02 -0.23963115326E+02 -0.10817316485E+03  0.11957521020E+03  0.00000000000E+00 0.  1.
</event>
<event>
12    1  0.1594973E-001  0.2629972E+03  0.7818608E-02  0.1105896E+00
         21   -1    0    0  503  502  0.00000000000E+00  0.00000000000E+00  0.34220633523E+02  0.34220633523E+02  0.00000000000E+00 0. -1.
         21   -1    0    0  501  503 -0.00000000000E+00 -0.00000000000E+00 -0.20700381225E+04  0.20700381225E+04  0.00000000000E+00 0.  1.
          6    2    1    2  501    0 -0.18799037708E+03  0.49801798943E+02 -0.80876624458E+03  0.84933953053E+03  0.17162225582E+03 0.  0.
         24    2    3    3    0    0 -0.16832149660E+03  0.18102018393E+02 -0.77950946834E+03  0.80169721843E+03  0.80147423620E+02 0.  0.
         -6    2    1    2    0  502  0.18799037708E+03 -0.49801798943E+02 -0.12270512444E+04  0.12549192255E+04  0.17705057210E+03 0.  0.
        -24    2    5    5    0    0  0.53320581011E+02 -0.45085790645E+01 -0.29349094248E+03  0.31059705745E+03  0.86430244327E+02 0.  0.
          5    1    3    3  501    0 -0.19668880485E+02  0.31699780550E+02 -0.29256776237E+02  0.47642312100E+02  0.47000000000E+01 0. -1.
        -11    1    4    4    0    0 -0.71504756860E+02  0.46530671488E+02 -0.31446466204E+03  0.32583133262E+03  0.00000000000E+00 0.  1.
         12    1    4    4    0    0 -0.96816739740E+02 -0.28428653095E+02 -0.46504480631E+03  0.47586588581E+03  0.00000000000E+00 0. -1.
         -5    1    5    5    0  502  0.13466979607E+03 -0.45293219879E+02 -0.93356030189E+03  0.94432216802E+03  0.47000000000E+01 0.  1.
         11    1    6    6    0    0  0.12487930334E+02 -0.19806570068E+02 -0.13088633616E+02  0.26824633302E+02  0.00000000000E+00 0. -1.
        -12    1    6    6    0    0  0.40832650677E+02  0.15297991004E+02 -0.28040230887E+03  0.28377242415E+03  0.00000000000E+00 0.  1.
</event>
<event>
12    1  0.1594973E-001  0.2302862E+03  0.7818608E-02  0.1126472E+00
         21   -1    0    0  501  502  0.00000000000E+00  0.00000000000E+00  0.22706686906E+04  0.22706686906E+04  0.00000000000E+00 0. -1.
         21   -1    0    0  502  503 -0.00000000000E+00 -0.00000000000E+00 -0.11823387265E+03  0.11823387265E+03  0.00000000000E+00 0. -1.
         -6    2    1    2    0  503 -0.90408602627E+02  0.12395944994E+03  0.60218909831E+01  0.23017140683E+03  0.17147289200E+03 0.  0.
        -24    2    3    3    0    0 -0.11478098231E+03  0.12634573529E+03  0.35428666917E+02  0.19161552894E+03  0.79519819952E+02 0.  0.
          6    2    1    2  501    0  0.90408602627E+02 -0.12395944994E+03  0.21464129270E+04  0.21587311564E+04  0.17173261782E+03 0.  0.
         24    2    5    5    0    0  0.73913067894E+02 -0.45815341823E+02  0.17805674160E+04  0.17842399920E+04  0.74362888408E+02 0.  0.
          5    1    5    5  501    0  0.16495534733E+02 -0.78144108117E+02  0.36584551098E+03  0.37449116439E+03  0.47000000000E+01 0. -1.
        -11    1    6    6    0    0  0.13887328391E+02  0.44194802428E+00  0.46844282713E+02  0.48861437051E+02  0.00000000000E+00 0.  1.
         12    1    6    6    0    0  0.60025739503E+02 -0.46257289847E+02  0.17337231333E+04  0.17353785550E+04  0.00000000000E+00 0. -1.
         -5    1    3    3    0  503  0.24372379678E+02 -0.23862853519E+01 -0.29406775934E+02  0.38555877889E+02  0.47000000000E+01 0.  1.
         13    1    4    4    0    0 -0.10669102714E+03  0.86105864437E+02 -0.44413184599E+00  0.13710358280E+03  0.00000000000E+00 0. -1.
        -14    1    4    4    0    0 -0.80899551654E+01  0.40239870854E+02  0.35872798763E+02  0.54511946141E+02  0.00000000000E+00 0.  1.
</event>
<event>
12    1  0.1594973E-001  0.3309180E+03  0.7818608E-02  0.1070826E+00
         21   -1    0    0  501  502  0.00000000000E+00  0.00000000000E+00  0.90976395136E+03  0.90976395136E+03  0.00000000000E+00 0. -1.
         21   -1    0    0  502  503 -0.00000000000E+00 -0.00000000000E+00 -0.12422496904E+03  0.12422496904E+03  0.00000000000E+00 0.  1.
         -6    2    1    2    0  503  0.15675236099E+03  0.23440463580E+03  0.29759219891E+03  0.44441384959E+03  0.17153925758E+03 0.  0.
        -24    2    3    3    0    0  0.13376994265E+03  0.83701224060E+02  0.17075462442E+03  0.24604658877E+03  0.80507699123E+02 0.  0.
          6    2    1    2  501    0 -0.15675236099E+03 -0.23440463580E+03  0.48794678341E+03  0.58957507082E+03  0.17317582027E+03 0.  0.
         24    2    5    5    0    0 -0.51633026235E+02 -0.13970472764E+03  0.15717335398E+03  0.22978165959E+03  0.76894522289E+02 0.  0.
          5    1    5    5  501    0 -0.10511933476E+03 -0.94699908154E+02  0.33077342943E+03  0.35979341123E+03  0.47000000000E+01 0. -1.
        -11    1    6    6    0    0  0.27457183624E+01  0.22070833496E+01  0.33940711473E+02  0.34123043263E+02  0.00000000000E+00 0.  1.
         12    1    6    6    0    0 -0.54378744597E+02 -0.14191181099E+03  0.12323264250E+03  0.19565861633E+03  0.00000000000E+00 0. -1.
         -5    1    3    3    0  503  0.22982418344E+02  0.15070341174E+03  0.12683757449E+03  0.19836726082E+03  0.47000000000E+01 0.  1.
         13    1    4    4    0    0  0.19321874412E+02  0.12814627285E+02 -0.59179296823E+01  0.23928464117E+02  0.00000000000E+00 0. -1.
        -14    1    4    4    0    0  0.11444806824E+03  0.70886596774E+02  0.17667255410E+03  0.22211812465E+03  0.00000000000E+00 0.  1.
</event>
<event>
12    1  0.1594973E-001  0.2230481E+03  0.7818608E-02  0.1131934E+00
         21   -1    0    0  503  502  0.00000000000E+00  0.00000000000E+00  0.27385392600E+03  0.27385392600E+03  0.00000000000E+00 0.  1.
         21   -1    0    0  501  503 -0.00000000000E+00 -0.00000000000E+00 -0.19303922125E+03  0.19303922125E+03  0.00000000000E+00 0. -1.
          6    2    1    2  501    0 -0.11199464942E+03 -0.85309257366E+02  0.10045436117E+03  0.24462529888E+03  0.17300285339E+03 0.  0.
         24    2    3    3    0    0 -0.14320768702E+03 -0.60542631485E+02  0.54549690249E+02  0.18365835467E+03  0.81122565814E+02 0.  0.
         -6    2    1    2    0  502  0.11199464942E+03  0.85309257366E+02 -0.19639656416E+02  0.22226784838E+03  0.17087073895E+03 0.  0.
        -24    2    5    5    0    0  0.13682281773E+03  0.17559623335E+02 -0.25762602956E+02  0.14970042230E+03  0.52131381162E+02 0.  0.
          5    1    3    3  501    0  0.31213037605E+02 -0.24766625880E+02  0.45904670916E+02  0.60966944207E+02  0.47000000000E+01 0. -1.
        -11    1    4    4    0    0 -0.91879743749E+02 -0.50899465997E+02  0.73392658703E+02  0.12813713475E+03  0.00000000000E+00 0.  1.
         12    1    4    4    0    0 -0.51327943273E+02 -0.96431654883E+01 -0.18842968454E+02  0.55521219921E+02  0.00000000000E+00 0. -1.
         -5    1    5    5    0  502 -0.24828168317E+02  0.67749634030E+02  0.61229465403E+01  0.72567426078E+02  0.47000000000E+01 0.  1.
         13    1    6    6    0    0  0.69156664575E+02  0.30339491200E+02 -0.28666405909E+02  0.80776802420E+02  0.00000000000E+00 0. -1.
        -14    1    6    6    0    0  0.67666153160E+02 -0.12779867865E+02  0.29038029531E+01  0.68923619883E+02  0.00000000000E+00 0.  1.
</event>
<event>
12    1  0.1594973E-001  0.2809649E+03  0.7818608E-02  0.1095792E+00
         21   -1    0    0  503  502  0.00000000000E+00  0.00000000000E+00  0.82063133866E+03  0.82063133866E+03  0.00000000000E+00 0.  1.
         21   -1    0    0  501  503 -0.00000000000E+00 -0.00000000000E+00 -0.20087390107E+03  0.20087390107E+03  0.00000000000E+00 0.  1.
          6    2    1    2  501    0  0.80933701460E+02 -0.20012957877E+03 -0.60360158203E+02  0.28737543536E+03  0.17983097570E+03 0.  0.
         24    2    3    3    0    0  0.19144825772E+02 -0.17276091904E+03 -0.92436963160E+02  0.21242264949E+03  0.79786780580E+02 0.  0.
         -6    2    1    2    0  502 -0.80933701460E+02  0.20012957877E+03  0.68011759579E+03  0.73412980437E+03  0.17258190297E+03 0.  0.
        -24    2    5    5    0    0 -0.93710404662E+02  0.15938958888E+03  0.65301289249E+03  0.68333860570E+03  0.79618661760E+02 0.  0.
          5    1    3    3  501    0  0.61788875688E+02 -0.27368659727E+02  0.32076804957E+02  0.74952785874E+02  0.47000000000E+01 0. -1.
        -13    1    4    4    0    0  0.28315672825E+01 -0.10974215276E+03 -0.97909089594E+02  0.14709706894E+03  0.00000000000E+00 0.  1.
         14    1    4    4    0    0  0.16313258490E+02 -0.63018766281E+02  0.54721264342E+01  0.65325580548E+02  0.00000000000E+00 0. -1.
         -5    1    5    5    0  502  0.12776703201E+02  0.40739989896E+02  0.27104703302E+02  0.50791198671E+02  0.47000000000E+01 0.  1.
         11    1    6    6    0    0 -0.11527328427E+02  0.72055429445E+02  0.34860584113E+03  0.35616133519E+03  0.00000000000E+00 0. -1.
        -12    1    6    6    0    0 -0.82183076235E+02  0.87334159431E+02  0.30440705136E+03  0.32717727051E+03  0.00000000000E+00 0.  1.
</event>
<event>
12    1  0.1594973E-001  0.2450963E+03  0.7818608E-02  0.1116772E+00
         21   -1    0    0  503  502  0.00000000000E+00  0.00000000000E+00  0.10077330767E+03  0.10077330767E+03  0.00000000000E+00 0. -1.
         21   -1    0    0  501  503 -0.00000000000E+00 -0.00000000000E+00 -0.72739396933E+03  0.72739396933E+03  0.00000000000E+00 0. -1.
          6    2    1    2  501    0  0.92230948162E+02  0.14640855924E+03 -0.13519861933E+03  0.27991225488E+03  0.17358049933E+03 0.  0.
         24    2    3    3    0    0  0.51761853736E+02 -0.65977599443E+00 -0.45525112104E+02  0.10290866529E+03  0.76406365919E+02 0.  0.
         -6    2    1    2    0  502 -0.92230948162E+02 -0.14640855924E+03 -0.49142204234E+03  0.54825502212E+03  0.17072179582E+03 0.  0.
        -24    2    5    5    0    0 -0.47045162576E+02 -0.15304903754E+03 -0.45556169687E+03  0.48999778611E+03  0.83211270364E+02 0.  0.
          5    1    3    3  501    0  0.40469094426E+02  0.14706833523E+03 -0.89673507222E+02  0.17700358959E+03  0.47000000000E+01 0. -1.
        -13    1    4    4    0    0  0.65423888332E+02 -0.11753950527E+02 -0.15735020411E+02  0.68308355161E+02  0.00000000000E+00 0.  1.
         14    1    4    4    0    0 -0.13662034597E+02  0.11094174533E+02 -0.29790091693E+02  0.34600310128E+02  0.00000000000E+00 0. -1.
         -5    1    5    5    0  502 -0.45185785586E+02  0.66404783070E+01 -0.35860345465E+02  0.58257236015E+02  0.47000000000E+01 0.  1.
         13    1    6    6    0    0 -0.20533604635E+02 -0.95017658228E+02 -0.15671685095E+03  0.18441842551E+03  0.00000000000E+00 0. -1.
        -14    1    6    6    0    0 -0.26511557941E+02 -0.58031379316E+02 -0.29884484592E+03  0.30557936060E+03  0.00000000000E+00 0.  1.
</event>
<event>
12    1  0.1594973E-001  0.2262741E+03  0.7818608E-02  0.1129352E+00
         21   -1    0    0  501  502  0.00000000000E+00  0.00000000000E+00  0.25148366207E+03  0.25148366207E+03  0.00000000000E+00 0.  1.
         21   -1    0    0  502  503 -0.00000000000E+00 -0.00000000000E+00 -0.35828300008E+03  0.35828300008E+03  0.00000000000E+00 0. -1.
         -6    2    1    2    0  503  0.14446410513E+03  0.21493403421E+02 -0.25391088354E+03  0.33987449182E+03  0.17237195057E+03 0.  0.
        -24    2    3    3    0    0  0.53019967993E+02 -0.35180128442E+02 -0.18981547275E+03  0.21455796811E+03  0.77178037928E+02 0.  0.
          6    2    1    2  501    0 -0.14446410513E+03 -0.21493403421E+02  0.14711154553E+03  0.26989217033E+03  0.17282399346E+03 0.  0.
         24    2    5    5    0    0 -0.27821491991E+02 -0.49258337970E+02  0.10695923961E+03  0.14335882112E+03  0.76883375184E+02 0.  0.
          5    1    5    5  501    0 -0.11664261314E+03  0.27764934549E+02  0.40152305921E+02  0.12653334921E+03  0.47000000000E+01 0. -1.
        -11    1    6    6    0    0 -0.46020842078E+02 -0.41826190547E+02  0.10693193361E+03  0.12370039024E+03  0.00000000000E+00 0.  1.
         12    1    6    6    0    0  0.18199350086E+02 -0.74321474223E+01  0.27305997084E-01  0.19658430876E+02  0.00000000000E+00 0. -1.
         -5    1    3    3    0  503  0.91444137141E+02  0.56673531863E+02 -0.64095410792E+02  0.12531652371E+03  0.47000000000E+01 0.  1.
         13    1    4    4    0    0  0.67812499526E+02 -0.10902896470E+02 -0.15552105659E+03  0.17001237392E+03  0.00000000000E+00 0. -1.
        -14    1    4    4    0    0 -0.14792531533E+02 -0.24277231972E+02 -0.34294416163E+02  0.44545594186E+02  0.00000000000E+00 0.  1.
</event>
<event>
12    1  0.1594973E-001  0.2115185E+03  0.7818608E-02  0.1140595E+00
         21   -1    0    0  501  502  0.00000000000E+00  0.00000000000E+00  0.13918235947E+03  0.13918235947E+03  0.00000000000E+00 0.  1.
         21   -1    0    0  502  503 -0.00000000000E+00 -0.00000000000E+00 -0.33389620458E+03  0.33389620458E+03  0.00000000000E+00 0.  1.
         -6    2    1    2    0  503 -0.10301784457E+03  0.68575045756E+02 -0.14636783405E+03  0.25722286954E+03  0.17153672660E+03 0.  0.
        -24    2    3    3    0    0 -0.10192415538E+03  0.83283762307E+02 -0.53732768012E+02  0.16330328715E+03  0.80349453765E+02 0.  0.
          6    2    1    2  501    0  0.10301784457E+03 -0.68575045756E+02 -0.48346011071E+02  0.21585569451E+03  0.17012093012E+03 0.  0.
         24    2    5    5    0    0  0.68408765968E+02  0.24532316278E+02 -0.46190149880E+02  0.11638958508E+03  0.78303331773E+02 0.  0.
          5    1    5    5  501    0  0.34609078601E+02 -0.93107362034E+02 -0.21558611913E+01  0.99466109424E+02  0.47000000000E+01 0. -1.
        -11    1    6    6    0    0  0.42144123367E+02  0.32273342181E+02  0.98773386731E+01  0.53993125203E+02  0.00000000000E+00 0.  1.
         12    1    6    6    0    0  0.26264642601E+02 -0.77410259033E+01 -0.56067488553E+02  0.62396459880E+02  0.00000000000E+00 0. -1.
         -5    1    3    3    0  503 -0.10936891844E+01 -0.14708716551E+02 -0.92635066034E+02  0.93919582397E+02  0.47000000000E+01 0.  1.
         13    1    4    4    0    0 -0.65564283990E+02  0.68961216243E+02  0.20709038100E+01  0.95176747808E+02  0.00000000000E+00 0. -1.
        -14    1    4    4    0    0 -0.36359871395E+02  0.14322546064E+02 -0.55803671822E+02  0.68126539339E+02  0.00000000000E+00 0.  1.
</event>
<event>
12    1  0.1594973E-001  0.1845715E+03  0.7818608E-02  0.1164757E+00
         21   -1    0    0  503  502  0.00000000000E+00  0.00000000000E+00  0.18718358524E+03  0.18718358524E+03  0.00000000000E+00 0.  1.
         21   -1    0    0  501  503 -0.00000000000E+00 -0.00000000000E+00 -0.33709858114E+03  0.33709858114E+03  0.00000000000E+00 0.  1.
          6    2    1    2  501    0 -0.50469083649E+02 -0.45367850571E+02 -0.25640657282E+03  0.31592875851E+03  0.17164288391E+03 0.  0.
         24    2    3    3    0    0 -0.50367502186E+02  0.17179297844E+02 -0.94039356762E+02  0.14186739305E+03  0.91929010873E+02 0.  0.
         -6    2    1    2    0  502  0.50469083649E+02  0.45367850571E+02  0.10649157692E+03  0.20835340787E+03  0.16572663137E+03 0.  0.
        -24    2    5    5    0    0  0.88656521832E+02  0.50042029411E+02  0.47304876644E+02  0.13760537700E+03  0.79582063643E+02 0.  0.
          5    1    3    3  501    0 -0.10158146277E+00 -0.62547148415E+02 -0.16236721606E+03  0.17406136546E+03  0.47000000000E+01 0. -1.
        -13    1    4    4    0    0 -0.20758481151E+02  0.85478170864E+01 -0.10632488122E+03  0.10866903921E+03  0.00000000000E+00 0.  1.
         14    1    4    4    0    0 -0.29609021035E+02  0.86314807572E+01  0.12285524455E+02  0.33198353843E+02  0.00000000000E+00 0. -1.
         -5    1    5    5    0  502 -0.38187438183E+02 -0.46741788400E+01  0.59186700274E+02  0.70748030871E+02  0.47000000000E+01 0.  1.
         13    1    6    6    0    0  0.99140952332E+02  0.26569732315E+02  0.31228796188E+02  0.10728521248E+03  0.00000000000E+00 0. -1.
        -14    1    6    6    0    0 -0.10484430500E+02  0.23472297096E+02  0.16076080456E+02  0.30320164523E+02  0.00000000000E+00 0.  1.
</event>
<event>
12    1  0.1594973E-001  0.2665977E+03  0.7818608E-02  0.1103566E+00
         21   -1    0    0  503  502  0.00000000000E+00  0.00000000000E+00  0.15983935623E+04  0.15983935623E+04  0.00000000000E+00 0.  1.
         21   -1    0    0  501  503 -0.00000000000E+00 -0.00000000000E+00 -0.47849057330E+02  0.47849057330E+02  0.00000000000E+00 0. -1.
          6    2    1    2  501    0 -0.11060475986E+03  0.16975842131E+03  0.54779292376E+03  0.60922197392E+03  0.17327143930E+03 0.  0.
         24    2    3    3    0    0 -0.29653477335E+02  0.15765743303E+03  0.42285200365E+03  0.45978346624E+03  0.82836126966E+02 0.  0.
         -6    2    1    2    0  502  0.11060475986E+03 -0.16975842131E+03  0.10027515812E+04  0.10370206457E+04  0.16985214601E+03 0.  0.
        -24    2    5    5    0    0  0.11006776478E+03 -0.83435464725E+02  0.44409821135E+03  0.47171752450E+03  0.78853103782E+02 0.  0.
          5    1    3    3  501    0 -0.80951282521E+02  0.12100988277E+02  0.12494092012E+03  0.14943850768E+03  0.47000000000E+01 0. -1.
        -13    1    4    4    0    0  0.28817198605E+01  0.11082116524E+03  0.35076589833E+03  0.36786730000E+03  0.00000000000E+00 0.  1.
         14    1    4    4    0    0 -0.32535197195E+02  0.46836267792E+02  0.72086105314E+02  0.91916166242E+02  0.00000000000E+00 0. -1.
         -5    1    5    5    0  502  0.53699507546E+00 -0.86322956585E+02  0.55865336989E+03  0.56530312125E+03  0.47000000000E+01 0.  1.
         13    1    6    6    0    0  0.83547209594E+02 -0.32623428025E+02  0.35194462238E+03  0.36319339409E+03  0.00000000000E+00 0. -1.
        -14    1    6    6    0    0  0.26520555187E+02 -0.50812036700E+02  0.92153588968E+02  0.10852413041E+03  0.00000000000E+00 0.  1.
</event>
<event>
12    1  0.1594973E-001  0.1829179E+03  0.7818608E-02  0.1165562E+00
         21   -1    0    0  501  502  0.00000000000E+00  0.00000000000E+00  0.10392004280E+04  0.10392004280E+04  0.00000000000E+00 0. -1.
         21   -1    0    0  502  503 -0.00000000000E+00 -0.00000000000E+00 -0.48577114931E+02  0.48577114931E+02  0.00000000000E+00 0. -1.
         -6    2    1    2    0  503  0.54939625369E+02 -0.20748065144E+02  0.17765217163E+03  0.25498869801E+03  0.17323422694E+03 0.  0.
        -24    2    3    3    0    0  0.89149208582E+02  0.87860535294E+01  0.70189484078E+02  0.13831445506E+03  0.78610105440E+02 0.  0.
          6    2    1    2  501    0 -0.54939625369E+02  0.20748065144E+02  0.81297114144E+03  0.83278884492E+03  0.17078155281E+03 0.  0.
         24    2    5    5    0    0  0.19172087320E+02  0.54933081688E+02  0.46358704347E+03  0.47396786000E+03  0.79670402535E+02 0.  0.
          5    1    5    5  501    0 -0.74111712689E+02 -0.34185016544E+02  0.34938409797E+03  0.35882098493E+03  0.47000000000E+01 0. -1.
        -11    1    6    6    0    0  0.26753001875E+02 -0.13378862494E+02  0.14380966105E+03  0.14688749328E+03  0.00000000000E+00 0.  1.
         12    1    6    6    0    0 -0.75809145551E+01  0.68311944182E+02  0.31977738242E+03  0.32708036672E+03  0.00000000000E+00 0. -1.
         -5    1    3    3    0  503 -0.34209583212E+02 -0.29534118673E+02  0.10746268756E+03  0.11667424294E+03  0.47000000000E+01 0.  1.
         11    1    4    4    0    0  0.39980567537E+02  0.40122986742E+02  0.16353641422E+02  0.58955419034E+02  0.00000000000E+00 0. -1.
        -12    1    4    4    0    0  0.49168641044E+02 -0.31336933212E+02  0.53835842656E+02  0.79359036031E+02  0.00000000000E+00 0.  1.
</event>
<event>
12    1  0.1594973E-001  0.1949351E+03  0.7818608E-02  0.1154333E+00
         21   -1    0    0  503  502  0.00000000000E+00  0.00000000000E+00  0.74695719535E+02  0.74695719535E+02  0.00000000000E+00 0.  1.
         21   -1    0    0  501  503 -0.00000000000E+00 -0.00000000000E+00 -0.51835892761E+03  0.51835892761E+03  0.00000000000E+00 0.  1.
          6    2    1    2  501    0  0.87953953236E+02 -0.22207495703E+02 -0.26869367881E+03  0.33195781302E+03  0.17254166407E+03 0.  0.
         24    2    3    3    0    0  0.12021214978E+03 -0.40801135082E+02 -0.24497788399E+03  0.28756362879E+03  0.81012242169E+02 0.  0.
         -6    2    1    2    0  502 -0.87953953236E+02  0.22207495703E+02 -0.17496952927E+03  0.26109683413E+03  0.17125463457E+03 0.  0.
        -24    2    5    5    0    0 -0.62270939569E+02  0.75399936845E+02 -0.82011248335E+02  0.15085897774E+03  0.80434855140E+02 0.  0.
          5    1    3    3  501    0 -0.32258196541E+02  0.18593639379E+02 -0.23715794814E+02  0.44394184226E+02  0.47000000000E+01 0. -1.
        -11    1    4    4    0    0  0.62752088470E+02  0.20132051882E+02 -0.92139386898E+02  0.11328190826E+03  0.00000000000E+00 0.  1.
         12    1    4    4    0    0  0.57460061307E+02 -0.60933186964E+02 -0.15283849709E+03  0.17428172054E+03  0.00000000000E+00 0. -1.
         -5    1    5    5    0  502 -0.25683013667E+02 -0.53192441142E+02 -0.92958280938E+02  0.11023785639E+03  0.47000000000E+01 0.  1.
         11    1    6    6    0    0  0.17138340615E+02  0.74667185548E+01 -0.11576956870E+01  0.18730052438E+02  0.00000000000E+00 0. -1.
        -12    1    6    6    0    0 -0.79409280184E+02  0.67933218290E+02 -0.80853552648E+02  0.13212892531E+03  0.00000000000E+00 0.  1.
</event>
<event>
12    1  0.1594973E-001  0.2019265E+03  0.7818608E-02  0.1148124E+00
         21   -1    0    0  501  502  0.00000000000E+00  0.00000000000E+00  0.37647021450E+02  0.37647021450E+02  0.00000000000E+00 0. -1.
         21   -1    0    0  502  503 -0.00000000000E+00 -0.00000000000E+00 -0.11891926327E+04  0.11891926327E+04  0.00000000000E+00 0. -1.
         -6    2    1    2    0  503 -0.40921086047E+02 -0.96063291894E+02 -0.75903168667E+03  0.78543198444E+03  0.17283405185E+03 0.  0.
        -24    2    3    3    0    0 -0.66130355808E+02 -0.12358886114E+03 -0.66118668965E+03  0.68060404119E+03  0.80041187884E+02 0.  0.
          6    2    1    2  501    0  0.40921086047E+02  0.96063291894E+02 -0.39251392457E+03  0.44140766971E+03  0.17283187946E+03 0.  0.
         24    2    5    5    0    0  0.11873283858E+02  0.12317665364E+03 -0.36228907663E+03  0.39126247422E+03  0.80743332948E+02 0.  0.
          5    1    5    5  501    0  0.29047802189E+02 -0.27113361743E+02 -0.30224847942E+02  0.50145195484E+02  0.47000000000E+01 0. -1.
        -13    1    6    6    0    0  0.40594921649E+02  0.44684365741E+02 -0.19699461229E+03  0.20603766033E+03  0.00000000000E+00 0.  1.
         14    1    6    6    0    0 -0.28721637791E+02  0.78492287896E+02 -0.16529446434E+03  0.18522481389E+03  0.00000000000E+00 0. -1.
         -5    1    3    3    0  503  0.25209269761E+02  0.27525569241E+02 -0.97844997012E+02  0.10482794324E+03  0.47000000000E+01 0.  1.
         13    1    4    4    0    0  0.18316150594E+02 -0.31224494233E+02 -0.15641652447E+03  0.16055086278E+03  0.00000000000E+00 0. -1.
        -14    1    4    4    0    0 -0.84446506402E+02 -0.92364366902E+02 -0.50477016519E+03  0.52005317842E+03  0.00000000000E+00 0.  1.
</event>
<event>
12    1  0.1594973E-001  0.2058328E+03  0.7818608E-02  0.1145407E+00
         21   -1    0    0  503  502  0.00000000000E+00  0.00000000000E+00  0.61572655837E+03  0.61572655837E+03  0.00000000000E+00 0.  1.
         21   -1    0    0  501  503 -0.00000000000E+00 -0.00000000000E+00 -0.11690143247E+03  0.11690143247E+03  0.00000000000E+00 0.  1.
          6    2    1    2  501    0  0.69138967292E+02  0.84583820136E+02  0.13348308364E+02  0.20626512683E+03  0.17444914956E+03 0.  0.
         24    2    3    3    0    0  0.96639909999E+02  0.83343976123E+02 -0.31896078619E+02  0.15309574074E+03  0.78329148099E+02 0.  0.
         -6    2    1    2    0  502 -0.69138967292E+02 -0.84583820136E+02  0.48547681753E+03  0.52636286401E+03  0.17156778491E+03 0.  0.
        -24    2    5    5    0    0 -0.31857829892E+02 -0.99333284450E+02  0.23580177542E+03  0.27344559185E+03  0.91038407747E+02 0.  0.
          5    1    3    3  501    0 -0.27500942707E+02  0.12398440126E+01  0.45244386983E+02  0.53169386083E+02  0.47000000000E+01 0. -1.
        -11    1    4    4    0    0  0.88913306898E+02  0.66435467239E+02 -0.54646887887E+02  0.12371551967E+03  0.00000000000E+00 0.  1.
         12    1    4    4    0    0  0.77266031011E+01  0.16908508884E+02  0.22750809268E+02  0.29380221076E+02  0.00000000000E+00 0. -1.
         -5    1    5    5    0  502 -0.37281137400E+02  0.14749464314E+02  0.24967504211E+03  0.25291727216E+03  0.47000000000E+01 0.  1.
         13    1    6    6    0    0  0.18563477397E+02 -0.10392282818E+02  0.62789180859E+01  0.22181682703E+02  0.00000000000E+00 0. -1.
        -14    1    6    6    0    0 -0.50421307289E+02 -0.88941001632E+02  0.22952285734E+03  0.25126390915E+03  0.00000000000E+00 0.  1.
</event>
<event>
12    1  0.1594973E-001  0.2010623E+03  0.7818608E-02  0.1148951E+00
         21   -1    0    0  503  502  0.00000000000E+00  0.00000000000E+00  0.67692235162E+02  0.67692235162E+02  0.00000000000E+00 0. -1.
         21   -1    0    0  501  503 -0.00000000000E+00 -0.00000000000E+00 -0.66585388305E+03  0.66585388305E+03  0.00000000000E+00 0. -1.
          6    2    1    2  501    0 -0.99402001343E+02  0.29204497362E+02 -0.41845123258E+03  0.46424935654E+03  0.17231474245E+03 0.  0.
         24    2    3    3    0    0 -0.56740956166E+02  0.85326285130E+02 -0.28076858334E+03  0.30949722654E+03  0.80358103554E+02 0.  0.
         -6    2    1    2    0  502  0.99402001343E+02 -0.29204497362E+02 -0.17971041531E+03  0.26929676167E+03  0.17173017189E+03 0.  0.
        -24    2    5    5    0    0  0.41905675550E+02 -0.74995207349E+02 -0.67647051415E+02  0.13519641071E+03  0.79508358897E+02 0.  0.
          5    1    3    3  501    0 -0.42661045177E+02 -0.56121787768E+02 -0.13768264924E+03  0.15475213000E+03  0.47000000000E+01 0. -1.
        -11    1    4    4    0    0  0.15762497595E+02  0.84636697040E+01 -0.14497617928E+02  0.23027613009E+02  0.00000000000E+00 0.  1.
         12    1    4    4    0    0 -0.72503453761E+02  0.76862615426E+02 -0.26627096541E+03  0.28646961354E+03  0.00000000000E+00 0. -1.
         -5    1    5    5    0  502  0.57496325793E+02  0.45790709987E+02 -0.11206336390E+03  0.13410035096E+03  0.47000000000E+01 0.  1.
         11    1    6    6    0    0  0.41166753286E+02 -0.58293698149E+02 -0.85077134387E+02  0.11104492611E+03  0.00000000000E+00 0. -1.
        -12    1    6    6    0    0  0.73892226354E+00 -0.16701509200E+02  0.17430082972E+02  0.24151484594E+02  0.00000000000E+00 0.  1.
</event>
<event>
12    1  0.1594973E-001  0.1753887E+03  0.7818608E-02  0.1172528E+00
         21   -1    0    0  501  502  0.00000000000E+00  0.00000000000E+00  0.48278463622E+02  0.48278463622E+02  0.00000000000E+00 0.  1.
         21   -1    0    0  502  503 -0.00000000000E+00 -0.00000000000E+00 -0.80802024040E+03  0.80802024040E+03  0.00000000000E+00 0.  1.
         -6    2    1    2    0  503  0.44222098635E+01  0.35610699631E+02 -0.57766196236E+03  0.60348604849E+03  0.17092217555E+03 0.  0.
        -24    2    3    3    0    0  0.14159311680E+02 -0.40857206868E+02 -0.23525355577E+03  0.25247642073E+03  0.80810333883E+02 0.  0.
          6    2    1    2  501    0 -0.44222098635E+01 -0.35610699631E+02 -0.18207981442E+03  0.25281265553E+03  0.17167848470E+03 0.  0.
         24    2    5    5    0    0 -0.47103181697E+02 -0.35104659968E+02 -0.44512497879E+02  0.10869888793E+03  0.79893922750E+02 0.  0.
          5    1    5    5  501    0  0.42680971834E+02 -0.50603966372E+00 -0.13756731654E+03  0.14411376760E+03  0.47000000000E+01 0. -1.
        -11    1    6    6    0    0 -0.24091291253E+02 -0.12782119948E+02  0.21884319335E+02  0.34967075048E+02  0.00000000000E+00 0.  1.
         12    1    6    6    0    0 -0.23011890444E+02 -0.22322540019E+02 -0.66396817215E+02  0.73731812883E+02  0.00000000000E+00 0. -1.
         -5    1    3    3    0  503 -0.97371018170E+01  0.76467906500E+02 -0.34240840659E+03  0.35100962776E+03  0.47000000000E+01 0.  1.
         11    1    4    4    0    0  0.25181841709E+02 -0.47001667103E+02 -0.76657470377E+02  0.93379064179E+02  0.00000000000E+00 0. -1.
        -12    1    4    4    0    0 -0.11022530028E+02  0.61444602344E+01 -0.15859608540E+03  0.15909735655E+03  0.00000000000E+00 0.  1.
</event>
<event>
12    1  0.1594973E-001  0.2202352E+03  0.7818608E-02  0.1133879E+00
         21   -1    0    0  501  502  0.00000000000E+00  0.00000000000E+00  0.13528323767E+03  0.13528323767E+03  0.00000000000E+00 0. -1.
         21   -1    0    0  502  503 -0.00000000000E+00 -0.00000000000E+00 -0.47266998482E+03  0.47266998482E+03  0.00000000000E+00 0. -1.
         -6    2    1    2    0  503  0.39270402744E+02  0.13081805701E+03 -0.31877509317E+03  0.38693304327E+03  0.17159280689E+03 0.  0.
        -24    2    3    3    0    0  0.58121815077E+01  0.13122702153E+03 -0.31847617651E+03  0.35314252431E+03  0.77641836881E+02 0.  0.
          6    2    1    2  501    0 -0.39270402744E+02 -0.13081805701E+03 -0.18611653989E+02  0.22102017922E+03  0.17276572978E+03 0.  0.
         24    2    5    5    0    0 -0.33229144000E+02 -0.92559225853E+02 -0.80385142246E+02  0.14795658487E+03  0.75881444441E+02 0.  0.
          5    1    5    5  501    0 -0.60412587438E+01 -0.38258831157E+02  0.61773488257E+02  0.73063594355E+02  0.47000000000E+01 0. -1.
        -13    1    6    6    0    0 -0.92956702650E+00  0.56137221380E+01 -0.34349167462E+02  0.34817284162E+02  0.00000000000E+00 0.  1.
         14    1    6    6    0    0 -0.32299576974E+02 -0.98172947991E+02 -0.46035974784E+02  0.11313930071E+03  0.00000000000E+00 0. -1.
         -5    1    3    3    0  503  0.33458221237E+02 -0.40896452017E+00 -0.29891665425E+00  0.33790518958E+02  0.47000000000E+01 0.  1.
         11    1    4    4    0    0 -0.81678261747E+01  0.13711382253E+03 -0.28372443998E+03  0.31522447804E+03  0.00000000000E+00 0. -1.
        -12    1    4    4    0    0  0.13980007682E+02 -0.58868009979E+01 -0.34751736532E+02  0.37918046268E+02  0.00000000000E+00 0.  1.
</event>
<event>
12    1  0.1594973E-001  0.1777121E+03  0.7818608E-02  0.1172536E+00
         21   -1    0    0  503  502  0.00000000000E+00  0.00000000000E+00  0.30364710319E+03  0.30364710319E+03  0.00000000000E+00 0.  1.
         21   -1    0    0  501  503 -0.00000000000E+00 -0.00000000000E+00 -0.12117102526E+03  0.12117102526E+03  0.00000000000E+00 0.  1.
          6    2    1    2  501    0 -0.41585509070E+02  0.12959871503E+02  0.11366593949E+01  0.17771569221E+03  0.17229121402E+03 0.  0.
         24    2    3    3    0    0  0.24514981010E+02 -0.46667025719E+01 -0.46329973227E+02  0.94318197549E+02  0.78273198241E+02 0.  0.
         -6    2    1    2    0  502  0.41585509070E+02 -0.12959871503E+02  0.18133941854E+03  0.24710243624E+03  0.16210588035E+03 0.  0.
        -24    2    5    5    0    0  0.72513674985E+02 -0.50008854045E+02  0.13296470220E+03  0.17860877424E+03  0.80388827950E+02 0.  0.
          5    1    3    3  501    0 -0.66100490080E+02  0.17626574075E+02  0.47466632622E+02  0.83397494656E+02  0.47000000000E+01 0. -1.
        -13    1    4    4    0    0  0.41696335270E+01 -0.40261132321E+02 -0.16964626061E+02  0.43887847486E+02  0.00000000000E+00 0.  1.
         14    1    4    4    0    0  0.20345347483E+02  0.35594429749E+02 -0.29365347166E+02  0.50430350064E+02  0.00000000000E+00 0. -1.
         -5    1    5    5    0  502 -0.30928165914E+02  0.37048982542E+02  0.48374716335E+02  0.68493662004E+02  0.47000000000E+01 0.  1.
         13    1    6    6    0    0  0.56073714277E+02  0.59531035572E+01  0.41044404544E+02  0.69744849409E+02  0.00000000000E+00 0. -1.
        -14    1    6    6    0    0  0.16439960708E+02 -0.55961957602E+02  0.91920297660E+02  0.10886392483E+03  0.00000000000E+00 0.  1.
</event>
<event>
12    1  0.1594973E-001  0.2319752E+03  0.7818608E-02  0.1125308E+00
         21   -1    0    0  503  502  0.00000000000E+00  0.00000000000E+00  0.14466376131E+03  0.14466376131E+03  0.00000000000E+00 0.  1.
         21   -1    0    0  501  503 -0.00000000000E+00 -0.00000000000E+00 -0.38956867871E+03  0.38956867871E+03  0.00000000000E+00 0.  1.
          6    2    1    2  501    0 -0.15535272002E+03 -0.51980439646E+00 -0.64881829980E+02  0.24059860615E+03  0.17188164418E+03 0.  0.
         24    2    3    3    0    0 -0.70181151362E+02  0.30528220022E+02 -0.93012072876E+02  0.14556399933E+03  0.81732894089E+02 0.  0.
         -6    2    1    2    0  502  0.15535272002E+03  0.51980439646E+00 -0.18002308742E+03  0.29363383387E+03  0.17227239644E+03 0.  0.
        -24    2    5    5    0    0  0.16865746940E+03  0.33775129638E+02 -0.12355456683E+03  0.22659864289E+03  0.80592261448E+02 0.  0.
          5    1    3    3  501    0 -0.85171568657E+02 -0.31048024418E+02  0.28130242896E+02  0.95034606819E+02  0.47000000000E+01 0. -1.
        -13    1    4    4    0    0  0.47226979523E+00  0.24910850654E+01  0.14041571575E+02  0.14268646602E+02  0.00000000000E+00 0.  1.
         14    1    4    4    0    0 -0.70653421157E+02  0.28037134956E+02 -0.10705364445E+03  0.13129535273E+03  0.00000000000E+00 0. -1.
         -5    1    5    5    0  502 -0.13304749384E+02 -0.33255325242E+02 -0.56468520585E+02  0.67035190983E+02  0.47000000000E+01 0.  1.
         11    1    6    6    0    0  0.37682416150E+02  0.44526205195E+02 -0.42874798219E+02  0.72393340565E+02  0.00000000000E+00 0. -1.
        -12    1    6    6    0    0  0.13097505325E+03 -0.10751075557E+02 -0.80679768614E+02  0.15420530232E+03  0.00000000000E+00 0.  1.
</event>
<event>
12    1  0.1594973E-001  0.1830642E+03  0.7818608E-02  0.1165475E+00
         21   -1    0    0  503  502  0.00000000000E+00  0.00000000000E+00  0.49774910151E+03  0.49774910151E+03  0.00000000000E+00 0.  1.
         21   -1    0    0  501  503 -0.00000000000E+00 -0.00000000000E+00 -0.20377708006E+03  0.20377708006E+03  0.00000000000E+00 0.  1.
          6    2    1    2  501    0 -0.56061606797E+02  0.70396605888E+01 -0.14134739519E+03  0.22928101292E+03  0.17145913852E+03 0.  0.
         24    2    3    3    0    0 -0.39557425575E+02 -0.44125459097E+02 -0.15150132334E+03  0.17436790222E+03  0.62766776977E+02 0.  0.
         -6    2    1    2    0  502  0.56061606797E+02 -0.70396605888E+01  0.43531941664E+03  0.47224516864E+03  0.17412651787E+03 0.  0.
        -24    2    5    5    0    0  0.77198582392E+02 -0.48508063614E+02  0.21039182318E+03  0.24250420040E+03  0.78936142513E+02 0.  0.
          5    1    3    3  501    0 -0.16504181222E+02  0.51165119686E+02  0.10153928149E+02  0.54913110704E+02  0.47000000000E+01 0. -1.
        -13    1    4    4    0    0  0.15374537890E+01  0.97249825642E+01 -0.58438397670E+02  0.59262006145E+02  0.00000000000E+00 0.  1.
         14    1    4    4    0    0 -0.41094879364E+02 -0.53850441662E+02 -0.93062925671E+02  0.11510589608E+03  0.00000000000E+00 0. -1.
         -5    1    5    5    0  502 -0.21136975596E+02  0.41468403025E+02  0.22492759346E+03  0.22974096824E+03  0.47000000000E+01 0.  1.
         11    1    6    6    0    0  0.53300105195E+02 -0.70320109918E+02  0.15476444100E+03  0.17815120339E+03  0.00000000000E+00 0. -1.
        -12    1    6    6    0    0  0.23898477197E+02  0.21812046304E+02  0.55627382180E+02  0.64352997012E+02  0.00000000000E+00 0.  1.
</event>
<event>
12    1  0.1594973E-001  0.2217352E+03  0.7818608E-02  0.1132992E+00
         21   -1    0    0  503  502  0.00000000000E+00  0.00000000000E+00  0.22071288968E+03  0.22071288968E+03  0.00000000000E+00 0. -1.
         21   -1    0    0  501  503 -0.00000000000E+00 -0.00000000000E+00 -0.31675540759E+03  0.31675540759E+03  0.00000000000E+00 0. -1.
          6    2    1    2  501    0  0.77754502691E+02  0.11515414407E+03 -0.19590571610E+03  0.29428289879E+03  0.17005039058E+03 0.  0.
         24    2    3    3    0    0 -0.16610640037E+02  0.34407422676E+02 -0.12140634622E+03  0.14937927810E+03  0.78197721996E+02 0.  0.
         -6    2    1    2    0  502 -0.77754502691E+02 -0.11515414407E+03  0.99863198195E+02  0.24318539848E+03  0.17280115767E+03 0.  0.
        -24    2    5    5    0    0 -0.11355075653E+03 -0.80966871170E+02  0.40665713789E+02  0.16587709635E+03  0.80075603533E+02 0.  0.
          5    1    3    3  501    0  0.94365142728E+02  0.80746721392E+02 -0.74499369879E+02  0.14490362069E+03  0.47000000000E+01 0. -1.
        -13    1    4    4    0    0 -0.52310199468E+01 -0.22129893294E+02 -0.12019972521E+02  0.25721109741E+02  0.00000000000E+00 0.  1.
         14    1    4    4    0    0 -0.11379620090E+02  0.56537315971E+02 -0.10938637370E+03  0.12365816836E+03  0.00000000000E+00 0. -1.
         -5    1    5    5    0  502  0.35796253838E+02 -0.34187272898E+02  0.59197484406E+02  0.77308302122E+02  0.47000000000E+01 0.  1.
         11    1    6    6    0    0 -0.60108127581E+02 -0.31261553323E+02  0.59863808171E+02  0.90409884671E+02  0.00000000000E+00 0. -1.
        -12    1    6    6    0    0 -0.53442628948E+02 -0.49705317847E+02 -0.19198094382E+02  0.75467211682E+02  0.00000000000E+00 0.  1.
</event>
<event>
12    1  0.1594973E-001  0.1980857E+03  0.7818608E-02  0.1151476E+00
         21   -1    0    0  501  502  0.00000000000E+00  0.00000000000E+00  0.54013741849E+03  0.54013741849E+03  0.00000000000E+00 0. -1.
         21   -1    0    0  502  503 -0.00000000000E+00 -0.00000000000E+00 -0.84319606371E+02  0.84319606371E+02  0.00000000000E+00 0. -1.
         -6    2    1    2    0  503 -0.83716395529E+02  0.50131931323E+02  0.11051630369E+03  0.22637278148E+03  0.17178223830E+03 0.  0.
        -24    2    3    3    0    0 -0.82678425261E+02  0.55148503236E+02  0.14425369671E+03  0.19192651805E+03  0.78419257208E+02 0.  0.
          6    2    1    2  501    0  0.83716395529E+02 -0.50131931323E+02  0.34530150843E+03  0.39808424338E+03  0.17238412829E+03 0.  0.
         24    2    5    5    0    0  0.65182133093E+02  0.62429681222E+01  0.31398382570E+03  0.33081957641E+03  0.81043594477E+02 0.  0.
          5    1    5    5  501    0  0.18534262435E+02 -0.56374899445E+02  0.31317682725E+02  0.67264666971E+02  0.47000000000E+01 0. -1.
        -11    1    6    6    0    0 -0.13483773291E+02 -0.16968343614E+02  0.53323423404E+02  0.57559745576E+02  0.00000000000E+00 0.  1.
         12    1    6    6    0    0  0.78665906385E+02  0.23211311736E+02  0.26066040230E+03  0.27325983083E+03  0.00000000000E+00 0. -1.
         -5    1    3    3    0  503 -0.10379702671E+01 -0.50165719128E+01 -0.33737393028E+02  0.34446263431E+02  0.47000000000E+01 0.  1.
         13    1    4    4    0    0 -0.40353296566E+02  0.32858437328E+02  0.15080015639E+02  0.54179999253E+02  0.00000000000E+00 0. -1.
        -14    1    4    4    0    0 -0.42325128695E+02  0.22290065908E+02  0.12917368108E+03  0.13774651879E+03  0.00000000000E+00 0.  1.
</event>
<event>
12    1  0.1594973E-001  0.1797751E+03  0.7818608E-02  0.1168766E+00
         21   -1    0    0  503  502  0.00000000000E+00  0.00000000000E+00  0.66930263274E+03  0.66930263274E+03  0.00000000000E+00 0. -1.
         21   -1    0    0  501  503 -0.00000000000E+00 -0.00000000000E+00 -0.47548881242E+02  0.47548881242E+02  0.00000000000E+00 0. -1.
          6    2    1    2  501    0 -0.36050154030E+02 -0.37765437005E+02  0.32786518475E+03  0.37391799478E+03  0.17202687468E+03 0.  0.
         24    2    3    3    0    0 -0.48661397697E+02 -0.78982903547E+02  0.29618919716E+03  0.32022087005E+03  0.78785369320E+02 0.  0.
         -6    2    1    2    0  502  0.36050154030E+02  0.37765437005E+02  0.29388856675E+03  0.34293351920E+03  0.16884035977E+03 0.  0.
        -24    2    5    5    0    0  0.37345005830E+02  0.82757175436E+02  0.26075385601E+03  0.28684490874E+03  0.77743351450E+02 0.  0.
          5    1    3    3  501    0  0.12611243667E+02  0.41217466543E+02  0.31675987583E+02  0.53697124731E+02  0.47000000000E+01 0. -1.
        -11    1    4    4    0    0  0.96356301831E+01 -0.57387703178E+02  0.11953292441E+03  0.13294477749E+03  0.00000000000E+00 0.  1.
         12    1    4    4    0    0 -0.58297027880E+02 -0.21595200370E+02  0.17665627276E+03  0.18727609256E+03  0.00000000000E+00 0. -1.
         -5    1    5    5    0  502 -0.12948518006E+01 -0.44991738431E+02  0.33134710731E+02  0.56088610461E+02  0.47000000000E+01 0.  1.
         11    1    6    6    0    0  0.49676661056E+02  0.54110736446E+02  0.10590205445E+03  0.12888362033E+03  0.00000000000E+00 0. -1.
        -12    1    6    6    0    0 -0.12331655226E+02  0.28646438990E+02  0.15485180156E+03  0.15796128841E+03  0.00000000000E+00 0.  1.
</event>
<event>
12    1  0.1594973E-001  0.2004062E+03  0.7818608E-02  0.1149429E+00
         21   -1    0    0  501  502  0.00000000000E+00  0.00000000000E+00  0.70565036063E+03  0.70565036063E+03  0.00000000000E+00 0. -1.
         21   -1    0    0  502  503 -0.00000000000E+00 -0.00000000000E+00 -0.58077948388E+02  0.58077948388E+02  0.00000000000E+00 0. -1.
         -6    2    1    2    0  503 -0.40625474322E+02  0.95579156766E+02  0.26863076534E+03  0.33505660633E+03  0.17121517744E+03 0.  0.
        -24    2    3    3    0    0  0.48727079738E+02  0.53864621901E+02  0.12333922925E+03  0.15939869505E+03  0.70140236096E+02 0.  0.
          6    2    1    2  501    0  0.40625474322E+02 -0.95579156766E+02  0.37894164690E+03  0.42867170269E+03  0.17139676938E+03 0.  0.
         24    2    5    5    0    0  0.40084959924E+02  0.40970588675E+00  0.16895394729E+03  0.19773647823E+03  0.94590203743E+02 0.  0.
          5    1    5    5  501    0  0.54051439815E+00 -0.95988862653E+02  0.20998769961E+03  0.23093522446E+03  0.47000000000E+01 0. -1.
        -13    1    6    6    0    0 -0.19098992740E+02  0.30411832263E+02  0.50553773003E+02  0.62010765438E+02  0.00000000000E+00 0.  1.
         14    1    6    6    0    0  0.59183952664E+02 -0.30002126376E+02  0.11840017429E+03  0.13572571279E+03  0.00000000000E+00 0. -1.
         -5    1    3    3    0  503 -0.89352554060E+02  0.41714534865E+02  0.14529153609E+03  0.17565791128E+03  0.47000000000E+01 0.  1.
         13    1    4    4    0    0  0.45128020482E+01  0.41294005216E+02  0.19599904732E+02  0.45931650467E+02  0.00000000000E+00 0. -1.
        -14    1    4    4    0    0  0.44214277690E+02  0.12570616685E+02  0.10373932451E+03  0.11346704458E+03  0.00000000000E+00 0.  1.
</event>
<event>
12    1  0.1594973E-001  0.1938629E+03  0.7818608E-02  0.1155430E+00
         21   -1    0    0  501  502  0.00000000000E+00  0.00000000000E+00  0.20735925677E+04  0.20735925677E+04  0.00000000000E+00 0. -1.
         21   -1    0    0  502  503 -0.00000000000E+00 -0.00000000000E+00 -0.47052035258E+02  0.47052035258E+02  0.00000000000E+00 0. -1.
         -6    2    1    2    0  503  0.76783792628E+02 -0.38320499971E+02  0.18126373676E+03  0.26540417836E+03  0.17383504853E+03 0.  0.
        -24    2    3    3    0    0  0.72005973734E+02  0.24620744192E+01  0.19549087652E+03  0.22169436902E+03  0.75767990531E+02 0.  0.
          6    2    1    2  501    0 -0.76783792628E+02  0.38320499971E+02  0.18452767957E+04  0.18552404246E+04  0.17177417985E+03 0.  0.
         24    2    5    5    0    0 -0.29775328624E+02  0.28542060185E+02  0.16950948518E+04  0.16974997518E+04  0.80359389836E+02 0.  0.
          5    1    5    5  501    0 -0.47008464004E+02  0.97784397860E+01  0.15018194393E+03  0.15774067280E+03  0.47000000000E+01 0. -1.
        -11    1    6    6    0    0 -0.24052348404E+02 -0.21352810469E+02  0.10339633786E+04  0.10344634968E+04  0.00000000000E+00 0.  1.
         12    1    6    6    0    0 -0.57229802206E+01  0.49894870654E+02  0.66113147323E+03  0.66303625505E+03  0.00000000000E+00 0. -1.
         -5    1    3    3    0  503  0.47778188947E+01 -0.40782574391E+02 -0.14227139752E+02  0.43709809344E+02  0.47000000000E+01 0.  1.
         11    1    4    4    0    0  0.43851266119E+02 -0.32879538195E+02  0.13859359639E+03  0.14903752055E+03  0.00000000000E+00 0. -1.
        -12    1    4    4    0    0  0.28154707615E+02  0.35341612615E+02  0.56897280128E+02  0.72656848466E+02  0.00000000000E+00 0.  1.
</event>
<event>
12    1  0.1594973E-001  0.2482258E+03  0.7818608E-02  0.1114456E+00
         21   -1    0    0  501  502  0.00000000000E+00  0.00000000000E+00  0.18785467492E+03  0.18785467492E+03  0.00000000000E+00 0. -1.
         21   -1    0    0  502  503 -0.00000000000E+00 -0.00000000000E+00 -0.32831717195E+03  0.32831717195E+03  0.00000000000E+00 0. -1.
         -6    2    1    2    0  503  0.42785646684E+01 -0.17818934568E+03 -0.59963094462E+02  0.25536564788E+03  0.17276079529E+03 0.  0.
        -24    2    3    3    0    0  0.39052639793E+02 -0.19092458845E+03 -0.40844152907E+02  0.21342465796E+03  0.76840956864E+02 0.  0.
          6    2    1    2  501    0 -0.42785646684E+01  0.17818934568E+03 -0.80499402569E+02  0.26080619899E+03  0.17253976524E+03 0.  0.
         24    2    5    5    0    0  0.21392184816E+02  0.19495477159E+03 -0.87674501858E+02  0.22896850224E+03  0.79213434504E+02 0.  0.
          5    1    5    5  501    0 -0.25670749484E+02 -0.16765425904E+02  0.71750992891E+01  0.31837696755E+02  0.47000000000E+01 0. -1.
        -11    1    6    6    0    0  0.18121051514E+02  0.13090010141E+02 -0.31445387468E+02  0.38581514569E+02  0.00000000000E+00 0.  1.
         12    1    6    6    0    0  0.32711333023E+01  0.18186476145E+03 -0.56229114390E+02  0.19038698767E+03  0.00000000000E+00 0. -1.
         -5    1    3    3    0  503 -0.34774075124E+02  0.12735242763E+02 -0.19118941555E+02  0.41940989916E+02  0.47000000000E+01 0.  1.
         11    1    4    4    0    0  0.29004606267E+02 -0.15616341170E+03  0.31559668683E-01  0.15883412522E+03  0.00000000000E+00 0. -1.
        -12    1    4    4    0    0  0.10048033525E+02 -0.34761176745E+02 -0.40875712575E+02  0.54590532741E+02  0.00000000000E+00 0.  1.
</event>
<event>
12    1  0.1594973E-001  0.2176603E+03  0.7818608E-02  0.1135950E+00
         21   -1    0    0  503  502  0.00000000000E+00  0.00000000000E+00  0.73364037909E+03  0.73364037909E+03  0.00000000000E+00 0.  1.
         21   -1    0    0  501  503 -0.00000000000E+00 -0.00000000000E+00 -0.13041633478E+03  0.13041633478E+03  0.00000000000E+00 0.  1.
          6    2    1    2  501    0 -0.18951995973E+02 -0.13183750084E+03 -0.59217748767E+01  0.21774085700E+03  0.17215025011E+03 0.  0.
         24    2    3    3    0    0  0.29923007539E+02 -0.17953834956E+02 -0.29261902277E+02  0.91546138928E+02  0.79414797475E+02 0.  0.
         -6    2    1    2    0  502  0.18951995973E+02  0.13183750084E+03  0.60914581918E+03  0.64631585686E+03  0.17007425738E+03 0.  0.
        -24    2    5    5    0    0  0.10639438327E+01  0.28644849152E+01  0.30818734849E+03  0.31836446972E+03  0.79794464472E+02 0.  0.
          5    1    3    3  501    0 -0.48875003512E+02 -0.11388366588E+03  0.23340127401E+02  0.12619471808E+03  0.47000000000E+01 0. -1.
        -13    1    4    4    0    0  0.22532902443E+02 -0.42053318361E+02 -0.41765790205E+02  0.63408158065E+02  0.00000000000E+00 0.  1.
         14    1    4    4    0    0  0.73901050956E+01  0.24099483405E+02  0.12503887928E+02  0.28137980863E+02  0.00000000000E+00 0. -1.
         -5    1    5    5    0  502  0.17888052140E+02  0.12897301592E+03  0.30095847069E+03  0.32795138714E+03  0.47000000000E+01 0.  1.
         13    1    6    6    0    0 -0.28030726996E+02  0.29154390552E+02  0.14531337679E+03  0.15083659244E+03  0.00000000000E+00 0. -1.
        -14    1    6    6    0    0  0.29094670829E+02 -0.26289905637E+02  0.16287397170E+03  0.16752787728E+03  0.00000000000E+00 0.  1.
</event>
<event>
12    1  0.1594973E-001  0.2266326E+03  0.7818608E-02  0.1130158E+00
         21   -1    0    0  503  502  0.00000000000E+00  0.00000000000E+00  0.63279642374E+03  0.63279642374E+03  0.00000000000E+00 0. -1.
         21   -1    0    0  501  503 -0.00000000000E+00 -0.00000000000E+00 -0.78970449856E+02  0.78970449856E+02  0.00000000000E+00 0.  1.
          6    2    1    2  501    0 -0.73970890842E+02 -0.11652651961E+03  0.27877788766E+03  0.35927625675E+03  0.17975593328E+03 0.  0.
         24    2    3    3    0    0  0.40375933281E+01 -0.16982797529E+02  0.18560199313E+03  0.20211992207E+03  0.78100227083E+02 0.  0.
         -6    2    1    2    0  502  0.73970890842E+02  0.11652651961E+03  0.27504808622E+03  0.35249061684E+03  0.17189549956E+03 0.  0.
        -24    2    5    5    0    0  0.59489142305E+02  0.63174093622E+02  0.27257199510E+03  0.29695303114E+03  0.79722556594E+02 0.  0.
          5    1    3    3  501    0 -0.78008484170E+02 -0.99543722078E+02  0.93175894530E+02  0.15715633468E+03  0.47000000000E+01 0. -1.
        -11    1    4    4    0    0 -0.21657247296E+02  0.22807402325E+02  0.57468191489E+02  0.65511884374E+02  0.00000000000E+00 0.  1.
         12    1    4    4    0    0  0.25694840624E+02 -0.39790199853E+02  0.12813380165E+03  0.13660803770E+03  0.00000000000E+00 0. -1.
         -5    1    5    5    0  502  0.14481748537E+02  0.53352425984E+02  0.24760911137E+01  0.55537585708E+02  0.47000000000E+01 0.  1.
         11    1    6    6    0    0  0.79051402243E+02  0.56182985771E+02  0.22018033228E+03  0.24059308138E+03  0.00000000000E+00 0. -1.
        -12    1    6    6    0    0 -0.19562259938E+02  0.69911078507E+01  0.52391662825E+02  0.56359949755E+02  0.00000000000E+00 0.  1.
</event>
<event>
12    1  0.1594973E-001  0.2170776E+03  0.7818608E-02  0.1136493E+00
         21   -1    0    0  501  502  0.00000000000E+00  0.00000000000E+00  0.16626871267E+04  0.16626871267E+04  0.00000000000E+00 0.  1.
         21   -1    0    0  502  503 -0.00000000000E+00 -0.00000000000E+00 -0.28229211282E+02  0.28229211282E+02  0.00000000000E+00 0. -1.
         -6    2    1    2    0  503  0.51833831176E+02 -0.11772555618E+03  0.87870052522E+03  0.90460092689E+03  0.17216901952E+03 0.  0.
        -24    2    3    3    0    0  0.77237347269E+02 -0.21042337174E+02  0.52597942673E+03  0.53795771233E+03  0.79597456891E+02 0.  0.
          6    2    1    2  501    0 -0.51833831176E+02  0.11772555618E+03  0.75575739023E+03  0.78631541111E+03  0.17486177468E+03 0.  0.
         24    2    5    5    0    0 -0.92653419459E+02  0.90177477763E+02  0.41445908604E+03  0.44145057113E+03  0.79910194120E+02 0.  0.
          5    1    5    5  501    0  0.40819588283E+02  0.27548078414E+02  0.34129830419E+03  0.34486483998E+03  0.47000000000E+01 0. -1.
        -13    1    6    6    0    0 -0.52016440262E+02  0.28039721896E+02  0.29452878709E+03  0.30039830639E+03  0.00000000000E+00 0.  1.
         14    1    6    6    0    0 -0.40636979198E+02  0.62137755867E+02  0.11993029895E+03  0.14105226474E+03  0.00000000000E+00 0. -1.
         -5    1    3    3    0  503 -0.25403516093E+02 -0.96683219003E+02  0.35272109849E+03  0.36664321456E+03  0.47000000000E+01 0.  1.
         13    1    4    4    0    0  0.66957297777E+01  0.21352663876E+02  0.48197185319E+02  0.53138853248E+02  0.00000000000E+00 0. -1.
        -14    1    4    4    0    0  0.70541617492E+02 -0.42395001050E+02  0.47778224141E+03  0.48481885908E+03  0.00000000000E+00 0.  1.
</event>
<event>
12    1  0.1594973E-001  0.2167666E+03  0.7818608E-02  0.1137081E+00
         21   -1    0    0  503  502  0.00000000000E+00  0.00000000000E+00  0.14546150397E+03  0.14546150397E+03  0.00000000000E+00 0. -1.
         21   -1    0    0  501  503 -0.00000000000E+00 -0.00000000000E+00 -0.10166306759E+04  0.10166306759E+04  0.00000000000E+00 0. -1.
          6    2    1    2  501    0 -0.10140059941E+03  0.73438350167E+02 -0.91881630249E+03  0.94403981692E+03  0.17695339889E+03 0.  0.
         24    2    3    3    0    0 -0.12473778459E+03  0.85060870806E+02 -0.88518480670E+03  0.90122773093E+03  0.76579464151E+02 0.  0.
         -6    2    1    2    0  502  0.10140059941E+03 -0.73438350167E+02  0.47647130568E+02  0.21805236294E+03  0.17205031560E+03 0.  0.
        -24    2    5    5    0    0  0.31132266448E+02 -0.53135134174E+02  0.88055578830E+02  0.13435772818E+03  0.80657632383E+02 0.  0.
          5    1    3    3  501    0  0.23337185183E+02 -0.11622520639E+02 -0.33631495783E+02  0.42812085990E+02  0.47000000000E+01 0. -1.
        -13    1    4    4    0    0 -0.77946866735E+02  0.14657350231E+02 -0.31608709839E+03  0.32588587836E+03  0.00000000000E+00 0.  1.
         14    1    4    4    0    0 -0.46790917857E+02  0.70403520575E+02 -0.56909770832E+03  0.57534185257E+03  0.00000000000E+00 0. -1.
         -5    1    5    5    0  502  0.70268332961E+02 -0.20303215993E+02 -0.40408448261E+02  0.83694634760E+02  0.47000000000E+01 0.  1.
         13    1    6    6    0    0  0.27333882488E+02 -0.65668133889E+02  0.34184757753E+02  0.78917948547E+02  0.00000000000E+00 0. -1.
        -14    1    6    6    0    0  0.37983839604E+01  0.12532999715E+02  0.53870821077E+02  0.55439779636E+02  0.00000000000E+00 0.  1.
</event>
<event>
12    1  0.1594973E-001  0.4409709E+03  0.7818608E-02  0.1030512E+00
         21   -1    0    0  503  502  0.00000000000E+00  0.00000000000E+00  0.20854942815E+03  0.20854942815E+03  0.00000000000E+00 0.  1.
         21   -1    0    0  501  503 -0.00000000000E+00 -0.00000000000E+00 -0.93267452984E+03  0.93267452984E+03  0.00000000000E+00 0.  1.
          6    2    1    2  501    0 -0.14303815480E+03  0.38018286531E+03 -0.38879113581E+03  0.58788932645E+03  0.17162863418E+03 0.  0.
         24    2    3    3    0    0 -0.63658799697E+02  0.85919236314E+02 -0.14618865740E+03  0.19831235344E+03  0.80759569275E+02 0.  0.
         -6    2    1    2    0  502  0.14303815480E+03 -0.38018286531E+03 -0.33533396588E+03  0.55333463154E+03  0.16950345419E+03 0.  0.
        -24    2    5    5    0    0  0.16475599689E+03 -0.26754354699E+03 -0.22921577982E+03  0.39699384956E+03  0.79625089163E+02 0.  0.
          5    1    3    3  501    0 -0.79379355102E+02  0.29426362900E+03 -0.24260247841E+03  0.38957697301E+03  0.47000000000E+01 0. -1.
        -13    1    4    4    0    0 -0.53252580662E+02  0.86813681022E+02 -0.75301960112E+02  0.12666032432E+03  0.00000000000E+00 0.  1.
         14    1    4    4    0    0 -0.10406219035E+02 -0.89444470776E+00 -0.70886697285E+02  0.71652029127E+02  0.00000000000E+00 0. -1.
         -5    1    5    5    0  502 -0.21717842089E+02 -0.11263931832E+03 -0.10611818606E+03  0.15634078198E+03  0.47000000000E+01 0.  1.
         11    1    6    6    0    0  0.14641902946E+02  0.26858563219E+01 -0.82981792183E+01  0.17042855524E+02  0.00000000000E+00 0. -1.
        -12    1    6    6    0    0  0.15011409394E+03 -0.27022940331E+03 -0.22091760060E+03  0.37995099404E+03  0.00000000000E+00 0.  1.
</event>
<event>
12    1  0.1594973E-001  0.1895618E+03  0.7818608E-02  0.1159028E+00
         21   -1    0    0  503  502  0.00000000000E+00  0.00000000000E+00  0.67251894188E+03  0.67251894188E+03  0.00000000000E+00 0.  1.
         21   -1    0    0  501  503 -0.00000000000E+00 -0.00000000000E+00 -0.53247339076E+02  0.53247339076E+02  0.00000000000E+00 0. -1.
          6    2    1    2  501    0 -0.37887577230E+02  0.69677812059E+02  0.30061204312E+03  0.35498657275E+03  0.17134001391E+03 0.  0.
         24    2    3    3    0    0  0.35518083097E+02  0.94158104518E+01  0.18842155345E+03  0.20791959557E+03  0.79860407616E+02 0.  0.
         -6    2    1    2    0  502  0.37887577230E+02 -0.69677812059E+02  0.31865955969E+03  0.37077970821E+03  0.17217203906E+03 0.  0.
        -24    2    5    5    0    0 -0.26675677836E+01 -0.77842232506E+02  0.30694394769E+03  0.32752785145E+03  0.83626415515E+02 0.  0.
          5    1    3    3  501    0 -0.73405660326E+02  0.60262001607E+02  0.11219048967E+03  0.14706697718E+03  0.47000000000E+01 0. -1.
        -13    1    4    4    0    0  0.10537201345E+02  0.19232111133E+02  0.17765012974E+03  0.17899853437E+03  0.00000000000E+00 0.  1.
         14    1    4    4    0    0  0.24980881752E+02 -0.98163006813E+01  0.10771423711E+02  0.28921061200E+02  0.00000000000E+00 0. -1.
         -5    1    5    5    0  502  0.40555145014E+02  0.81644204472E+01  0.11715611998E+02  0.43251856756E+02  0.47000000000E+01 0.  1.
         13    1    6    6    0    0 -0.54909892198E+01 -0.49976097293E+02  0.56940765022E+02  0.75960594946E+02  0.00000000000E+00 0. -1.
        -14    1    6    6    0    0  0.28234214361E+01 -0.27866135213E+02  0.25000318267E+03  0.25156725651E+03  0.00000000000E+00 0.  1.
</event>
<event>
12    1  0.1594973E-001  0.5027885E+03  0.7818608E-02  0.1013057E+00
         21   -1    0    0  503  502  0.00000000000E+00  0.00000000000E+00  0.50242093200E+03  0.50242093200E+03  0.00000000000E+00 0. -1.
         21   -1    0    0  501  503 -0.00000000000E+00 -0.00000000000E+00 -0.17162597085E+04  0.17162597085E+04  0.00000000000E+00 0. -1.
          6    2    1    2  501    0 -0.44370420686E+03  0.16134420288E+03 -0.15396076674E+04  0.16196258969E+04  0.17288985355E+03 0.  0.
         24    2    3    3    0    0 -0.34614724541E+03  0.66553521422E+02 -0.12100062194E+04  0.12630283107E+04  0.82934768099E+02 0.  0.
         -6    2    1    2    0  502  0.44370420686E+03 -0.16134420288E+03  0.32576889094E+03  0.59905474354E+03  0.17273054296E+03 0.  0.
        -24    2    5    5    0    0  0.41797375827E+03 -0.17654755610E+03  0.33236064219E+03  0.56809123085E+03  0.79955912380E+02 0.  0.
          5    1    3    3  501    0 -0.97556961449E+02  0.94790681458E+02 -0.32960144798E+03  0.35659758626E+03  0.47000000000E+01 0. -1.
        -11    1    4    4    0    0 -0.20582071820E+02  0.17804887212E+02 -0.46804146671E+02  0.54141147334E+02  0.00000000000E+00 0.  1.
         12    1    4    4    0    0 -0.32556517359E+03  0.48748634210E+02 -0.11632020728E+04  0.12088871633E+04  0.00000000000E+00 0. -1.
         -5    1    5    5    0  502  0.25730448595E+02  0.15203353218E+02 -0.65917512531E+01  0.30963512697E+02  0.47000000000E+01 0.  1.
         13    1    6    6    0    0  0.34118870506E+03 -0.12012107569E+03  0.23213065087E+03  0.42979465372E+03  0.00000000000E+00 0. -1.
        -14    1    6    6    0    0  0.76785053202E+02 -0.56426480403E+02  0.10022999132E+03  0.13829657713E+03  0.00000000000E+00 0.  1.
</event>
<event>
12    1  0.1594973E-001  0.1827854E+03  0.7818608E-02  0.1165225E+00
         21   -1    0    0  503  502  0.00000000000E+00  0.00000000000E+00  0.26901463825E+03  0.26901463825E+03  0.00000000000E+00 0.  1.
         21   -1    0    0  501  503 -0.00000000000E+00 -0.00000000000E+00 -0.27424450435E+03  0.27424450435E+03  0.00000000000E+00 0.  1.
          6    2    1    2  501    0  0.16763286629E+02 -0.60627094721E+02 -0.20371093948E+03  0.27369446045E+03  0.17162126448E+03 0.  0.
         24    2    3    3    0    0  0.47250353675E+02 -0.33209587191E+02 -0.42716167725E+02  0.10749401668E+03  0.79967618653E+02 0.  0.
         -6    2    1    2    0  502 -0.16763286629E+02  0.60627094721E+02  0.19848107338E+03  0.26956468216E+03  0.17121252578E+03 0.  0.
        -24    2    5    5    0    0 -0.72853975467E+02  0.13877716359E+02  0.11720100394E+03  0.16020193969E+03  0.80176638772E+02 0.  0.
          5    1    3    3  501    0 -0.30487067046E+02 -0.27417507530E+02 -0.16099477175E+03  0.16620044377E+03  0.47000000000E+01 0. -1.
        -11    1    4    4    0    0  0.17320974300E+02 -0.24283270948E+02 -0.63377852581E+02  0.70046024843E+02  0.00000000000E+00 0.  1.
         12    1    4    4    0    0  0.29929379376E+02 -0.89263162433E+01  0.20661684856E+02  0.37447991836E+02  0.00000000000E+00 0. -1.
         -5    1    5    5    0  502  0.56090688838E+02  0.46749378362E+02  0.81280069440E+02  0.10936274247E+03  0.47000000000E+01 0.  1.
         11    1    6    6    0    0 -0.80277106749E+02  0.15909646869E+02  0.57528769014E+02  0.10003544370E+03  0.00000000000E+00 0. -1.
        -12    1    6    6    0    0  0.74231312822E+01 -0.20319305105E+01  0.59672234923E+02  0.60166495995E+02  0.00000000000E+00 0.  1.
</event>
<event>
12    1  0.1594973E-001  0.2863917E+03  0.7818608E-02  0.1092404E+00
         21   -1    0    0  501  502  0.00000000000E+00  0.00000000000E+00  0.50341628513E+03  0.50341628513E+03  0.00000000000E+00 0.  1.
         21   -1    0    0  502  503 -0.00000000000E+00 -0.00000000000E+00 -0.18306082464E+03  0.18306082464E+03  0.00000000000E+00 0.  1.
         -6    2    1    2    0  503 -0.87273613764E+02 -0.21072580021E+03  0.44188313615E+02  0.28862224543E+03  0.17125462610E+03 0.  0.
        -24    2    3    3    0    0 -0.82070994301E+02 -0.69506048246E+02  0.59189016764E+02  0.14643505652E+03  0.79831993736E+02 0.  0.
          6    2    1    2  501    0  0.87273613764E+02  0.21072580021E+03  0.27616714687E+03  0.39785486434E+03  0.17319975039E+03 0.  0.
         24    2    5    5    0    0  0.96191237671E+02  0.96542488970E+02  0.21636341430E+03  0.26856476800E+03  0.82101773315E+02 0.  0.
          5    1    5    5  501    0 -0.89176239074E+01  0.11418331124E+03  0.59803732568E+02  0.12929009634E+03  0.47000000000E+01 0. -1.
        -11    1    6    6    0    0  0.29624805134E+02  0.80986667192E+02  0.15153111519E+03  0.17435064730E+03  0.00000000000E+00 0.  1.
         12    1    6    6    0    0  0.66566432537E+02  0.15555821778E+02  0.64832299115E+02  0.94214120706E+02  0.00000000000E+00 0. -1.
         -5    1    3    3    0  503 -0.52026194623E+01 -0.14121975197E+03 -0.15000703149E+02  0.14218718891E+03  0.47000000000E+01 0.  1.
         13    1    4    4    0    0 -0.19608300855E+02  0.19820078649E+01 -0.15958799344E+02  0.25359359103E+02  0.00000000000E+00 0. -1.
        -14    1    4    4    0    0 -0.62462693447E+02 -0.71488056111E+02  0.75147816108E+02  0.12107569742E+03  0.00000000000E+00 0.  1.
</event>
<event>
12    1  0.1594973E-001  0.3759269E+03  0.7818608E-02  0.1052721E+00
         21   -1    0    0  503  502  0.00000000000E+00  0.00000000000E+00  0.13395510549E+04  0.13395510549E+04  0.00000000000E+00 0. -1.
         21   -1    0    0  501  503 -0.00000000000E+00 -0.00000000000E+00 -0.20987109495E+03  0.20987109495E+03  0.00000000000E+00 0.  1.
          6    2    1    2  501    0 -0.15226237998E+03  0.29373986608E+03  0.17485582009E+02  0.37633329023E+03  0.17847705308E+03 0.  0.
         24    2    3    3    0    0 -0.68804677919E+02  0.53854080680E+02  0.26418207841E+02  0.12214387292E+03  0.81159462028E+02 0.  0.
         -6    2    1    2    0  502  0.15226237998E+03 -0.29373986608E+03  0.11121943779E+04  0.11730888596E+04  0.17232004221E+03 0.  0.
        -24    2    5    5    0    0  0.38152888013E+02 -0.21977657454E+03  0.70569023390E+03  0.74441736095E+03  0.80006971374E+02 0.  0.
          5    1    3    3  501    0 -0.83457702059E+02  0.23988578540E+03 -0.89326258318E+01  0.25418941731E+03  0.47000000000E+01 0. -1.
        -11    1    4    4    0    0 -0.35920186223E+02  0.66091638078E+02 -0.45291596129E+01  0.75358328597E+02  0.00000000000E+00 0.  1.
         12    1    4    4    0    0 -0.32884491696E+02 -0.12237557398E+02  0.30947367454E+02  0.46785544322E+02  0.00000000000E+00 0. -1.
         -5    1    5    5    0  502  0.11410949196E+03 -0.73963291536E+02  0.40650414399E+03  0.42867149863E+03  0.47000000000E+01 0.  1.
         13    1    6    6    0    0  0.11844282896E+02 -0.15812965936E+03  0.58771411320E+03  0.60873077388E+03  0.00000000000E+00 0. -1.
        -14    1    6    6    0    0  0.26308605117E+02 -0.61646915183E+02  0.11797612070E+03  0.13568658707E+03  0.00000000000E+00 0.  1.
</event>
<event>
12    1  0.1594973E-001  0.1780978E+03  0.7818608E-02  0.1170321E+00
         21   -1    0    0  501  502  0.00000000000E+00  0.00000000000E+00  0.77440164692E+03  0.77440164692E+03  0.00000000000E+00 0.  1.
         21   -1    0    0  502  503 -0.00000000000E+00 -0.00000000000E+00 -0.64263981258E+02  0.64263981258E+02  0.00000000000E+00 0.  1.
         -6    2    1    2    0  503 -0.10639620395E+02 -0.43526334419E+02  0.97550546248E+02  0.20071437438E+03  0.16959483394E+03 0.  0.
        -24    2    3    3    0    0  0.10950650151E+02 -0.43592042862E+02 -0.10474719060E+02  0.90452449653E+02  0.77792949354E+02 0.  0.
          6    2    1    2  501    0  0.10639620395E+02  0.43526334419E+02  0.61258711942E+03  0.63795125380E+03  0.17236902285E+03 0.  0.
         24    2    5    5    0    0  0.52915389434E+02 -0.42884782341E+01  0.22312257868E+03  0.24326376293E+03  0.81087260121E+02 0.  0.
          5    1    5    5  501    0 -0.42275769039E+02  0.47814812653E+02  0.38946454074E+03  0.39468749087E+03  0.47000000000E+01 0. -1.
        -11    1    6    6    0    0  0.26948873148E+02  0.14474093470E+01  0.21316734301E+03  0.21486892024E+03  0.00000000000E+00 0.  1.
         12    1    6    6    0    0  0.25966516286E+02 -0.57358875811E+01  0.99552356702E+01  0.28394842694E+02  0.00000000000E+00 0. -1.
         -5    1    3    3    0  503 -0.21590270546E+02  0.65708443256E-01  0.10802526531E+03  0.11026192473E+03  0.47000000000E+01 0.  1.
         13    1    4    4    0    0  0.25582276878E+02 -0.63409333310E+01  0.25474896070E+02  0.36655567866E+02  0.00000000000E+00 0. -1.
        -14    1    4    4    0    0 -0.14631626728E+02 -0.37251109531E+02 -0.35949615130E+02  0.53796881787E+02  0.00000000000E+00 0.  1.
</event>
<event>
12    1  0.1594973E-001  0.1976139E+03  0.7818608E-02  0.1152289E+00
         21   -1    0    0  501  502  0.00000000000E+00  0.00000000000E+00  0.73885844832E+03  0.73885844832E+03  0.00000000000E+00 0.  1.
         21   -1    0    0  502  503 -0.00000000000E+00 -0.00000000000E+00 -0.80567839090E+02  0.80567839090E+02  0.00000000000E+00 0.  1.
         -6    2    1    2    0  503  0.93008870239E+02  0.91083273403E+01  0.87383271959E+02  0.21607192807E+03  0.17411958624E+03 0.  0.
        -24    2    3    3    0    0  0.38041070062E+02 -0.43889538775E+02  0.97980004907E+02  0.13884101704E+03  0.79393526354E+02 0.  0.
          6    2    1    2  501    0 -0.93008870239E+02 -0.91083273403E+01  0.57090733727E+03  0.60335435934E+03  0.17137001958E+03 0.  0.
         24    2    5    5    0    0 -0.43366409165E+02 -0.25929788360E+02  0.52564999725E+03  0.53394504931E+03  0.78970859875E+02 0.  0.
          5    1    5    5  501    0 -0.49642461073E+02  0.16821461019E+02  0.45257340022E+02  0.69409310025E+02  0.47000000000E+01 0. -1.
        -13    1    6    6    0    0 -0.63685499579E+02 -0.20291618113E+02  0.30226488570E+03  0.30956688090E+03  0.00000000000E+00 0.  1.
         14    1    6    6    0    0  0.20319090414E+02 -0.56381702467E+01  0.22338511154E+03  0.22437816841E+03  0.00000000000E+00 0. -1.
         -5    1    3    3    0  503  0.54967800177E+02  0.52997866116E+02 -0.10596732948E+02  0.77230911028E+02  0.47000000000E+01 0.  1.
         11    1    4    4    0    0 -0.63557337065E+01 -0.29363764617E+02 -0.27728902430E+00  0.30045014772E+02  0.00000000000E+00 0. -1.
        -12    1    4    4    0    0  0.44396803769E+02 -0.14525774158E+02  0.98257293932E+02  0.10879600227E+03  0.00000000000E+00 0.  1.
</event>
<event>
12    1  0.1594973E-001  0.1804041E+03  0.7818608E-02  0.1167613E+00
         21   -1    0    0  503  502  0.00000000000E+00  0.00000000000E+00  0.39458918582E+03  0.39458918582E+03  0.00000000000E+00 0. -1.
         21   -1    0    0  501  503 -0.00000000000E+00 -0.00000000000E+00 -0.29058090631E+03  0.29058090631E+03  0.00000000000E+00 0. -1.
          6    2    1    2  501    0  0.44535143619E+02  0.30030633955E+02 -0.23814092586E+03  0.29875866348E+03  0.17222200917E+03 0.  0.
         24    2    3    3    0    0  0.29136449114E+02 -0.36848847085E+02 -0.20036999216E+03  0.22028116219E+03  0.78542259050E+02 0.  0.
         -6    2    1    2    0  502 -0.44535143619E+02 -0.30030633955E+02  0.34214920537E+03  0.38641142864E+03  0.17135488162E+03 0.  0.
        -24    2    5    5    0    0 -0.68736894682E+02 -0.10056488763E+02  0.33944737478E+03  0.35456678829E+03  0.75280764171E+02 0.  0.
          5    1    3    3  501    0  0.15398694506E+02  0.66879481040E+02 -0.37770933699E+02  0.78477501293E+02  0.47000000000E+01 0. -1.
        -11    1    4    4    0    0  0.21130535283E+02 -0.40619208994E+02 -0.43481110999E+02  0.63142906762E+02  0.00000000000E+00 0.  1.
         12    1    4    4    0    0  0.80059138310E+01  0.37703619089E+01 -0.15688888116E+03  0.15713825543E+03  0.00000000000E+00 0. -1.
         -5    1    5    5    0  502  0.24201751063E+02 -0.19974145192E+02  0.27018305922E+01  0.31844640353E+02  0.47000000000E+01 0.  1.
         13    1    6    6    0    0 -0.60782577236E+02 -0.31231975463E+02  0.16401283401E+03  0.17767995866E+03  0.00000000000E+00 0. -1.
        -14    1    6    6    0    0 -0.79543174466E+01  0.21175486699E+02  0.17543454077E+03  0.17688682963E+03  0.00000000000E+00 0.  1.
</event>
<event>
12    1  0.1594973E-001  0.1985376E+03  0.7818608E-02  0.1151770E+00
         21   -1    0    0  501  502  0.00000000000E+00  0.00000000000E+00  0.11710801816E+03  0.11710801816E+03  0.00000000000E+00 0. -1.
         21   -1    0    0  502  503 -0.00000000000E+00 -0.00000000000E+00 -0.75504374349E+03  0.75504374349E+03  0.00000000000E+00 0. -1.
         -6    2    1    2    0  503  0.50024076545E+02  0.87273114478E+02 -0.64469468332E+03  0.67349916063E+03  0.16688582900E+03 0.  0.
        -24    2    3    3    0    0  0.56912009771E+02  0.11443360732E+03 -0.60321918743E+03  0.62322548208E+03  0.90568129559E+02 0.  0.
          6    2    1    2  501    0 -0.50024076545E+02 -0.87273114478E+02  0.67589580003E+01  0.19865260102E+03  0.17116707520E+03 0.  0.
         24    2    5    5    0    0 -0.93770680571E+02 -0.41076376275E+02 -0.13894770131E+02  0.13159612877E+03  0.81512374813E+02 0.  0.
          5    1    5    5  501    0  0.43746604026E+02 -0.46196738203E+02  0.20653728131E+02  0.67056472246E+02  0.47000000000E+01 0. -1.
        -11    1    6    6    0    0 -0.11608873946E+02 -0.23770796080E+01 -0.36189449809E+02  0.38080083236E+02  0.00000000000E+00 0.  1.
         12    1    6    6    0    0 -0.82161806625E+02 -0.38699296667E+02  0.22294679678E+02  0.93516045534E+02  0.00000000000E+00 0. -1.
         -5    1    3    3    0  503 -0.68879332266E+01 -0.27160492839E+02 -0.41475495893E+02  0.50273678550E+02  0.47000000000E+01 0.  1.
         11    1    4    4    0    0  0.98752320202E+01  0.38780106558E+02 -0.39133705866E+03  0.39337782138E+03  0.00000000000E+00 0. -1.
        -12    1    4    4    0    0  0.47036777751E+02  0.75653500759E+02 -0.21188212877E+03  0.22984766070E+03  0.00000000000E+00 0.  1.
</event>
<event>
12    1  0.1594973E-001  0.2104260E+03  0.7818608E-02  0.1141317E+00
         21   -1    0    0  501  502  0.00000000000E+00  0.00000000000E+00  0.55602735475E+02  0.55602735475E+02  0.00000000000E+00 0.  1.
         21   -1    0    0  502  503 -0.00000000000E+00 -0.00000000000E+00 -0.12362866962E+04  0.12362866962E+04  0.00000000000E+00 0.  1.
         -6    2    1    2    0  503 -0.11536708656E+03 -0.40797925597E+02 -0.97600513523E+03  0.99833782871E+03  0.17064102921E+03 0.  0.
        -24    2    3    3    0    0 -0.10604028218E+03 -0.32222563218E+02 -0.97560599157E+03  0.98481838214E+03  0.76008946787E+02 0.  0.
          6    2    1    2  501    0  0.11536708656E+03  0.40797925597E+02 -0.20467882549E+03  0.29355160296E+03  0.17118728516E+03 0.  0.
         24    2    5    5    0    0  0.11055625953E+03  0.41249117015E+02 -0.69362810196E+02  0.15806779719E+03  0.79057276034E+02 0.  0.
          5    1    5    5  501    0  0.48108270331E+01 -0.45119141725E+00 -0.13531601530E+03  0.13548380577E+03  0.47000000000E+01 0. -1.
        -11    1    6    6    0    0  0.24270251425E+02 -0.22349475792E+02 -0.27645476464E+02  0.43044355511E+02  0.00000000000E+00 0.  1.
         12    1    6    6    0    0  0.86286008104E+02  0.63598592806E+02 -0.41717333732E+02  0.11502344168E+03  0.00000000000E+00 0. -1.
         -5    1    3    3    0  503 -0.93268043800E+01 -0.85753623794E+01 -0.39914365700E+00  0.13519446569E+02  0.47000000000E+01 0.  1.
         13    1    4    4    0    0  0.37770558494E+01 -0.23885288635E+02 -0.16352974930E+03  0.16530805204E+03  0.00000000000E+00 0. -1.
        -14    1    4    4    0    0 -0.10981733803E+03 -0.83372745833E+01 -0.81207624227E+03  0.81951033010E+03  0.00000000000E+00 0.  1.
</event>
<event>
12    1  0.1594973E-001  0.2158016E+03  0.7818608E-02  0.1137232E+00
         21   -1    0    0  503  502  0.00000000000E+00  0.00000000000E+00  0.86850886193E+02  0.86850886193E+02  0.00000000000E+00 0. -1.
         21   -1    0    0  501  503 -0.00000000000E+00 -0.00000000000E+00 -0.67046345779E+03  0.67046345779E+03  0.00000000000E+00 0.  1.
          6    2    1    2  501    0  0.92793500061E+02  0.90165111818E+02 -0.46321374877E+03  0.51101596942E+03  0.17271352844E+03 0.  0.
         24    2    3    3    0    0  0.41245509706E+02  0.10648953292E+03 -0.41695862399E+03  0.43970461967E+03  0.80277305300E+02 0.  0.
         -6    2    1    2    0  502 -0.92793500061E+02 -0.90165111818E+02 -0.12039882283E+03  0.24629837457E+03  0.17154192413E+03 0.  0.
        -24    2    5    5    0    0 -0.32586410697E+02 -0.61731503329E+02 -0.13710141746E+03  0.17749117750E+03  0.88508003912E+02 0.  0.
          5    1    3    3  501    0  0.51547990355E+02 -0.16324421105E+02 -0.46255124779E+02  0.71311349745E+02  0.47000000000E+01 0. -1.
        -11    1    4    4    0    0  0.55527578684E+02  0.10932636398E+03 -0.39283038046E+03  0.41152311437E+03  0.00000000000E+00 0.  1.
         12    1    4    4    0    0 -0.14282068978E+02 -0.28368310534E+01 -0.24128243536E+02  0.28181505298E+02  0.00000000000E+00 0. -1.
         -5    1    5    5    0  502 -0.60207089365E+02 -0.28433608489E+02  0.16702594626E+02  0.68807197071E+02  0.47000000000E+01 0.  1.
         11    1    6    6    0    0  0.23399894138E+01 -0.22064653834E+02  0.75888896862E+01  0.23450282428E+02  0.00000000000E+00 0. -1.
        -12    1    6    6    0    0 -0.34926400110E+02 -0.39666849495E+02 -0.14469030714E+03  0.15404089507E+03  0.00000000000E+00 0.  1.
</event>
<event>
12    1  0.1594973E-001  0.1885847E+03  0.7818608E-02  0.1163275E+00
         21   -1    0    0  501  502  0.00000000000E+00  0.00000000000E+00  0.35049331040E+02  0.35049331040E+02  0.00000000000E+00 0.  1.
         21   -1    0    0  502  503 -0.00000000000E+00 -0.00000000000E+00 -0.15004182378E+04  0.15004182378E+04  0.00000000000E+00 0. -1.
         -6    2    1    2    0  503  0.15502832571E+02  0.46433791417E+02 -0.11844132664E+04  0.11970887009E+04  0.16670374166E+03 0.  0.
        -24    2    3    3    0    0  0.69974081148E+01  0.88700596046E+02 -0.10193710660E+04  0.10264433291E+04  0.80943055171E+02 0.  0.
          6    2    1    2  501    0 -0.15502832571E+02 -0.46433791417E+02 -0.28095564046E+03  0.33837886800E+03  0.18212015704E+03 0.  0.
         24    2    5    5    0    0 -0.26686507949E+02 -0.90160795072E+02 -0.12398515492E+03  0.17498073835E+03  0.80030003613E+02 0.  0.
          5    1    5    5  501    0  0.11183675378E+02  0.43727003655E+02 -0.15697048553E+03  0.16339812965E+03  0.47000000000E+01 0. -1.
        -11    1    6    6    0    0 -0.36159265943E+02 -0.38276911135E+02 -0.16378766378E+02  0.55144160413E+02  0.00000000000E+00 0.  1.
         12    1    6    6    0    0  0.94727579936E+01 -0.51883883937E+02 -0.10760638854E+03  0.11983657794E+03  0.00000000000E+00 0. -1.
         -5    1    3    3    0  503  0.85054244562E+01 -0.42266804629E+02 -0.16504220034E+03  0.17064537179E+03  0.47000000000E+01 0.  1.
         11    1    4    4    0    0  0.21677493755E+02 -0.36694294662E+01 -0.33358919713E+03  0.33431292361E+03  0.00000000000E+00 0. -1.
        -12    1    4    4    0    0 -0.14680085641E+02  0.92370025513E+02 -0.68578186887E+03  0.69213040549E+03  0.00000000000E+00 0.  1.
</event>
<event>
12    1  0.1594973E-001  0.1992581E+03  0.7818608E-02  0.1150713E+00
         21   -1    0    0  503  502  0.00000000000E+00  0.00000000000E+00  0.88515280148E+03  0.88515280148E+03  0.00000000000E+00 0.  1.
         21   -1    0    0  501  503 -0.00000000000E+00 -0.00000000000E+00 -0.58072949948E+02  0.58072949948E+02  0.00000000000E+00 0. -1.
          6    2    1    2  501    0  0.95397405602E+02 -0.20607736340E+02  0.18675175802E+03  0.27309339404E+03  0.17371942595E+03 0.  0.
         24    2    3    3    0    0 -0.65505896364E+01 -0.24441713655E+02  0.12654950980E+03  0.15454174367E+03  0.85018024645E+02 0.  0.
         -6    2    1    2    0  502 -0.95397405602E+02  0.20607736340E+02  0.64032809352E+03  0.67013235739E+03  0.17184866972E+03 0.  0.
        -24    2    5    5    0    0 -0.10709356670E+03  0.21898767069E+02  0.29924990478E+03  0.32881888303E+03  0.81380368032E+02 0.  0.
          5    1    3    3  501    0  0.10194799524E+03  0.38339773151E+01  0.60202248217E+02  0.11855165037E+03  0.47000000000E+01 0. -1.
        -11    1    4    4    0    0  0.22075528300E+02 -0.85786868467E+01  0.11849361519E+03  0.12083732726E+03  0.00000000000E+00 0.  1.
         12    1    4    4    0    0 -0.28626117937E+02 -0.15863026808E+02  0.80558946088E+01  0.33704416411E+02  0.00000000000E+00 0. -1.
         -5    1    5    5    0  502  0.11696161103E+02 -0.12910307290E+01  0.34107818874E+03  0.34131347436E+03  0.47000000000E+01 0.  1.
         13    1    6    6    0    0 -0.22825436962E+02 -0.10489910319E+02  0.12236839055E+02  0.27942423321E+02  0.00000000000E+00 0. -1.
        -14    1    6    6    0    0 -0.84268129743E+02  0.32388677388E+02  0.28701306572E+03  0.30087645971E+03  0.00000000000E+00 0.  1.
</event>
<event>
12    1  0.1594973E-001  0.1987760E+03  0.7818608E-02  0.1150912E+00
         21   -1    0    0  503  502  0.00000000000E+00  0.00000000000E+00  0.72967812588E+02  0.72967812588E+02  0.00000000000E+00 0.  1.
         21   -1    0    0  501  503 -0.00000000000E+00 -0.00000000000E+00 -0.53983280841E+03  0.53983280841E+03  0.00000000000E+00 0.  1.
          6    2    1    2  501    0  0.10033134867E+03  0.37718734161E+01 -0.23673909144E+03  0.30871211078E+03  0.17081324121E+03 0.  0.
         24    2    3    3    0    0  0.63119064392E+02 -0.64048661265E+02 -0.15588872942E+03  0.19671545876E+03  0.79431910805E+02 0.  0.
         -6    2    1    2    0  502 -0.10033134867E+03 -0.37718734161E+01 -0.23012590438E+03  0.30408851022E+03  0.17155548264E+03 0.  0.
        -24    2    5    5    0    0 -0.11833811278E+02 -0.35266095765E+02 -0.17753179446E+03  0.19632984206E+03  0.75127439986E+02 0.  0.
          5    1    3    3  501    0  0.37212284277E+02  0.67820534681E+02 -0.80850362021E+02  0.11199665202E+03  0.47000000000E+01 0. -1.
        -11    1    4    4    0    0  0.66744164379E+02 -0.30087642320E+02 -0.14216161288E+03  0.15990614083E+03  0.00000000000E+00 0.  1.
         12    1    4    4    0    0 -0.36250999869E+01 -0.33961018945E+02 -0.13727116542E+02  0.36809317927E+02  0.00000000000E+00 0. -1.
         -5    1    5    5    0  502 -0.88497537391E+02  0.31494222349E+02 -0.52594109927E+02  0.10775866816E+03  0.47000000000E+01 0.  1.
         11    1    6    6    0    0 -0.41745172721E+02 -0.34068733279E+02 -0.11237236627E+03  0.12462297835E+03  0.00000000000E+00 0. -1.
        -12    1    6    6    0    0  0.29911361444E+02 -0.11973624863E+01 -0.65159428187E+02  0.71706863703E+02  0.00000000000E+00 0.  1.
</event>
<event>
12    1  0.1594973E-001  0.1791085E+03  0.7818608E-02  0.1169075E+00
         21   -1    0    0  501  502  0.00000000000E+00  0.00000000000E+00  0.78451108070E+02  0.78451108070E+02  0.00000000000E+00 0.  1.
         21   -1    0    0  502  503 -0.00000000000E+00 -0.00000000000E+00 -0.40735756859E+03  0.40735756859E+03  0.00000000000E+00 0.  1.
         -6    2    1    2    0  503 -0.29592296615E+02  0.31701088183E+02 -0.18163122494E+03  0.25392542913E+03  0.17206847089E+03 0.  0.
        -24    2    3    3    0    0 -0.57638799884E+02 -0.14547340374E+02 -0.49098458098E+02  0.11070340646E+03  0.79440098510E+02 0.  0.
          6    2    1    2  501    0  0.29592296615E+02 -0.31701088183E+02 -0.14727523559E+03  0.23188324754E+03  0.17377911975E+03 0.  0.
         24    2    5    5    0    0  0.49189262459E+02 -0.29271022359E+02 -0.97922577587E+01  0.92909849065E+02  0.72525688209E+02 0.  0.
          5    1    5    5  501    0 -0.19596965844E+02 -0.24300658242E+01 -0.13748297783E+03  0.13897339847E+03  0.47000000000E+01 0. -1.
        -13    1    6    6    0    0 -0.19899508993E+01 -0.39277592689E+02  0.22390940359E+01  0.39391658179E+02  0.00000000000E+00 0.  1.
         14    1    6    6    0    0  0.51179213358E+02  0.10006570330E+02 -0.12031351795E+02  0.53518190886E+02  0.00000000000E+00 0. -1.
         -5    1    3    3    0  503  0.28046503269E+02  0.46248428557E+02 -0.13253276684E+03  0.14322202266E+03  0.47000000000E+01 0.  1.
         13    1    4    4    0    0 -0.18909993892E+02 -0.41162674524E+02 -0.44478115206E+02  0.63484300227E+02  0.00000000000E+00 0. -1.
        -14    1    4    4    0    0 -0.38728805993E+02  0.26615334150E+02 -0.46203428914E+01  0.47219106238E+02  0.00000000000E+00 0.  1.
</event>
<event>
12    1  0.1594973E-001  0.1831174E+03  0.7818608E-02  0.1164919E+00
         21   -1    0    0  503  502  0.00000000000E+00  0.00000000000E+00  0.67745404785E+02  0.67745404785E+02  0.00000000000E+00 0. -1.
         21   -1    0    0  501  503 -0.00000000000E+00 -0.00000000000E+00 -0.49583702519E+03  0.49583702519E+03  0.00000000000E+00 0. -1.
          6    2    1    2  501    0 -0.35130089138E+02  0.54492046892E+02 -0.19591593969E+03  0.26788406811E+03  0.17080782238E+03 0.  0.
         24    2    3    3    0    0 -0.23135062515E+02 -0.34906607833E+02 -0.11991313931E+03  0.14983951806E+03  0.79492249972E+02 0.  0.
         -6    2    1    2    0  502  0.35130089138E+02 -0.54492046892E+02 -0.23217568071E+03  0.29569836186E+03  0.17125556387E+03 0.  0.
        -24    2    5    5    0    0 -0.26911805670E+02 -0.96613425283E+01 -0.37305917565E+02  0.86281783353E+02  0.72354874261E+02 0.  0.
          5    1    3    3  501    0 -0.11995026623E+02  0.89398654725E+02 -0.76002800374E+02  0.11804455004E+03  0.47000000000E+01 0. -1.
        -13    1    4    4    0    0 -0.48943688757E+02 -0.63196465009E+01 -0.82573700376E+02  0.96196874143E+02  0.00000000000E+00 0.  1.
         14    1    4    4    0    0  0.25808626242E+02 -0.28586961332E+02 -0.37339438936E+02  0.53642643920E+02  0.00000000000E+00 0. -1.
         -5    1    5    5    0  502  0.62041894808E+02 -0.44830704364E+02 -0.19486976315E+03  0.20941657851E+03  0.47000000000E+01 0.  1.
         13    1    6    6    0    0  0.41171010091E+01  0.17518430194E+02 -0.41090996064E+02  0.44858843885E+02  0.00000000000E+00 0. -1.
        -14    1    6    6    0    0 -0.31028906679E+02 -0.27179772722E+02  0.37850784990E+01  0.41422939468E+02  0.00000000000E+00 0.  1.
</event>
<event>
12    1  0.1594973E-001  0.2646898E+03  0.7818608E-02  0.1104372E+00
         21   -1    0    0  501  502  0.00000000000E+00  0.00000000000E+00  0.31137755921E+03  0.31137755921E+03  0.00000000000E+00 0.  1.
         21   -1    0    0  502  503 -0.00000000000E+00 -0.00000000000E+00 -0.57331367036E+03  0.57331367036E+03  0.00000000000E+00 0. -1.
         -6    2    1    2    0  503  0.13461466814E+03 -0.14903719261E+03 -0.47580433989E+03  0.54447263624E+03  0.17241661203E+03 0.  0.
        -24    2    3    3    0    0  0.68945511116E+02 -0.13553808699E+02 -0.13570893495E+03  0.17251140176E+03  0.80037987720E+02 0.  0.
          6    2    1    2  501    0 -0.13461466814E+03  0.14903719261E+03  0.21386822873E+03  0.34021859332E+03  0.17226688110E+03 0.  0.
         24    2    5    5    0    0 -0.96960695257E+02  0.17709565365E+03  0.18467102564E+03  0.28472385864E+03  0.78740339082E+02 0.  0.
          5    1    5    5  501    0 -0.37653972884E+02 -0.28058461039E+02  0.29197203088E+02  0.55494734687E+02  0.47000000000E+01 0. -1.
        -11    1    6    6    0    0 -0.56186184710E+02  0.82513338297E+02  0.14121107143E+03  0.17293323869E+03  0.00000000000E+00 0.  1.
         12    1    6    6    0    0 -0.40774510548E+02  0.94582315354E+02  0.43459954211E+02  0.11179061995E+03  0.00000000000E+00 0. -1.
         -5    1    3    3    0  503  0.65669157025E+02 -0.13548338391E+03 -0.34009540494E+03  0.37196123449E+03  0.47000000000E+01 0.  1.
         11    1    4    4    0    0  0.26755127759E+02  0.11726335631E+02 -0.11583795277E+03  0.11946453495E+03  0.00000000000E+00 0. -1.
        -12    1    4    4    0    0  0.42190383357E+02 -0.25280144330E+02 -0.19870982175E+02  0.53046866804E+02  0.00000000000E+00 0.  1.
</event>
<event>
12    1  0.1594973E-001  0.2108709E+03  0.7818608E-02  0.1141153E+00
         21   -1    0    0  501  502  0.00000000000E+00  0.00000000000E+00  0.19830186004E+03  0.19830186004E+03  0.00000000000E+00 0. -1.
         21   -1    0    0  502  503 -0.00000000000E+00 -0.00000000000E+00 -0.33684734513E+03  0.33684734513E+03  0.00000000000E+00 0.  1.
         -6    2    1    2    0  503  0.11381268219E+03  0.40415323071E+02 -0.22484076706E+03  0.30730409037E+03  0.17115989150E+03 0.  0.
        -24    2    3    3    0    0  0.10821804447E+03  0.88362569922E+02 -0.16521088499E+03  0.23044024134E+03  0.79303085675E+02 0.  0.
          6    2    1    2  501    0 -0.11381268219E+03 -0.40415323071E+02  0.86295281975E+02  0.22784511480E+03  0.17285773249E+03 0.  0.
         24    2    5    5    0    0  0.68998592762E+01 -0.31422231461E+02  0.37661403386E+02  0.97308769244E+02  0.83759480531E+02 0.  0.
          5    1    5    5  501    0 -0.12071254147E+03 -0.89930916103E+01  0.48633878589E+02  0.13053634556E+03  0.47000000000E+01 0. -1.
        -13    1    6    6    0    0 -0.13855202310E+02 -0.45294688851E+02 -0.52577066680E+01  0.47657307400E+02  0.00000000000E+00 0.  1.
         14    1    6    6    0    0  0.20755061587E+02  0.13872457390E+02  0.42919110054E+02  0.49651461845E+02  0.00000000000E+00 0. -1.
         -5    1    3    3    0  503  0.55946377210E+01 -0.47947246850E+02 -0.59629882078E+02  0.76863849034E+02  0.47000000000E+01 0.  1.
         11    1    4    4    0    0  0.17572838441E+02  0.61249728116E+02 -0.47823577800E+02  0.79670750208E+02  0.00000000000E+00 0. -1.
        -12    1    4    4    0    0  0.90645206029E+02  0.27112841806E+02 -0.11738730719E+03  0.15076949113E+03  0.00000000000E+00 0.  1.
</event>
<event>
12    1  0.1594973E-001  0.1750332E+03  0.7818608E-02  0.1173420E+00
         21   -1    0    0  503  502  0.00000000000E+00  0.00000000000E+00  0.62318153235E+03  0.62318153235E+03  0.00000000000E+00 0. -1.
         21   -1    0    0  501  503 -0.00000000000E+00 -0.00000000000E+00 -0.16418710096E+03  0.16418710096E+03  0.00000000000E+00 0. -1.
          6    2    1    2  501    0  0.10628885541E+01 -0.10613769708E+02 -0.10059978539E+03  0.20188344303E+03  0.17470783013E+03 0.  0.
         24    2    3    3    0    0  0.26863654611E+02  0.30373650554E+02 -0.19198796117E+01  0.91858618765E+02  0.82402095341E+02 0.  0.
         -6    2    1    2    0  502 -0.10628885541E+01  0.10613769708E+02  0.55959421678E+03  0.58548519028E+03  0.17185295676E+03 0.  0.
        -24    2    5    5    0    0  0.60194824138E+02  0.22651432814E+02  0.42002963241E+03  0.43252187472E+03  0.80707965829E+02 0.  0.
          5    1    3    3  501    0 -0.25800766057E+02 -0.40987420262E+02 -0.98679905781E+02  0.11002482426E+03  0.47000000000E+01 0. -1.
        -13    1    4    4    0    0  0.22861344977E+02 -0.14830595620E+02 -0.28365407287E+02  0.39334259763E+02  0.00000000000E+00 0.  1.
         14    1    4    4    0    0  0.40023096344E+01  0.45204246174E+02  0.26445527675E+02  0.52524359002E+02  0.00000000000E+00 0. -1.
         -5    1    5    5    0  502 -0.61257712692E+02 -0.12037663106E+02  0.13956458437E+03  0.15296331556E+03  0.47000000000E+01 0.  1.
         11    1    6    6    0    0 -0.36490444132E+00 -0.23871938839E+02  0.15051824821E+03  0.15239995296E+03  0.00000000000E+00 0. -1.
        -12    1    6    6    0    0  0.60559728579E+02  0.46523371653E+02  0.26951138420E+03  0.28012192176E+03  0.00000000000E+00 0.  1.
</event>
<event>
12    1  0.1594973E-001  0.2026626E+03  0.7818608E-02  0.1147778E+00
         21   -1    0    0  501  502  0.00000000000E+00  0.00000000000E+00  0.10983151863E+04  0.10983151863E+04  0.00000000000E+00 0.  1.
         21   -1    0    0  502  503 -0.00000000000E+00 -0.00000000000E+00 -0.11029980011E+03  0.11029980011E+03  0.00000000000E+00 0.  1.
         -6    2    1    2    0  503 -0.10656154223E+03 -0.62240225988E+01  0.13869637178E+01  0.20138721792E+03  0.17076529838E+03 0.  0.
        -24    2    3    3    0    0 -0.52663117162E+02  0.56123835363E+01  0.66479510130E+02  0.11592219388E+03  0.78825928524E+02 0.  0.
          6    2    1    2  501    0  0.10656154223E+03  0.62240225988E+01  0.98662842246E+03  0.10072277685E+04  0.17227313451E+03 0.  0.
         24    2    5    5    0    0  0.17475907277E+02  0.55228522633E+02  0.41904747114E+03  0.43059277330E+03  0.80335274329E+02 0.  0.
          5    1    5    5  501    0  0.89085634958E+02 -0.49004500035E+02  0.56758095132E+03  0.57663499520E+03  0.47000000000E+01 0. -1.
        -13    1    6    6    0    0  0.30708544754E+01  0.33102979194E+02  0.38970683535E+03  0.39112230171E+03  0.00000000000E+00 0.  1.
         14    1    6    6    0    0  0.14405052801E+02  0.22125543440E+02  0.29340635789E+02  0.39470471586E+02  0.00000000000E+00 0. -1.
         -5    1    3    3    0  503 -0.53898425073E+02 -0.11836406135E+02 -0.65092546413E+02  0.85465024039E+02  0.47000000000E+01 0.  1.
         13    1    4    4    0    0 -0.66081487189E+02 -0.16537678113E+01  0.23239003460E+02  0.70068175222E+02  0.00000000000E+00 0. -1.
        -14    1    4    4    0    0  0.13418370028E+02  0.72661513477E+01  0.43240506671E+02  0.45854018654E+02  0.00000000000E+00 0.  1.
</event>
<event>
12    1  0.1594973E-001  0.2651831E+03  0.7818608E-02  0.1104076E+00
         21   -1    0    0  501  502  0.00000000000E+00  0.00000000000E+00  0.55255545016E+03  0.55255545016E+03  0.00000000000E+00 0.  1.
         21   -1    0    0  502  503 -0.00000000000E+00 -0.00000000000E+00 -0.15712629458E+03  0.15712629458E+03  0.00000000000E+00 0. -1.
         -6    2    1    2    0  503  0.56536534865E+02 -0.19357774551E+03  0.42945811968E+02  0.26858469320E+03  0.17211818998E+03 0.  0.
        -24    2    3    3    0    0 -0.21336750036E+01 -0.86562204198E+02  0.77924486547E+02  0.14154093190E+03  0.80399266389E+02 0.  0.
          6    2    1    2  501    0 -0.56536534865E+02  0.19357774551E+03  0.35248334361E+03  0.44109705154E+03  0.17220156220E+03 0.  0.
         24    2    5    5    0    0 -0.78184360191E+02  0.92272079456E+02  0.27582987419E+03  0.31214236690E+03  0.81998822516E+02 0.  0.
          5    1    5    5  501    0  0.21647825326E+02  0.10130566605E+03  0.76653469418E+02  0.12895468464E+03  0.47000000000E+01 0. -1.
        -11    1    6    6    0    0  0.39345688956E+01  0.40823527765E+02  0.13575519857E+03  0.14181507391E+03  0.00000000000E+00 0.  1.
         12    1    6    6    0    0 -0.82118929087E+02  0.51448551692E+02  0.14007467562E+03  0.17032729299E+03  0.00000000000E+00 0. -1.
         -5    1    3    3    0  503  0.58670209869E+02 -0.10701554131E+03 -0.34978674580E+02  0.12704376129E+03  0.47000000000E+01 0.  1.
         11    1    4    4    0    0  0.12274730005E+02  0.11525553247E+02  0.26125993348E+01  0.17039162234E+02  0.00000000000E+00 0. -1.
        -12    1    4    4    0    0 -0.14408405008E+02 -0.98087757445E+02  0.75311887212E+02  0.12450176967E+03  0.00000000000E+00 0.  1.
</event>
<event>
12    1  0.1594973E-001  0.1975444E+03  0.7818608E-02  0.1154780E+00
         21   -1    0    0  503  502  0.00000000000E+00  0.00000000000E+00  0.38030616812E+03  0.38030616812E+03  0.00000000000E+00 0. -1.
         21   -1    0    0  501  503 -0.00000000000E+00 -0.00000000000E+00 -0.34147083067E+03  0.34147083067E+03  0.00000000000E+00 0. -1.
          6    2    1    2  501    0 -0.79581292266E+02 -0.55269110178E+02 -0.28642711698E+03  0.34794293322E+03  0.17215090710E+03 0.  0.
         24    2    3    3    0    0 -0.55016529977E+02 -0.24800398588E+02 -0.29147164243E+03  0.30820243537E+03  0.79944633890E+02 0.  0.
         -6    2    1    2    0  502  0.79581292266E+02  0.55269110178E+02  0.32526245443E+03  0.37383406558E+03  0.15674306270E+03 0.  0.
        -24    2    5    5    0    0  0.64353203165E+02  0.46193238589E+02  0.33485878010E+03  0.35313513785E+03  0.79365439109E+02 0.  0.
          5    1    3    3  501    0 -0.24564762288E+02 -0.30468711590E+02  0.50445254456E+01  0.39740497848E+02  0.47000000000E+01 0. -1.
        -13    1    4    4    0    0  0.93649767936E+01 -0.23492542483E+02 -0.15797110859E+03  0.15998272873E+03  0.00000000000E+00 0.  1.
         14    1    4    4    0    0 -0.64381506771E+02 -0.13078561051E+01 -0.13350053384E+03  0.14821970664E+03  0.00000000000E+00 0. -1.
         -5    1    5    5    0  502  0.15228089101E+02  0.90758715893E+01 -0.95963256678E+01  0.20698927728E+02  0.47000000000E+01 0.  1.
         13    1    6    6    0    0  0.73615122656E+02  0.15138594568E+02  0.27479187630E+03  0.28488407925E+03  0.00000000000E+00 0. -1.
        -14    1    6    6    0    0 -0.92619194910E+01  0.31054644021E+02  0.60066903797E+02  0.68251058597E+02  0.00000000000E+00 0.  1.
</event>
<event>
12    1  0.1594973E-001  0.2703811E+03  0.7818608E-02  0.1101069E+00
         21   -1    0    0  501  502  0.00000000000E+00  0.00000000000E+00  0.19802047854E+04  0.19802047854E+04  0.00000000000E+00 0.  1.
         21   -1    0    0  502  503 -0.00000000000E+00 -0.00000000000E+00 -0.60123879698E+02  0.60123879698E+02  0.00000000000E+00 0. -1.
         -6    2    1    2    0  503  0.11191757034E+03 -0.17571829888E+03  0.32609636718E+03  0.42357492347E+03  0.17226262506E+03 0.  0.
        -24    2    3    3    0    0  0.52308428541E+02 -0.79471230282E+02  0.70269962437E+02  0.14377859153E+03  0.81746973178E+02 0.  0.
          6    2    1    2  501    0 -0.11191757034E+03  0.17571829888E+03  0.15939845385E+04  0.16167537416E+04  0.17234700148E+03 0.  0.
         24    2    5    5    0    0 -0.10880510270E+03  0.80231219408E+02  0.12408147983E+04  0.12508597335E+04  0.82177309456E+02 0.  0.
          5    1    5    5  501    0 -0.31124676392E+01  0.95487079474E+02  0.35316974023E+03  0.36589400817E+03  0.47000000000E+01 0. -1.
        -13    1    6    6    0    0 -0.90363142930E+02  0.92852483159E+02  0.11525564055E+04  0.11598160841E+04  0.00000000000E+00 0.  1.
         14    1    6    6    0    0 -0.18441959769E+02 -0.12621263751E+02  0.88258392820E+02  0.91043649322E+02  0.00000000000E+00 0. -1.
         -5    1    3    3    0  503  0.59609141797E+02 -0.96247068600E+02  0.25582640475E+03  0.27979633194E+03  0.47000000000E+01 0.  1.
         13    1    4    4    0    0  0.25421674524E+01 -0.74084035330E+02  0.51754342032E+02  0.90406962261E+02  0.00000000000E+00 0. -1.
        -14    1    4    4    0    0  0.49766261089E+02 -0.53871949510E+01  0.18515620405E+02  0.53371629272E+02  0.00000000000E+00 0.  1.
</event>
<event>
12    1  0.1594973E-001  0.1784288E+03  0.7818608E-02  0.1169530E+00
         21   -1    0    0  501  502  0.00000000000E+00  0.00000000000E+00  0.43435837146E+03  0.43435837146E+03  0.00000000000E+00 0. -1.
         21   -1    0    0  502  503 -0.00000000000E+00 -0.00000000000E+00 -0.99694904949E+02  0.99694904949E+02  0.00000000000E+00 0. -1.
         -6    2    1    2    0  503  0.26832911263E+02  0.35511920161E+02  0.28791494599E+02  0.17994241499E+03  0.17195703228E+03 0.  0.
        -24    2    3    3    0    0  0.36351119097E+02  0.56241466813E+02 -0.36460872695E+02  0.11065842101E+03  0.80195912948E+02 0.  0.
          6    2    1    2  501    0 -0.26832911263E+02 -0.35511920161E+02  0.30587197192E+03  0.35411086142E+03  0.17278812856E+03 0.  0.
         24    2    5    5    0    0 -0.77224984018E+02 -0.43759164669E+02  0.16284579054E+03  0.20217022631E+03  0.80470406117E+02 0.  0.
          5    1    5    5  501    0  0.50392072756E+02  0.82472445083E+01  0.14302618138E+03  0.15194063511E+03  0.47000000000E+01 0. -1.
        -11    1    6    6    0    0  0.31974307433E+01  0.17934784928E+02  0.20514300015E+02  0.27435680762E+02  0.00000000000E+00 0.  1.
         12    1    6    6    0    0 -0.80422414762E+02 -0.61693949597E+02  0.14233149052E+03  0.17473454555E+03  0.00000000000E+00 0. -1.
         -5    1    3    3    0  503 -0.95182078340E+01 -0.20729546652E+02  0.65252367294E+02  0.69283993983E+02  0.47000000000E+01 0.  1.
         13    1    4    4    0    0  0.33848062881E+02  0.59703370759E+01 -0.47983132881E+02  0.59023023700E+02  0.00000000000E+00 0. -1.
        -14    1    4    4    0    0  0.25030562161E+01  0.50271129737E+02  0.11522260186E+02  0.51635397309E+02  0.00000000000E+00 0.  1.
</event>
<event>
12    1  0.1594973E-001  0.2707329E+03  0.7818608E-02  0.1100872E+00
         21   -1    0    0  501  502  0.00000000000E+00  0.00000000000E+00  0.57456862374E+03  0.57456862374E+03  0.00000000000E+00 0. -1.
         21   -1    0    0  502  503 -0.00000000000E+00 -0.00000000000E+00 -0.39236126547E+03  0.39236126547E+03  0.00000000000E+00 0.  1.
         -6    2    1    2    0  503  0.15564951323E+03  0.14010924481E+03 -0.30608801205E+03  0.40863944207E+03  0.17157782795E+03 0.  0.
        -24    2    3    3    0    0  0.13788427209E+03  0.10985132985E+03 -0.31721969071E+03  0.37152947737E+03  0.79538878672E+02 0.  0.
          6    2    1    2  501    0 -0.15564951323E+03 -0.14010924481E+03  0.48829537032E+03  0.55829044714E+03  0.17145985900E+03 0.  0.
         24    2    5    5    0    0 -0.16713921472E+03 -0.15711722402E+03  0.40296370038E+03  0.47039921612E+03  0.79210728549E+02 0.  0.
          5    1    5    5  501    0  0.11489701484E+02  0.17007979214E+02  0.85331669938E+02  0.87891231028E+02  0.47000000000E+01 0. -1.
        -13    1    6    6    0    0 -0.37415297107E+02 -0.16865930862E+00  0.44490289335E+02  0.58131908180E+02  0.00000000000E+00 0.  1.
         14    1    6    6    0    0 -0.12972391761E+03 -0.15694856471E+03  0.35847341104E+03  0.41226730794E+03  0.00000000000E+00 0. -1.
         -5    1    3    3    0  503  0.17765241146E+02  0.30257914958E+02  0.11131678656E+02  0.37109964703E+02  0.47000000000E+01 0.  1.
         13    1    4    4    0    0  0.71588416472E+02  0.18667127214E+02 -0.17536691441E+03  0.19033370086E+03  0.00000000000E+00 0. -1.
        -14    1    4    4    0    0  0.66295855615E+02  0.91184202637E+02 -0.14185277630E+03  0.18119577651E+03  0.00000000000E+00 0.  1.
</event>
<event>
12    1  0.1594973E-001  0.2829946E+03  0.7818608E-02  0.1094071E+00
         21   -1    0    0  501  502  0.00000000000E+00  0.00000000000E+00  0.28195519082E+03  0.28195519082E+03  0.00000000000E+00 0.  1.
         21   -1    0    0  502  503 -0.00000000000E+00 -0.00000000000E+00 -0.30931704310E+03  0.30931704310E+03  0.00000000000E+00 0.  1.
         -6    2    1    2    0  503 -0.12403977581E+03 -0.18685303492E+03  0.70915606169E+02  0.29174469102E+03  0.17258626511E+03 0.  0.
        -24    2    3    3    0    0 -0.67424926605E+02 -0.21519768914E+02  0.50968484455E+02  0.11578927718E+03  0.76158710076E+02 0.  0.
          6    2    1    2  501    0  0.12403977581E+03  0.18685303492E+03 -0.98277458459E+02  0.29952754289E+03  0.17250613749E+03 0.  0.
         24    2    5    5    0    0  0.90057845866E+02  0.20015256381E+03 -0.47480746454E+02  0.23680557719E+03  0.75173104906E+02 0.  0.
          5    1    5    5  501    0  0.33981929940E+02 -0.13299528899E+02 -0.50796712005E+02  0.62721965705E+02  0.47000000000E+01 0. -1.
        -11    1    6    6    0    0  0.74821169256E+02  0.14313634721E+03 -0.72792684026E+00  0.16151393481E+03  0.00000000000E+00 0.  1.
         12    1    6    6    0    0  0.15236676610E+02  0.57016216605E+02 -0.46752819614E+02  0.75291642378E+02  0.00000000000E+00 0. -1.
         -5    1    3    3    0  503 -0.56614849200E+02 -0.16533326600E+03  0.19947121714E+02  0.17595541384E+03  0.47000000000E+01 0.  1.
         13    1    4    4    0    0  0.16084708839E-01  0.30927282621E+00  0.44618555319E+02  0.44619630066E+02  0.00000000000E+00 0. -1.
        -14    1    4    4    0    0 -0.67441011314E+02 -0.21829041741E+02  0.63499291357E+01  0.71169647115E+02  0.00000000000E+00 0.  1.
</event>
<event>
12    1  0.1594973E-001  0.1754725E+03  0.7818608E-02  0.1172377E+00
         21   -1    0    0  501  502  0.00000000000E+00  0.00000000000E+00  0.45266247599E+02  0.45266247599E+02  0.00000000000E+00 0. -1.
         21   -1    0    0  502  503 -0.00000000000E+00 -0.00000000000E+00 -0.80981377111E+03  0.80981377111E+03  0.00000000000E+00 0. -1.
         -6    2    1    2    0  503  0.33434028672E+02 -0.14249981536E+02 -0.55408459599E+03  0.58106315846E+03  0.17118340559E+03 0.  0.
        -24    2    3    3    0    0  0.43484187357E+02 -0.69134134657E+02 -0.43685094684E+03  0.45114358931E+03  0.77597585621E+02 0.  0.
          6    2    1    2  501    0 -0.33434028672E+02  0.14249981536E+02 -0.21046292752E+03  0.27401686025E+03  0.17166740983E+03 0.  0.
         24    2    5    5    0    0 -0.72113164012E+01  0.22547153893E+02 -0.45036955559E+01  0.66176130515E+02  0.61632943653E+02 0.  0.
          5    1    5    5  501    0 -0.26222712271E+02 -0.82971723568E+01 -0.20595923196E+03  0.20784072974E+03  0.47000000000E+01 0. -1.
        -11    1    6    6    0    0  0.24792222637E+02  0.21752107408E+02 -0.80981027401E+01  0.33961562802E+02  0.00000000000E+00 0.  1.
         12    1    6    6    0    0 -0.32003539038E+02  0.79504648470E+00  0.35944071842E+01  0.32214567713E+02  0.00000000000E+00 0. -1.
         -5    1    3    3    0  503 -0.10050158685E+02  0.54884153122E+02 -0.11723364916E+03  0.12991956915E+03  0.47000000000E+01 0.  1.
         13    1    4    4    0    0  0.54700694125E+02 -0.16345311289E+02 -0.26226171689E+03  0.26840369462E+03  0.00000000000E+00 0. -1.
        -14    1    4    4    0    0 -0.11216506768E+02 -0.52788823368E+02 -0.17458922995E+03  0.18273989469E+03  0.00000000000E+00 0.  1.
</event>
<event>
12    1  0.1594973E-001  0.2945273E+03  0.7818608E-02  0.1088019E+00
         21   -1    0    0  501  502  0.00000000000E+00  0.00000000000E+00  0.12760967349E+03  0.12760967349E+03  0.00000000000E+00 0. -1.
         21   -1    0    0  502  503 -0.00000000000E+00 -0.00000000000E+00 -0.68121622598E+03  0.68121622598E+03  0.00000000000E+00 0.  1.
         -6    2    1    2    0  503 -0.22205251288E+03 -0.88960559998E+02 -0.25708703570E+03  0.39089031380E+03  0.17169797257E+03 0.  0.
        -24    2    3    3    0    0 -0.12413360753E+03 -0.92990774187E+02 -0.88941565723E+02  0.19621277600E+03  0.80823355218E+02 0.  0.
          6    2    1    2  501    0  0.22205251288E+03  0.88960559998E+02 -0.29651951679E+03  0.41793558567E+03  0.17182849071E+03 0.  0.
         24    2    5    5    0    0  0.17152960010E+03  0.79994919904E+02 -0.12758769294E+03  0.24132018847E+03  0.78327664676E+02 0.  0.
          5    1    5    5  501    0  0.50522912785E+02  0.89656400940E+01 -0.16893182385E+03  0.17661539720E+03  0.47000000000E+01 0. -1.
        -11    1    6    6    0    0  0.10419160628E+03  0.55737536731E+02 -0.12150613476E+03  0.16948836126E+03  0.00000000000E+00 0.  1.
         12    1    6    6    0    0  0.67337993822E+02  0.24257383173E+02 -0.60815581818E+01  0.71831827210E+02  0.00000000000E+00 0. -1.
         -5    1    3    3    0  503 -0.97918905350E+02  0.40302141885E+01 -0.16814546997E+03  0.19467753780E+03  0.47000000000E+01 0.  1.
         13    1    4    4    0    0 -0.46680846849E+02 -0.77009838468E+02 -0.22248809103E+02  0.92761124346E+02  0.00000000000E+00 0. -1.
        -14    1    4    4    0    0 -0.77452760683E+02 -0.15980935719E+02 -0.66692756620E+02  0.10345165165E+03  0.00000000000E+00 0.  1.
</event>
<event>
12    1  0.1594973E-001  0.1821386E+03  0.7818608E-02  0.1167428E+00
         21   -1    0    0  501  502  0.00000000000E+00  0.00000000000E+00  0.96243862640E+02  0.96243862640E+02  0.00000000000E+00 0. -1.
         21   -1    0    0  502  503 -0.00000000000E+00 -0.00000000000E+00 -0.41073094603E+03  0.41073094603E+03  0.00000000000E+00 0. -1.
         -6    2    1    2    0  503  0.25902315449E+02 -0.49232658146E+02 -0.43650961977E+02  0.18059057324E+03  0.16617088821E+03 0.  0.
        -24    2    3    3    0    0  0.34330821032E+02 -0.80565290262E+02  0.12703766615E+02  0.11539303512E+03  0.74059405886E+02 0.  0.
          6    2    1    2  501    0 -0.25902315449E+02  0.49232658146E+02 -0.27083612142E+03  0.32638423544E+03  0.17343494430E+03 0.  0.
         24    2    5    5    0    0  0.27469924908E+02  0.53903132928E+02 -0.80610743079E+02  0.12870218279E+03  0.80037587676E+02 0.  0.
          5    1    5    5  501    0 -0.53372240357E+02 -0.46704747821E+01 -0.19022537834E+03  0.19768205265E+03  0.47000000000E+01 0. -1.
        -13    1    6    6    0    0  0.23514520755E+02 -0.15104154096E+02 -0.39145133030E+02  0.48097916766E+02  0.00000000000E+00 0.  1.
         14    1    6    6    0    0  0.39554041531E+01  0.69007287024E+02 -0.41465610049E+02  0.80604266023E+02  0.00000000000E+00 0. -1.
         -5    1    3    3    0  503 -0.84285055833E+01  0.31332632117E+02 -0.56354728593E+02  0.65197538117E+02  0.47000000000E+01 0.  1.
         11    1    4    4    0    0  0.50550568292E+01 -0.13256270022E+02 -0.28053053314E+02  0.31436540755E+02  0.00000000000E+00 0. -1.
        -12    1    4    4    0    0  0.29275764203E+02 -0.67309020240E+02  0.40756819929E+02  0.83956494365E+02  0.00000000000E+00 0.  1.
</event>
<event>
12    1  0.1594973E-001  0.2565681E+03  0.7818608E-02  0.1110100E+00
         21   -1    0    0  501  502  0.00000000000E+00  0.00000000000E+00  0.74289835319E+03  0.74289835319E+03  0.00000000000E+00 0.  1.
         21   -1    0    0  502  503 -0.00000000000E+00 -0.00000000000E+00 -0.88061388453E+02  0.88061388453E+02  0.00000000000E+00 0. -1.
         -6    2    1    2    0  503 -0.11193223949E+03 -0.14508276237E+03  0.37621519442E+03  0.45220222609E+03  0.17138012310E+03 0.  0.
        -24    2    3    3    0    0  0.52538085969E+01 -0.27966433363E+02  0.15264837039E+03  0.17389840076E+03  0.78290516049E+02 0.  0.
          6    2    1    2  501    0  0.11193223949E+03  0.14508276237E+03  0.27862177032E+03  0.37875751555E+03  0.17958098596E+03 0.  0.
         24    2    5    5    0    0  0.10275214264E+03  0.16742757944E+03  0.18416334229E+03  0.28114578647E+03  0.80850599466E+02 0.  0.
          5    1    5    5  501    0  0.91800968485E+01 -0.22344817068E+02  0.94458428030E+02  0.97611729079E+02  0.47000000000E+01 0. -1.
        -13    1    6    6    0    0  0.19424177222E+01 -0.81053921278E+01  0.14540207158E+01  0.84607650006E+01  0.00000000000E+00 0.  1.
         14    1    6    6    0    0  0.10080972492E+03  0.17553297157E+03  0.18270932157E+03  0.27268502147E+03  0.00000000000E+00 0. -1.
         -5    1    3    3    0  503 -0.11718604809E+03 -0.11711632901E+03  0.22356682403E+03  0.27830382533E+03  0.47000000000E+01 0.  1.
         13    1    4    4    0    0 -0.31036259533E+02  0.70038741455E+01  0.45871827925E+02  0.55825874432E+02  0.00000000000E+00 0. -1.
        -14    1    4    4    0    0  0.36290068130E+02 -0.34970307508E+02  0.10677654247E+03  0.11807252633E+03  0.00000000000E+00 0.  1.
</event>
<event>
12    1  0.1594973E-001  0.2375193E+03  0.7818608E-02  0.1121599E+00
         21   -1    0    0  501  502  0.00000000000E+00  0.00000000000E+00  0.12464408670E+03  0.12464408670E+03  0.00000000000E+00 0.  1.
         21   -1    0    0  502  503 -0.00000000000E+00 -0.00000000000E+00 -0.86095952990E+03  0.86095952990E+03  0.00000000000E+00 0. -1.
         -6    2    1    2    0  503 -0.70649648526E+02  0.14711297209E+03 -0.70786890801E+03  0.74638689751E+03  0.17141006521E+03 0.  0.
        -24    2    3    3    0    0 -0.15295183845E+01  0.12173704576E+02 -0.17486150830E+03  0.19221618694E+03  0.78866830338E+02 0.  0.
          6    2    1    2  501    0  0.70649648526E+02 -0.14711297209E+03 -0.28446535185E+02  0.23921671909E+03  0.17257414040E+03 0.  0.
         24    2    5    5    0    0  0.39634324456E+02 -0.15928203011E+03  0.18456056926E+02  0.18149341836E+03  0.75216953420E+02 0.  0.
          5    1    5    5  501    0  0.31015324070E+02  0.12169058016E+02 -0.46902592111E+02  0.57723300728E+02  0.47000000000E+01 0. -1.
        -11    1    6    6    0    0  0.27704188850E+02 -0.12322723148E+03  0.46172018310E+02  0.13447798307E+03  0.00000000000E+00 0.  1.
         12    1    6    6    0    0  0.11930135606E+02 -0.36054798631E+02 -0.27715961384E+02  0.47015435288E+02  0.00000000000E+00 0. -1.
         -5    1    3    3    0  503 -0.69120130142E+02  0.13493926752E+03 -0.53300739971E+03  0.55417071057E+03  0.47000000000E+01 0.  1.
         13    1    4    4    0    0 -0.22412167080E+02 -0.15559261404E+02 -0.14136889549E+03  0.14397763875E+03  0.00000000000E+00 0. -1.
        -14    1    4    4    0    0  0.20882648695E+02  0.27732965979E+02 -0.33492612812E+02  0.48238548191E+02  0.00000000000E+00 0.  1.
</event>
<event>
12    1  0.1594973E-001  0.1731021E+03  0.7818608E-02  0.1175250E+00
         21   -1    0    0  503  502  0.00000000000E+00  0.00000000000E+00  0.25941665533E+03  0.25941665533E+03  0.00000000000E+00 0.  1.
         21   -1    0    0  501  503 -0.00000000000E+00 -0.00000000000E+00 -0.13034223023E+03  0.13034223023E+03  0.00000000000E+00 0.  1.
          6    2    1    2  501    0 -0.21066032920E+02 -0.92155045787E+01  0.13402107592E+03  0.21892007771E+03  0.17156820325E+03 0.  0.
         24    2    3    3    0    0 -0.54562238432E+02 -0.59317131052E+02  0.67772534215E+02  0.12923658962E+03  0.74922758910E+02 0.  0.
         -6    2    1    2    0  502  0.21066032920E+02  0.92155045787E+01 -0.49466508234E+01  0.17083880785E+03  0.16921207299E+03 0.  0.
        -24    2    5    5    0    0  0.53088546495E+02 -0.32871773120E+02  0.31969981904E+02  0.10617267999E+03  0.79696994907E+02 0.  0.
          5    1    3    3  501    0  0.33496205512E+02  0.50101626473E+02  0.66248541709E+02  0.89683488099E+02  0.47000000000E+01 0. -1.
        -13    1    4    4    0    0  0.14785400278E+02 -0.10938257250E+02  0.33063682632E+02  0.37834648700E+02  0.00000000000E+00 0.  1.
         14    1    4    4    0    0 -0.69347638710E+02 -0.48378873802E+02  0.34708851583E+02  0.91401940916E+02  0.00000000000E+00 0. -1.
         -5    1    5    5    0  502 -0.32022513576E+02  0.42087277699E+02 -0.36916632727E+02  0.64666127855E+02  0.47000000000E+01 0.  1.
         13    1    6    6    0    0  0.19839404572E+02 -0.41777203012E+02  0.49331887751E+02  0.67620794245E+02  0.00000000000E+00 0. -1.
        -14    1    6    6    0    0  0.33249141923E+02  0.89054298916E+01 -0.17361905847E+02  0.38551885750E+02  0.00000000000E+00 0.  1.
</event>
<event>
12    1  0.1594973E-001  0.2582676E+03  0.7818608E-02  0.1108320E+00
         21   -1    0    0  501  502  0.00000000000E+00  0.00000000000E+00  0.74722306639E+03  0.74722306639E+03  0.00000000000E+00 0.  1.
         21   -1    0    0  502  503 -0.00000000000E+00 -0.00000000000E+00 -0.88968587744E+02  0.88968587744E+02  0.00000000000E+00 0. -1.
         -6    2    1    2    0  503 -0.89696417914E+02  0.16959482772E+03  0.32904997293E+03  0.41830137467E+03  0.17289968879E+03 0.  0.
        -24    2    3    3    0    0 -0.52746220292E+02  0.81083056836E+02  0.28829732768E+03  0.31398206301E+03  0.78184147273E+02 0.  0.
          6    2    1    2  501    0  0.89696417914E+02 -0.16959482772E+03  0.32920450571E+03  0.41789027947E+03  0.17160660278E+03 0.  0.
         24    2    5    5    0    0  0.39504443472E+02 -0.10100128074E+03  0.29785501789E+03  0.32717539991E+03  0.81020187977E+02 0.  0.
          5    1    5    5  501    0  0.50191974442E+02 -0.68593546983E+02  0.31349487817E+02  0.90714879554E+02  0.47000000000E+01 0. -1.
        -13    1    6    6    0    0  0.61812746233E+02 -0.88986430951E+02  0.25945041811E+03  0.28116528938E+03  0.00000000000E+00 0.  1.
         14    1    6    6    0    0 -0.22308302761E+02 -0.12014849784E+02  0.38404599779E+02  0.46010110537E+02  0.00000000000E+00 0. -1.
         -5    1    3    3    0  503 -0.36950197622E+02  0.88511770881E+02  0.40752645253E+02  0.10431931165E+03  0.47000000000E+01 0.  1.
         11    1    4    4    0    0  0.11186829184E+02 -0.75916647871E+01  0.50185753100E+02  0.51974881776E+02  0.00000000000E+00 0. -1.
        -12    1    4    4    0    0 -0.63933049476E+02  0.88674721623E+02  0.23811157458E+03  0.26200718124E+03  0.00000000000E+00 0.  1.
</event>
<event>
12    1  0.1594973E-001  0.2488045E+03  0.7818608E-02  0.1114074E+00
         21   -1    0    0  501  502  0.00000000000E+00  0.00000000000E+00  0.15506128110E+03  0.15506128110E+03  0.00000000000E+00 0.  1.
         21   -1    0    0  502  503 -0.00000000000E+00 -0.00000000000E+00 -0.54976207568E+03  0.54976207568E+03  0.00000000000E+00 0. -1.
         -6    2    1    2    0  503  0.13381162496E+03 -0.11987662875E+03 -0.38185346238E+03  0.45575840264E+03  0.17212698149E+03 0.  0.
        -24    2    3    3    0    0  0.73075073284E+02 -0.32087249514E+01 -0.23388550283E+03  0.25772573984E+03  0.79811442095E+02 0.  0.
          6    2    1    2  501    0 -0.13381162496E+03  0.11987662875E+03 -0.12847332198E+02  0.24906495413E+03  0.17202424346E+03 0.  0.
         24    2    5    5    0    0 -0.14077912581E+03  0.98288560225E+02  0.40454541999E+02  0.19094636361E+03  0.73106364111E+02 0.  0.
          5    1    5    5  501    0  0.69675008568E+01  0.21588068526E+02 -0.53301874197E+02  0.58118590517E+02  0.47000000000E+01 0. -1.
        -13    1    6    6    0    0 -0.64357039059E+02  0.39447980684E+02  0.55012417111E+02  0.93404163145E+02  0.00000000000E+00 0.  1.
         14    1    6    6    0    0 -0.76422086753E+02  0.58840579541E+02 -0.14557875113E+02  0.97542200468E+02  0.00000000000E+00 0. -1.
         -5    1    3    3    0  503  0.60736551671E+02 -0.11666790380E+03 -0.14796795955E+03  0.19803266281E+03  0.47000000000E+01 0.  1.
         13    1    4    4    0    0  0.51450714935E+02 -0.40055743059E+02 -0.15100564457E+03  0.16448204556E+03  0.00000000000E+00 0. -1.
        -14    1    4    4    0    0  0.21624358349E+02  0.36847018107E+02 -0.82879858256E+02  0.93243694275E+02  0.00000000000E+00 0.  1.
</event>
<event>
12    1  0.1594973E-001  0.2286812E+03  0.7818608E-02  0.1129960E+00
         21   -1    0    0  501  502  0.00000000000E+00  0.00000000000E+00  0.65772043881E+03  0.65772043881E+03  0.00000000000E+00 0.  1.
         21   -1    0    0  502  503 -0.00000000000E+00 -0.00000000000E+00 -0.19691101742E+03  0.19691101742E+03  0.00000000000E+00 0. -1.
         -6    2    1    2    0  503  0.58924750043E+02 -0.11593192887E+03 -0.10830178574E+03  0.24129416092E+03  0.17199202597E+03 0.  0.
        -24    2    3    3    0    0  0.40030034184E+02 -0.11589787501E+03 -0.14099676120E+03  0.20324073969E+03  0.79949925154E+02 0.  0.
          6    2    1    2  501    0 -0.58924750043E+02  0.11593192887E+03  0.56911120713E+03  0.61333729531E+03  0.18810298625E+03 0.  0.
         24    2    5    5    0    0 -0.40960311431E+02  0.14263414906E+03  0.32374663920E+03  0.36582650602E+03  0.83635509953E+02 0.  0.
          5    1    5    5  501    0 -0.17964438612E+02 -0.26702220184E+02  0.24536456794E+03  0.24751078929E+03  0.47000000000E+01 0. -1.
        -11    1    6    6    0    0 -0.63685005970E+02  0.72025909019E+02  0.18591394779E+03  0.20930243080E+03  0.00000000000E+00 0.  1.
         12    1    6    6    0    0  0.22724694539E+02  0.70608240036E+02  0.13783269141E+03  0.15652407522E+03  0.00000000000E+00 0. -1.
         -5    1    3    3    0  503  0.18894715859E+02 -0.34053865917E-01  0.32694975459E+02  0.38053421231E+02  0.47000000000E+01 0.  1.
         11    1    4    4    0    0  0.86258913667E+01 -0.11127103943E+03 -0.90924811172E+02  0.14395475506E+03  0.00000000000E+00 0. -1.
        -12    1    4    4    0    0  0.31404142817E+02 -0.46268355739E+01 -0.50071950026E+02  0.59285984625E+02  0.00000000000E+00 0.  1.
</event>
<event>
12    1  0.1594973E-001  0.2029507E+03  0.7818608E-02  0.1147729E+00
         21   -1    0    0  501  502  0.00000000000E+00  0.00000000000E+00  0.12107821437E+04  0.12107821437E+04  0.00000000000E+00 0. -1.
         21   -1    0    0  502  503 -0.00000000000E+00 -0.00000000000E+00 -0.34459147054E+02  0.34459147054E+02  0.00000000000E+00 0. -1.
         -6    2    1    2    0  503 -0.42225620878E+02  0.94552122824E+02  0.48977261405E+03  0.52932200178E+03  0.17199261935E+03 0.  0.
        -24    2    3    3    0    0 -0.58522297747E+02  0.72141006670E+02  0.17103065475E+03  0.20934330496E+03  0.77097018683E+02 0.  0.
          6    2    1    2  501    0  0.42225620878E+02 -0.94552122824E+02  0.68655038258E+03  0.71591928895E+03  0.17454481799E+03 0.  0.
         24    2    5    5    0    0 -0.77759618963E+01 -0.38601938826E+02  0.57002144373E+03  0.57724101034E+03  0.82049755893E+02 0.  0.
          5    1    5    5  501    0  0.50001582775E+02 -0.55950183998E+02  0.11652893885E+03  0.13867827861E+03  0.47000000000E+01 0. -1.
        -13    1    6    6    0    0 -0.26247057294E+02  0.15364190810E+02  0.12848318756E+03  0.13203369215E+03  0.00000000000E+00 0.  1.
         14    1    6    6    0    0  0.18471095398E+02 -0.53966129636E+02  0.44153825617E+03  0.44520731820E+03  0.00000000000E+00 0. -1.
         -5    1    3    3    0  503  0.16296676868E+02  0.22411116154E+02  0.31874195929E+03  0.31997869682E+03  0.47000000000E+01 0.  1.
         13    1    4    4    0    0 -0.34976694100E+02  0.86289294164E+02  0.12771081569E+03  0.15804829598E+03  0.00000000000E+00 0. -1.
        -14    1    4    4    0    0 -0.23545603646E+02 -0.14148287494E+02  0.43319839065E+02  0.51295008984E+02  0.00000000000E+00 0.  1.
</event>
<event>
12    1  0.1594973E-001  0.2251724E+03  0.7818608E-02  0.1130384E+00
         21   -1    0    0  501  502  0.00000000000E+00  0.00000000000E+00  0.86131891193E+02  0.86131891193E+02  0.00000000000E+00 0. -1.
         21   -1    0    0  502  503 -0.00000000000E+00 -0.00000000000E+00 -0.73383363571E+03  0.73383363571E+03  0.00000000000E+00 0. -1.
         -6    2    1    2    0  503  0.12845514257E+03 -0.64661449846E+02 -0.50983568900E+03  0.55734642871E+03  0.17326507168E+03 0.  0.
        -24    2    3    3    0    0  0.11171335142E+03 -0.11001770907E+03 -0.38284146049E+03  0.42137914626E+03  0.80056429069E+02 0.  0.
          6    2    1    2  501    0 -0.12845514257E+03  0.64661449846E+02 -0.13786605552E+03  0.26261909820E+03  0.17111374791E+03 0.  0.
         24    2    5    5    0    0 -0.13365549323E+03 -0.26972866964E+01 -0.92633223447E+02  0.18117990534E+03  0.79838448062E+02 0.  0.
          5    1    5    5  501    0  0.52003506543E+01  0.67358736542E+02 -0.45232832071E+02  0.81439192853E+02  0.47000000000E+01 0. -1.
        -11    1    6    6    0    0 -0.24182231291E+01 -0.50970641215E+01 -0.38967439919E+02  0.39373712545E+02  0.00000000000E+00 0.  1.
         12    1    6    6    0    0 -0.13123727010E+03  0.23997774251E+01 -0.53665783528E+02  0.14180619280E+03  0.00000000000E+00 0. -1.
         -5    1    3    3    0  503  0.16741791149E+02  0.45356259224E+02 -0.12699422851E+03  0.13596728245E+03  0.47000000000E+01 0.  1.
         13    1    4    4    0    0  0.10912036788E+03 -0.11208534181E+03 -0.29878993564E+03  0.33726221872E+03  0.00000000000E+00 0. -1.
        -14    1    4    4    0    0  0.25929835453E+01  0.20676327455E+01 -0.84051524850E+02  0.84116927538E+02  0.00000000000E+00 0.  1.
</event>
<event>
12    1  0.1594973E-001  0.2206219E+03  0.7818608E-02  0.1133871E+00
         21   -1    0    0  501  502  0.00000000000E+00  0.00000000000E+00  0.18221433716E+04  0.18221433716E+04  0.00000000000E+00 0.  1.
         21   -1    0    0  502  503 -0.00000000000E+00 -0.00000000000E+00 -0.33918437475E+02  0.33918437475E+02  0.00000000000E+00 0.  1.
         -6    2    1    2    0  503  0.67074539011E+01 -0.13318384749E+03  0.46163789808E+03  0.51164790319E+03  0.17575864338E+03 0.  0.
        -24    2    3    3    0    0  0.31174975683E+02 -0.30215910781E+02  0.33252701103E+03  0.34463662582E+03  0.79468927396E+02 0.  0.
          6    2    1    2  501    0 -0.67074539011E+01  0.13318384749E+03  0.13265870361E+04  0.13444139059E+04  0.17272133327E+03 0.  0.
         24    2    5    5    0    0 -0.60821224331E+02  0.52235233324E+02  0.88795512834E+03  0.89507993349E+03  0.79221439484E+02 0.  0.
          5    1    5    5  501    0  0.54113770430E+02  0.80948614168E+02  0.43863190772E+03  0.44933397241E+03  0.47000000000E+01 0. -1.
        -13    1    6    6    0    0  0.17557932448E+02  0.23266236826E+02  0.22740716362E+03  0.22926756603E+03  0.00000000000E+00 0.  1.
         14    1    6    6    0    0 -0.78379156778E+02  0.28968996498E+02  0.66054796472E+03  0.66581236746E+03  0.00000000000E+00 0. -1.
         -5    1    3    3    0  503 -0.24467521782E+02 -0.10296793671E+03  0.12911088705E+03  0.16701127736E+03  0.47000000000E+01 0.  1.
         13    1    4    4    0    0  0.55376221766E+02 -0.20971482732E+02  0.16907595401E+03  0.17914521275E+03  0.00000000000E+00 0. -1.
        -14    1    4    4    0    0 -0.24201246083E+02 -0.92444280494E+01  0.16345105702E+03  0.16549141308E+03  0.00000000000E+00 0.  1.
</event>
<event>
12    1  0.1594973E-001  0.2035706E+03  0.7818608E-02  0.1147112E+00
         21   -1    0    0  501  502  0.00000000000E+00  0.00000000000E+00  0.71733650741E+03  0.71733650741E+03  0.00000000000E+00 0.  1.
         21   -1    0    0  502  503 -0.00000000000E+00 -0.00000000000E+00 -0.57442708528E+02  0.57442708528E+02  0.00000000000E+00 0.  1.
         -6    2    1    2    0  503 -0.51899066470E+02 -0.96712613749E+02  0.30867854798E+03  0.36883199645E+03  0.16943362378E+03 0.  0.
        -24    2    3    3    0    0 -0.51083579083E+02 -0.54225486333E+02  0.30737624004E+03  0.32605809060E+03  0.79270360708E+02 0.  0.
          6    2    1    2  501    0  0.51899066470E+02  0.96712613749E+02  0.35121525090E+03  0.40594721948E+03  0.17144722156E+03 0.  0.
         24    2    5    5    0    0 -0.13947510923E+01  0.32115759126E+01  0.19259657781E+03  0.21420612185E+03  0.93693976886E+02 0.  0.
          5    1    5    5  501    0  0.53293817562E+02  0.93501037837E+02  0.15861867309E+03  0.19174109763E+03  0.47000000000E+01 0. -1.
        -11    1    6    6    0    0  0.30064096630E+02  0.18652179730E+02  0.25851671688E+02  0.43818519417E+02  0.00000000000E+00 0.  1.
         12    1    6    6    0    0 -0.31458847722E+02 -0.15440603817E+02  0.16674490612E+03  0.17038760244E+03  0.00000000000E+00 0. -1.
         -5    1    3    3    0  503 -0.81548738666E+00 -0.42487127416E+02  0.13023079370E+01  0.42773905850E+02  0.47000000000E+01 0.  1.
         11    1    4    4    0    0  0.14219339895E+02  0.98359183554E+01  0.50841226736E+02  0.53700700675E+02  0.00000000000E+00 0. -1.
        -12    1    4    4    0    0 -0.65302918978E+02 -0.64061404689E+02  0.25653501330E+03  0.27235738993E+03  0.00000000000E+00 0.  1.
</event>
<event>
12    1  0.1594973E-001  0.1965915E+03  0.7818608E-02  0.1152842E+00
         21   -1    0    0  503  502  0.00000000000E+00  0.00000000000E+00  0.26186883648E+03  0.26186883648E+03  0.00000000000E+00 0. -1.
         21   -1    0    0  501  503 -0.00000000000E+00 -0.00000000000E+00 -0.15992123543E+03  0.15992123543E+03  0.00000000000E+00 0. -1.
          6    2    1    2  501    0 -0.44118317349E+02  0.82316496625E+02 -0.90704886759E+01  0.19680065328E+03  0.17299072757E+03 0.  0.
         24    2    3    3    0    0 -0.69740525985E+02 -0.25436821629E+01 -0.18805738467E+02  0.10749996679E+03  0.79576226204E+02 0.  0.
         -6    2    1    2    0  502  0.44118317349E+02 -0.82316496625E+02  0.11101808973E+03  0.22498941863E+03  0.17196741175E+03 0.  0.
        -24    2    5    5    0    0 -0.35060710124E+02 -0.74913000247E+02  0.57329635154E+02  0.12892345012E+03  0.80581374549E+02 0.  0.
          5    1    3    3  501    0  0.25622208636E+02  0.84860178787E+02  0.97352497911E+01  0.89300686491E+02  0.47000000000E+01 0. -1.
        -11    1    4    4    0    0 -0.85614936876E+02  0.45574408193E+01 -0.60813077638E+01  0.85951556049E+02  0.00000000000E+00 0.  1.
         12    1    4    4    0    0  0.15874410891E+02 -0.71011229822E+01 -0.12724430703E+02  0.21548410741E+02  0.00000000000E+00 0. -1.
         -5    1    5    5    0  502  0.79179027473E+02 -0.74034963773E+01  0.53688454580E+02  0.96065968508E+02  0.47000000000E+01 0.  1.
         11    1    6    6    0    0 -0.29793295939E+02 -0.88651223018E+02  0.63420360565E+02  0.11299921221E+03  0.00000000000E+00 0. -1.
        -12    1    6    6    0    0 -0.52674141852E+01  0.13738222771E+02 -0.60907254116E+01  0.15924237914E+02  0.00000000000E+00 0.  1.
</event>
<event>
12    1  0.1594973E-001  0.2090724E+03  0.7818608E-02  0.1142602E+00
         21   -1    0    0  501  502  0.00000000000E+00  0.00000000000E+00  0.95115352711E+03  0.95115352711E+03  0.00000000000E+00 0.  1.
         21   -1    0    0  502  503 -0.00000000000E+00 -0.00000000000E+00 -0.46430072116E+02  0.46430072116E+02  0.00000000000E+00 0.  1.
         -6    2    1    2    0  503 -0.93097646903E+02 -0.70406243656E+02  0.38517228456E+03  0.43754370517E+03  0.17164671316E+03 0.  0.
        -24    2    3    3    0    0  0.23893548044E+02 -0.17991949357E+02  0.15925841597E+03  0.17774885541E+03  0.73053409660E+02 0.  0.
          6    2    1    2  501    0  0.93097646903E+02  0.70406243656E+02  0.51955117044E+03  0.56003989405E+03  0.17345619973E+03 0.  0.
         24    2    5    5    0    0  0.75532190491E+01  0.73567218379E+02  0.38728368619E+03  0.40241813703E+03  0.80514077557E+02 0.  0.
          5    1    5    5  501    0  0.85544427854E+02 -0.31609747228E+01  0.13226748425E+03  0.15762175702E+03  0.47000000000E+01 0. -1.
        -13    1    6    6    0    0  0.40918273138E+02  0.42734922455E+02  0.27499102223E+03  0.28128391525E+03  0.00000000000E+00 0.  1.
         14    1    6    6    0    0 -0.33365054089E+02  0.30832295924E+02  0.11229266397E+03  0.12113422178E+03  0.00000000000E+00 0. -1.
         -5    1    3    3    0  503 -0.11699119495E+03 -0.52414294299E+02  0.22591386859E+03  0.25979484976E+03  0.47000000000E+01 0.  1.
         13    1    4    4    0    0 -0.55915145515E+01  0.74558723191E+01  0.12653743561E+03  0.12688017054E+03  0.00000000000E+00 0. -1.
        -14    1    4    4    0    0  0.29485062596E+02 -0.25447821676E+02  0.32720980364E+02  0.50868684869E+02  0.00000000000E+00 0.  1.
</event>
<event>
12    1  0.1594973E-001  0.1943565E+03  0.7818608E-02  0.1155070E+00
         21   -1    0    0  501  502  0.00000000000E+00  0.00000000000E+00  0.65505330869E+02  0.65505330869E+02  0.00000000000E+00 0.  1.
         21   -1    0    0  502  503 -0.00000000000E+00 -0.00000000000E+00 -0.73808655663E+03  0.73808655663E+03  0.00000000000E+00 0. -1.
         -6    2    1    2    0  503  0.78701777749E+02  0.34202295301E+02 -0.52644523928E+03  0.56042491031E+03  0.17195267755E+03 0.  0.
        -24    2    3    3    0    0  0.43281317359E+02  0.85655106178E+02 -0.40556736779E+03  0.42427958143E+03  0.79487129495E+02 0.  0.
          6    2    1    2  501    0 -0.78701777749E+02 -0.34202295301E+02 -0.14613598648E+03  0.24316697719E+03  0.17438659760E+03 0.  0.
         24    2    5    5    0    0  0.44489883838E+01  0.33124769904E+02 -0.68145590507E+02  0.11068461805E+03  0.80561897250E+02 0.  0.
          5    1    5    5  501    0 -0.83150766132E+02 -0.67327065205E+02 -0.77990395977E+02  0.13248235914E+03  0.47000000000E+01 0. -1.
        -11    1    6    6    0    0 -0.30175995189E+02 -0.31276529891E+01 -0.61470329102E+01  0.30954142089E+02  0.00000000000E+00 0.  1.
         12    1    6    6    0    0  0.34624983572E+02  0.36252422893E+02 -0.61998557597E+02  0.79730475962E+02  0.00000000000E+00 0. -1.
         -5    1    3    3    0  503  0.35420460389E+02 -0.51452810877E+02 -0.12087787148E+03  0.13614532888E+03  0.47000000000E+01 0.  1.
         11    1    4    4    0    0  0.18878644401E+01  0.26606700991E+02 -0.26457467344E+03  0.26591584834E+03  0.00000000000E+00 0. -1.
        -12    1    4    4    0    0  0.41393452919E+02  0.59048405187E+02 -0.14099269435E+03  0.15836373310E+03  0.00000000000E+00 0.  1.
</event>
<event>
12    1  0.1594973E-001  0.1918002E+03  0.7818608E-02  0.1156894E+00
         21   -1    0    0  503  502  0.00000000000E+00  0.00000000000E+00  0.25649009756E+03  0.25649009756E+03  0.00000000000E+00 0. -1.
         21   -1    0    0  501  503 -0.00000000000E+00 -0.00000000000E+00 -0.15386184855E+03  0.15386184855E+03  0.00000000000E+00 0.  1.
          6    2    1    2  501    0 -0.67880074741E+02 -0.39673492677E+02 -0.25464281550E+01  0.19160774804E+03  0.17471506588E+03 0.  0.
         24    2    3    3    0    0 -0.44193431121E+02  0.45471753969E+02  0.12151987810E+02  0.10189206633E+03  0.78826281217E+02 0.  0.
         -6    2    1    2    0  502  0.67880074741E+02  0.39673492677E+02  0.10517467716E+03  0.21874419807E+03  0.17494462240E+03 0.  0.
        -24    2    5    5    0    0  0.10499348622E+03  0.27985668814E+01  0.42916463228E+02  0.13728659765E+03  0.77293744604E+02 0.  0.
          5    1    3    3  501    0 -0.23686643620E+02 -0.85145246646E+02 -0.14698415965E+02  0.89715681708E+02  0.47000000000E+01 0. -1.
        -13    1    4    4    0    0 -0.87109016485E+01  0.15986694641E+02 -0.32777704303E+02  0.37494427752E+02  0.00000000000E+00 0.  1.
         14    1    4    4    0    0 -0.35482529473E+02  0.29485059328E+02  0.44929692113E+02  0.64397638581E+02  0.00000000000E+00 0. -1.
         -5    1    5    5    0  502 -0.37113411477E+02  0.36874925795E+02  0.62258213933E+02  0.81457600419E+02  0.47000000000E+01 0.  1.
         13    1    6    6    0    0  0.10141722555E+03 -0.65453434488E+01  0.59613019208E+02  0.11782193012E+03  0.00000000000E+00 0. -1.
        -14    1    6    6    0    0  0.35762606718E+01  0.93439103302E+01 -0.16696555979E+02  0.19464667534E+02  0.00000000000E+00 0.  1.
</event>
<event>
12    1  0.1594973E-001  0.1801761E+03  0.7818608E-02  0.1168235E+00
         21   -1    0    0  501  502  0.00000000000E+00  0.00000000000E+00  0.51417133160E+03  0.51417133160E+03  0.00000000000E+00 0.  1.
         21   -1    0    0  502  503 -0.00000000000E+00 -0.00000000000E+00 -0.72101675309E+02  0.72101675309E+02  0.00000000000E+00 0. -1.
         -6    2    1    2    0  503  0.45494560848E+02  0.25482582534E+02  0.11412996090E+03  0.21328164852E+03  0.17246534881E+03 0.  0.
        -24    2    3    3    0    0  0.32693184735E+02  0.65151468595E+02  0.13025449919E+03  0.16834183892E+03  0.77840747584E+02 0.  0.
          6    2    1    2  501    0 -0.45494560848E+02 -0.25482582534E+02  0.32793969540E+03  0.37299135839E+03  0.16987934701E+03 0.  0.
         24    2    5    5    0    0 -0.89111562419E+02 -0.43349413640E+02  0.26433523065E+03  0.29368634963E+03  0.80984662592E+02 0.  0.
          5    1    5    5  501    0  0.43617001572E+02  0.17866831106E+02  0.63604464748E+02  0.79305008768E+02  0.47000000000E+01 0. -1.
        -13    1    6    6    0    0 -0.24947263453E+02 -0.37064898418E+02  0.19048088499E+03  0.19565055633E+03  0.00000000000E+00 0.  1.
         14    1    6    6    0    0 -0.64164298966E+02 -0.62845152224E+01  0.73854345663E+02  0.98035793293E+02  0.00000000000E+00 0. -1.
         -5    1    3    3    0  503  0.12801376112E+02 -0.39668886061E+02 -0.16124538287E+02  0.44939809598E+02  0.47000000000E+01 0.  1.
         13    1    4    4    0    0 -0.16974099800E+02  0.27005451741E+02  0.11173670921E+02  0.33797417203E+02  0.00000000000E+00 0. -1.
        -14    1    4    4    0    0  0.49667284535E+02  0.38146016855E+02  0.11908082826E+03  0.13454442172E+03  0.00000000000E+00 0.  1.
</event>
<event>
12    1  0.1594973E-001  0.2219765E+03  0.7818608E-02  0.1132481E+00
         21   -1    0    0  501  502  0.00000000000E+00  0.00000000000E+00  0.14178598654E+03  0.14178598654E+03  0.00000000000E+00 0.  1.
         21   -1    0    0  502  503 -0.00000000000E+00 -0.00000000000E+00 -0.13969660446E+04  0.13969660446E+04  0.00000000000E+00 0.  1.
         -6    2    1    2    0  503 -0.13471884549E+03  0.36615945024E+02 -0.12947236756E+04  0.13136144634E+04  0.17257945277E+03 0.  0.
        -24    2    3    3    0    0 -0.10942715846E+03 -0.38765562369E+02 -0.79021794890E+03  0.80285996330E+03  0.81625008894E+02 0.  0.
          6    2    1    2  501    0  0.13471884549E+03 -0.36615945024E+02  0.39543617549E+02  0.22513756773E+03  0.17214334711E+03 0.  0.
         24    2    5    5    0    0 -0.22096487578E+01  0.39643113111E+01  0.22160500488E+02  0.81191631696E+02  0.77976887369E+02 0.  0.
          5    1    5    5  501    0  0.13692849425E+03 -0.40580256335E+02  0.17383117061E+02  0.14394593603E+03  0.47000000000E+01 0. -1.
        -11    1    6    6    0    0 -0.29712116125E+02 -0.21806976627E+02 -0.11529649365E+01  0.36873885100E+02  0.00000000000E+00 0.  1.
         12    1    6    6    0    0  0.27502467367E+02  0.25771287938E+02  0.23313465424E+02  0.44317746596E+02  0.00000000000E+00 0. -1.
         -5    1    3    3    0  503 -0.25291687029E+02  0.75381507393E+02 -0.50450572673E+03  0.51075450012E+03  0.47000000000E+01 0.  1.
         11    1    4    4    0    0  0.32406698441E+01 -0.26101048822E+02 -0.10045432098E+03  0.10384044151E+03  0.00000000000E+00 0. -1.
        -12    1    4    4    0    0 -0.11266782831E+03 -0.12664513547E+02 -0.68976362792E+03  0.69901952179E+03  0.00000000000E+00 0.  1.
</event>
<event>
12    1  0.1594973E-001  0.1841306E+03  0.7818608E-02  0.1165247E+00
         21   -1    0    0  501  502  0.00000000000E+00  0.00000000000E+00  0.62217625386E+02  0.62217625386E+02  0.00000000000E+00 0.  1.
         21   -1    0    0  502  503 -0.00000000000E+00 -0.00000000000E+00 -0.73083368740E+03  0.73083368740E+03  0.00000000000E+00 0.  1.
         -6    2    1    2    0  503 -0.11052829750E+02  0.26063322426E+02 -0.53936334865E+03  0.56808391833E+03  0.17608252208E+03 0.  0.
        -24    2    3    3    0    0  0.40936489358E+02 -0.28610941802E+02 -0.21243646521E+03  0.23253147595E+03  0.80294790667E+02 0.  0.
          6    2    1    2  501    0  0.11052829750E+02 -0.26063322426E+02 -0.12925271337E+03  0.22496739445E+03  0.18194120708E+03 0.  0.
         24    2    5    5    0    0  0.14937514971E+02  0.21581857639E+02 -0.15078402813E+03  0.17232861143E+03  0.79198618975E+02 0.  0.
          5    1    5    5  501    0 -0.38846852209E+01 -0.47645180064E+02  0.21531314760E+02  0.52638783021E+02  0.47000000000E+01 0. -1.
        -11    1    6    6    0    0 -0.17967887592E+02  0.57051666252E+00 -0.15176236626E+01  0.18040888431E+02  0.00000000000E+00 0.  1.
         12    1    6    6    0    0  0.32905402563E+02  0.21011340976E+02 -0.14926640446E+03  0.15428772300E+03  0.00000000000E+00 0. -1.
         -5    1    3    3    0  503 -0.51989319108E+02  0.54674264227E+02 -0.32692688344E+03  0.33555244238E+03  0.47000000000E+01 0.  1.
         11    1    4    4    0    0  0.35789791740E+02 -0.59892596986E+00 -0.19682342036E+03  0.20005181006E+03  0.00000000000E+00 0. -1.
        -12    1    4    4    0    0  0.51466976181E+01 -0.28012015832E+02 -0.15613044845E+02  0.32479665896E+02  0.00000000000E+00 0.  1.
</event>
<event>
12    1  0.1594973E-001  0.1722913E+03  0.7818608E-02  0.1175568E+00
         21   -1    0    0  501  502  0.00000000000E+00  0.00000000000E+00  0.71596922614E+03  0.71596922614E+03  0.00000000000E+00 0. -1.
         21   -1    0    0  502  503 -0.00000000000E+00 -0.00000000000E+00 -0.84790898929E+02  0.84790898929E+02  0.00000000000E+00 0. -1.
         -6    2    1    2    0  503 -0.35372659854E+01 -0.10195955744E+02  0.28943209942E+02  0.17436454562E+03  0.17160657214E+03 0.  0.
        -24    2    3    3    0    0 -0.73200634274E+01 -0.68845708317E+02 -0.83327411648E+01  0.10461005068E+03  0.77977645806E+02 0.  0.
          6    2    1    2  501    0  0.35372659854E+01  0.10195955744E+02  0.60223511727E+03  0.62639557945E+03  0.17195294624E+03 0.  0.
         24    2    5    5    0    0  0.59165751748E+02 -0.24550924430E+01  0.26520713929E+03  0.28454104111E+03  0.84392912514E+02 0.  0.
          5    1    5    5  501    0 -0.55628485763E+02  0.12651048187E+02  0.33702797798E+03  0.34185453835E+03  0.47000000000E+01 0. -1.
        -13    1    6    6    0    0  0.71033905709E+02 -0.25925702909E+02  0.21414443912E+03  0.22710305730E+03  0.00000000000E+00 0.  1.
         14    1    6    6    0    0 -0.11868153960E+02  0.23470610466E+02  0.51062700176E+02  0.57437983803E+02  0.00000000000E+00 0. -1.
         -5    1    3    3    0  503  0.37827974420E+01  0.58649752574E+02  0.37275951107E+02  0.69754494940E+02  0.47000000000E+01 0.  1.
         11    1    4    4    0    0  0.14409088542E+02 -0.51036383480E+02 -0.36850398567E+02  0.64577752716E+02  0.00000000000E+00 0. -1.
        -12    1    4    4    0    0 -0.21729151970E+02 -0.17809324837E+02  0.28517657402E+02  0.40032297963E+02  0.00000000000E+00 0.  1.
</event>
<event>
12    1  0.1594973E-001  0.2042504E+03  0.7818608E-02  0.1146896E+00
         21   -1    0    0  503  502  0.00000000000E+00  0.00000000000E+00  0.53091325782E+03  0.53091325782E+03  0.00000000000E+00 0.  1.
         21   -1    0    0  501  503 -0.00000000000E+00 -0.00000000000E+00 -0.94440916846E+02  0.94440916846E+02  0.00000000000E+00 0.  1.
          6    2    1    2  501    0 -0.35837737962E+02 -0.10112355054E+03  0.83526502126E+02  0.21756872277E+03  0.16985039486E+03 0.  0.
         24    2    3    3    0    0  0.39263070746E+02 -0.31546223092E+02  0.65429335880E+02  0.11349791327E+03  0.77871852467E+02 0.  0.
         -6    2    1    2    0  502  0.35837737962E+02  0.10112355054E+03  0.35294583885E+03  0.40778545190E+03  0.17380418201E+03 0.  0.
        -24    2    5    5    0    0  0.22030673289E+02  0.12979548313E+03  0.20885178120E+03  0.26014432551E+03  0.81998692535E+02 0.  0.
          5    1    3    3  501    0 -0.75100808709E+02 -0.69577327448E+02  0.18097166247E+02  0.10407080950E+03  0.47000000000E+01 0. -1.
        -11    1    4    4    0    0  0.46049797989E+02 -0.51437805035E+02  0.37570113900E+02  0.78599905471E+02  0.00000000000E+00 0.  1.
         12    1    4    4    0    0 -0.67867272427E+01  0.19891581943E+02  0.27859221980E+02  0.34898007797E+02  0.00000000000E+00 0. -1.
         -5    1    5    5    0  502  0.13807064674E+02 -0.28671932588E+02  0.14409405765E+03  0.14764112639E+03  0.47000000000E+01 0.  1.
         13    1    6    6    0    0  0.11644384594E+02 -0.35765434400E+01  0.70549341095E-01  0.12181474983E+02  0.00000000000E+00 0. -1.
        -14    1    6    6    0    0  0.10386288694E+02  0.13337202657E+03  0.20878123186E+03  0.24796285052E+03  0.00000000000E+00 0.  1.
</event>
<event>
12    1  0.1594973E-001  0.2705836E+03  0.7818608E-02  0.1101577E+00
         21   -1    0    0  501  502  0.00000000000E+00  0.00000000000E+00  0.76374198428E+02  0.76374198428E+02  0.00000000000E+00 0. -1.
         21   -1    0    0  502  503 -0.00000000000E+00 -0.00000000000E+00 -0.12770412517E+04  0.12770412517E+04  0.00000000000E+00 0. -1.
         -6    2    1    2    0  503  0.17332077129E+03  0.10550816935E+03 -0.94271030894E+03  0.97957434096E+03  0.17231105399E+03 0.  0.
        -24    2    3    3    0    0  0.96745471282E+02  0.92038124363E+02 -0.36499987639E+03  0.39663639181E+03  0.79150584288E+02 0.  0.
          6    2    1    2  501    0 -0.17332077129E+03 -0.10550816935E+03 -0.25795674429E+03  0.37384110913E+03  0.17900678586E+03 0.  0.
         24    2    5    5    0    0 -0.76790322537E+02 -0.73449694516E+02 -0.23517584579E+03  0.26950064391E+03  0.77661492139E+02 0.  0.
          5    1    5    5  501    0 -0.96530448755E+02 -0.32058474837E+02 -0.22780898497E+02  0.10434046522E+03  0.47000000000E+01 0. -1.
        -13    1    6    6    0    0 -0.64295264963E+01 -0.22919650862E+02 -0.60714624063E+01  0.24566478428E+02  0.00000000000E+00 0.  1.
         14    1    6    6    0    0 -0.70360796041E+02 -0.50530043653E+02 -0.22910438339E+03  0.24493416548E+03  0.00000000000E+00 0. -1.
         -5    1    3    3    0  503  0.76575300010E+02  0.13470044990E+02 -0.57771043255E+03  0.58293794916E+03  0.47000000000E+01 0.  1.
         11    1    4    4    0    0  0.10937841862E+03  0.74937234223E+02 -0.29383658209E+03  0.32236495546E+03  0.00000000000E+00 0. -1.
        -12    1    4    4    0    0 -0.12632947340E+02  0.17100890140E+02 -0.71163294293E+02  0.74271436345E+02  0.00000000000E+00 0.  1.
</event>
<event>
12    1  0.1594973E-001  0.2144422E+03  0.7818608E-02  0.1138784E+00
         21   -1    0    0  503  502  0.00000000000E+00  0.00000000000E+00  0.61676500931E+03  0.61676500931E+03  0.00000000000E+00 0. -1.
         21   -1    0    0  501  503 -0.00000000000E+00 -0.00000000000E+00 -0.96025220056E+02  0.96025220056E+02  0.00000000000E+00 0.  1.
          6    2    1    2  501    0 -0.43659102186E+02 -0.11417538526E+03  0.85470732355E+02  0.22756387630E+03  0.17186604059E+03 0.  0.
         24    2    3    3    0    0  0.20874794332E+02 -0.90800495422E+02  0.98869193430E+02  0.15747380544E+03  0.79639154836E+02 0.  0.
         -6    2    1    2    0  502  0.43659102186E+02  0.11417538526E+03  0.43526905690E+03  0.48522635306E+03  0.17619116326E+03 0.  0.
        -24    2    5    5    0    0  0.52207841352E+02  0.13374570602E+02  0.30717336879E+03  0.32193373079E+03  0.79883106405E+02 0.  0.
          5    1    3    3  501    0 -0.64533896518E+02 -0.23374889834E+02 -0.13398461075E+02  0.70090070864E+02  0.47000000000E+01 0. -1.
        -13    1    4    4    0    0 -0.93917125720E+01 -0.41527717190E+02 -0.41357770574E+00  0.42578475860E+02  0.00000000000E+00 0.  1.
         14    1    4    4    0    0  0.30266506904E+02 -0.49272778232E+02  0.99282771136E+02  0.11489532958E+03  0.00000000000E+00 0. -1.
         -5    1    5    5    0  502 -0.85487391665E+01  0.10080081465E+03  0.12809568811E+03  0.16329262227E+03  0.47000000000E+01 0.  1.
         11    1    6    6    0    0  0.42741856315E+02  0.39522500470E+01  0.56753271214E+02  0.71157714657E+02  0.00000000000E+00 0. -1.
        -12    1    6    6    0    0  0.94659850373E+01  0.94223205550E+01  0.25042009758E+03  0.25077601614E+03  0.00000000000E+00 0.  1.
</event>
<event>
12    1  0.1594973E-001  0.2373465E+03  0.7818608E-02  0.1121709E+00
         21   -1    0    0  501  502  0.00000000000E+00  0.00000000000E+00  0.17025696325E+03  0.17025696325E+03  0.00000000000E+00 0.  1.
         21   -1    0    0  502  503 -0.00000000000E+00 -0.00000000000E+00 -0.18867407880E+04  0.18867407880E+04  0.00000000000E+00 0.  1.
         -6    2    1    2    0  503  0.13768937473E+03 -0.89307004321E+02 -0.17928035102E+04  0.18084462337E+04  0.17146209213E+03 0.  0.
        -24    2    3    3    0    0  0.94396719345E+02 -0.82322111942E+02 -0.74122464706E+03  0.75594291392E+03  0.79674594185E+02 0.  0.
          6    2    1    2  501    0 -0.13768937473E+03  0.89307004321E+02  0.76319685398E+02  0.24855151761E+03  0.17034980948E+03 0.  0.
         24    2    5    5    0    0 -0.15083846289E+03  0.11893815409E+03  0.66156240714E+02  0.21425444538E+03  0.68042580746E+02 0.  0.
          5    1    5    5  501    0  0.13149088154E+02 -0.29631149765E+02  0.10163444684E+02  0.34297072230E+02  0.47000000000E+01 0. -1.
        -11    1    6    6    0    0 -0.79272719293E+01  0.39480617693E+02  0.13402285510E+02  0.42440335420E+02  0.00000000000E+00 0.  1.
         12    1    6    6    0    0 -0.14291119096E+03  0.79457536394E+02  0.52753955204E+02  0.17181410996E+03  0.00000000000E+00 0. -1.
         -5    1    3    3    0  503  0.43292655386E+02 -0.69848923795E+01 -0.10515788631E+04  0.10525033197E+04  0.47000000000E+01 0.  1.
         13    1    4    4    0    0  0.10106105693E+02  0.69029698041E+01 -0.22475691294E+03  0.22508988044E+03  0.00000000000E+00 0. -1.
        -14    1    4    4    0    0  0.84290613653E+02 -0.89225081746E+02 -0.51646773413E+03  0.53085303348E+03  0.00000000000E+00 0.  1.
</event>
<event>
12    1  0.1594973E-001  0.1990961E+03  0.7818608E-02  0.1150527E+00
         21   -1    0    0  503  502  0.00000000000E+00  0.00000000000E+00  0.19553890885E+03  0.19553890885E+03  0.00000000000E+00 0. -1.
         21   -1    0    0  501  503 -0.00000000000E+00 -0.00000000000E+00 -0.44062062576E+03  0.44062062576E+03  0.00000000000E+00 0. -1.
          6    2    1    2  501    0 -0.97362537494E+02  0.17138286463E+02 -0.35630327449E+03  0.40810363096E+03  0.17269442846E+03 0.  0.
         24    2    3    3    0    0 -0.78173361717E+02  0.76101334549E+02 -0.25819813138E+03  0.29195039333E+03  0.81647226019E+02 0.  0.
         -6    2    1    2    0  502  0.97362537494E+02 -0.17138286463E+02  0.11122155757E+03  0.22805590365E+03  0.17281804232E+03 0.  0.
        -24    2    5    5    0    0  0.39667965600E+02 -0.63911848384E+02  0.10808576949E+03  0.15356863704E+03  0.79009625093E+02 0.  0.
          5    1    3    3  501    0 -0.19189175777E+02 -0.58963048086E+02 -0.98105143111E+02  0.11615323763E+03  0.47000000000E+01 0. -1.
        -11    1    4    4    0    0 -0.32210684837E+02 -0.56893195467E+01 -0.26904495983E+02  0.42352667906E+02  0.00000000000E+00 0.  1.
         12    1    4    4    0    0 -0.45962676879E+02  0.81790654095E+02 -0.23129363539E+03  0.24959772542E+03  0.00000000000E+00 0. -1.
         -5    1    5    5    0  502  0.57694571894E+02  0.46773561922E+02  0.31357880841E+01  0.74487266615E+02  0.47000000000E+01 0.  1.
         13    1    6    6    0    0  0.34035140932E+01 -0.66595643611E+00  0.72248264220E+02  0.72331452971E+02  0.00000000000E+00 0. -1.
        -14    1    6    6    0    0  0.36264451507E+02 -0.63245891948E+02  0.35837505270E+02  0.81237184069E+02  0.00000000000E+00 0.  1.
</event>
<event>
12    1  0.1594973E-001  0.2226175E+03  0.7818608E-02  0.1132140E+00
         21   -1    0    0  503  502  0.00000000000E+00  0.00000000000E+00  0.25100474005E+03  0.25100474005E+03  0.00000000000E+00 0. -1.
         21   -1    0    0  501  503 -0.00000000000E+00 -0.00000000000E+00 -0.27664957633E+03  0.27664957633E+03  0.00000000000E+00 0. -1.
          6    2    1    2  501    0 -0.12152711158E+03  0.70296685259E+02 -0.15479808589E+03  0.27028470328E+03  0.17140860721E+03 0.  0.
         24    2    3    3    0    0 -0.10214808927E+03 -0.22425127581E+02 -0.65346384287E+02  0.13991377860E+03  0.66095363030E+02 0.  0.
         -6    2    1    2    0  502  0.12152711158E+03 -0.70296685259E+02  0.12915324961E+03  0.25736961310E+03  0.17276600666E+03 0.  0.
        -24    2    5    5    0    0  0.15144886203E+03 -0.78472023875E+02  0.12418176968E+03  0.22560559377E+03  0.79888395155E+02 0.  0.
          5    1    3    3  501    0 -0.19379022305E+02  0.92721812840E+02 -0.89451701605E+02  0.13037092468E+03  0.47000000000E+01 0. -1.
        -11    1    4    4    0    0 -0.30730788360E+02  0.67148959079E+01  0.90671673938E+01  0.32736595804E+02  0.00000000000E+00 0.  1.
         12    1    4    4    0    0 -0.71417300911E+02 -0.29140023489E+02 -0.74413551681E+02  0.10717718280E+03  0.00000000000E+00 0. -1.
         -5    1    5    5    0  502 -0.29921750450E+02  0.81753386164E+01  0.49714799309E+01  0.31764019333E+02  0.47000000000E+01 0.  1.
         13    1    6    6    0    0 -0.11507208045E+00  0.47610686430E+01  0.26668855345E+02  0.27090752327E+02  0.00000000000E+00 0. -1.
        -14    1    6    6    0    0  0.15156393411E+03 -0.83233092518E+02  0.97512914331E+02  0.19851484144E+03  0.00000000000E+00 0.  1.
</event>
<event>
12    1  0.1594973E-001  0.2055934E+03  0.7818608E-02  0.1145264E+00
         21   -1    0    0  501  502  0.00000000000E+00  0.00000000000E+00  0.73242893051E+03  0.73242893051E+03  0.00000000000E+00 0.  1.
         21   -1    0    0  502  503 -0.00000000000E+00 -0.00000000000E+00 -0.80458567040E+02  0.80458567040E+02  0.00000000000E+00 0.  1.
         -6    2    1    2    0  503 -0.21298773181E+02  0.11023734069E+03  0.54359251153E+03  0.58117249770E+03  0.17222875623E+03 0.  0.
        -24    2    3    3    0    0  0.97372292354E+01 -0.16545469748E+01  0.13783627269E+03  0.15910231003E+03  0.78848943091E+02 0.  0.
          6    2    1    2  501    0  0.21298773181E+02 -0.11023734069E+03  0.10837785195E+03  0.23171499986E+03  0.17128973508E+03 0.  0.
         24    2    5    5    0    0 -0.21748418709E+02 -0.69886659102E+02  0.53470395840E+00  0.10869681908E+03  0.80359030185E+02 0.  0.
          5    1    5    5  501    0  0.43047191890E+02 -0.40350681586E+02  0.10784314799E+03  0.12301818078E+03  0.47000000000E+01 0. -1.
        -13    1    6    6    0    0 -0.94095567187E+01 -0.86706932639E+02  0.50162805330E+01  0.87360145351E+02  0.00000000000E+00 0.  1.
         14    1    6    6    0    0 -0.12338861990E+02  0.16820273537E+02 -0.44815765746E+01  0.21336673726E+02  0.00000000000E+00 0. -1.
         -5    1    3    3    0  503 -0.31036002416E+02  0.11189188766E+03  0.40575623883E+03  0.42207018767E+03  0.47000000000E+01 0.  1.
         13    1    4    4    0    0 -0.19843624379E+02 -0.28387830582E+02  0.37060729573E+02  0.50726088260E+02  0.00000000000E+00 0. -1.
        -14    1    4    4    0    0  0.29580853614E+02  0.26733283608E+02  0.10077554312E+03  0.10837622177E+03  0.00000000000E+00 0.  1.
</event>
<event>
12    1  0.1594973E-001  0.2656740E+03  0.7818608E-02  0.1103801E+00
         21   -1    0    0  501  502  0.00000000000E+00  0.00000000000E+00  0.87237969743E+03  0.87237969743E+03  0.00000000000E+00 0. -1.
         21   -1    0    0  502  503 -0.00000000000E+00 -0.00000000000E+00 -0.81330361574E+02  0.81330361574E+02  0.00000000000E+00 0.  1.
         -6    2    1    2    0  503 -0.19903004595E+03  0.36439987516E+02  0.43139118153E+03  0.50656728339E+03  0.17196287162E+03 0.  0.
        -24    2    3    3    0    0 -0.20455485786E+03  0.22438089436E+02  0.43711161291E+03  0.48979259914E+03  0.80523725098E+02 0.  0.
          6    2    1    2  501    0  0.19903004595E+03 -0.36439987516E+02  0.35965815432E+03  0.44714277561E+03  0.17216806305E+03 0.  0.
         24    2    5    5    0    0  0.74438842479E+02 -0.77778898292E+02  0.16863737006E+03  0.21531761834E+03  0.79576478288E+02 0.  0.
          5    1    5    5  501    0  0.12459120347E+03  0.41338910776E+02  0.19102078426E+03  0.23182515727E+03  0.47000000000E+01 0. -1.
        -13    1    6    6    0    0 -0.19081802910E+01 -0.33803455386E+02  0.93780611784E+02  0.99705154805E+02  0.00000000000E+00 0.  1.
         14    1    6    6    0    0  0.76347022770E+02 -0.43975442906E+02  0.74856758279E+02  0.11561246353E+03  0.00000000000E+00 0. -1.
         -5    1    3    3    0  503  0.55248119105E+01  0.14001898080E+02 -0.57204313751E+01  0.16774684247E+02  0.47000000000E+01 0.  1.
         11    1    4    4    0    0 -0.50480996943E+02 -0.14302745417E+02  0.18286214065E+03  0.19024053738E+03  0.00000000000E+00 0. -1.
        -12    1    4    4    0    0 -0.15407386092E+03  0.36740834853E+02  0.25424947226E+03  0.29955206176E+03  0.00000000000E+00 0.  1.
</event>
<event>
12    1  0.1594973E-001  0.1802350E+03  0.7818608E-02  0.1167682E+00
         21   -1    0    0  503  502  0.00000000000E+00  0.00000000000E+00  0.51330032180E+02  0.51330032180E+02  0.00000000000E+00 0.  1.
         21   -1    0    0  501  503 -0.00000000000E+00 -0.00000000000E+00 -0.98517887624E+03  0.98517887624E+03  0.00000000000E+00 0.  1.
          6    2    1    2  501    0 -0.80271705743E+01  0.52396405223E+02 -0.77715989193E+03  0.79768661802E+03  0.17180402850E+03 0.  0.
         24    2    3    3    0    0 -0.37696338498E+02  0.20181302080E+02 -0.22176965870E+03  0.24055245684E+03  0.82797367602E+02 0.  0.
         -6    2    1    2    0  502  0.80271705743E+01 -0.52396405223E+02 -0.15668895213E+03  0.23882229039E+03  0.17226386714E+03 0.  0.
        -24    2    5    5    0    0  0.62623891404E+02 -0.39161467456E+01 -0.55338741889E+02  0.11382192038E+03  0.77174900229E+02 0.  0.
          5    1    3    3  501    0  0.29669167924E+02  0.32215103143E+02 -0.55539023322E+03  0.55713416118E+03  0.47000000000E+01 0. -1.
        -13    1    4    4    0    0 -0.27195540397E+02  0.48736190560E+02 -0.94980224270E+02  0.11016377213E+03  0.00000000000E+00 0.  1.
         14    1    4    4    0    0 -0.10500798101E+02 -0.28554888480E+02 -0.12678943443E+03  0.13038868471E+03  0.00000000000E+00 0. -1.
         -5    1    5    5    0  502 -0.54596720830E+02 -0.48480258478E+02 -0.10135021024E+03  0.12500037001E+03  0.47000000000E+01 0.  1.
         13    1    6    6    0    0 -0.12842657427E+02  0.13719358262E+02 -0.34985108332E+00  0.18795665370E+02  0.00000000000E+00 0. -1.
        -14    1    6    6    0    0  0.75466548831E+02 -0.17635505008E+02 -0.54988890806E+02  0.95026255011E+02  0.00000000000E+00 0.  1.
</event>
<event>
12    1  0.1594973E-001  0.1949147E+03  0.7818608E-02  0.1154311E+00
         21   -1    0    0  503  502  0.00000000000E+00  0.00000000000E+00  0.12512786190E+03  0.12512786190E+03  0.00000000000E+00 0. -1.
         21   -1    0    0  501  503 -0.00000000000E+00 -0.00000000000E+00 -0.32943469059E+03  0.32943469059E+03  0.00000000000E+00 0. -1.
          6    2    1    2  501    0  0.87346587637E+02  0.20534081934E+02 -0.16735288796E+03  0.25617570092E+03  0.17195326616E+03 0.  0.
         24    2    3    3    0    0  0.15149712947E+02  0.68740665944E+02 -0.99279006927E+02  0.14575646920E+03  0.80211184627E+02 0.  0.
         -6    2    1    2    0  502 -0.87346587637E+02 -0.20534081934E+02 -0.36953940731E+02  0.19838685157E+03  0.17303373730E+03 0.  0.
        -24    2    5    5    0    0 -0.73259978953E+00 -0.59038624781E+02 -0.88681576248E+01  0.99414714458E+02  0.79489277973E+02 0.  0.
          5    1    3    3  501    0  0.72196874691E+02 -0.48206584011E+02 -0.68073881030E+02  0.11041923173E+03  0.47000000000E+01 0. -1.
        -13    1    4    4    0    0 -0.51432682724E+01 -0.86620731709E+01  0.73296907781E+01  0.12458293906E+02  0.00000000000E+00 0.  1.
         14    1    4    4    0    0  0.20292981219E+02  0.77402739115E+02 -0.10660869771E+03  0.13329817529E+03  0.00000000000E+00 0. -1.
         -5    1    5    5    0  502 -0.86613987848E+02  0.38504542848E+02 -0.28085783107E+02  0.98972137107E+02  0.47000000000E+01 0.  1.
         13    1    6    6    0    0 -0.52784528465E+01 -0.74531183020E+02 -0.22768237351E+02  0.78109870944E+02  0.00000000000E+00 0. -1.
        -14    1    6    6    0    0  0.45458530570E+01  0.15492558238E+02  0.13900079726E+02  0.21304843515E+02  0.00000000000E+00 0.  1.
</event>
<event>
12    1  0.1594973E-001  0.2211464E+03  0.7818608E-02  0.1134319E+00
         21   -1    0    0  501  502  0.00000000000E+00  0.00000000000E+00  0.11430541414E+03  0.11430541414E+03  0.00000000000E+00 0. -1.
         21   -1    0    0  502  503 -0.00000000000E+00 -0.00000000000E+00 -0.42263523909E+03  0.42263523909E+03  0.00000000000E+00 0.  1.
         -6    2    1    2    0  503 -0.13545811129E+03 -0.30051652777E+02 -0.11504298785E+03  0.24323074489E+03  0.16332270038E+03 0.  0.
        -24    2    3    3    0    0 -0.73599747580E+02 -0.79923961730E+02 -0.71496815766E+02  0.15250002538E+03  0.79622236675E+02 0.  0.
          6    2    1    2  501    0  0.13545811129E+03  0.30051652777E+02 -0.19328683711E+03  0.29370990833E+03  0.17220251771E+03 0.  0.
         24    2    5    5    0    0  0.75650341017E+02 -0.44932923461E+02 -0.73399945994E+02  0.14010452848E+03  0.80621244856E+02 0.  0.
          5    1    5    5  501    0  0.59807770273E+02  0.74984576238E+02 -0.11988689111E+03  0.15360537985E+03  0.47000000000E+01 0. -1.
        -11    1    6    6    0    0  0.22586501816E+01  0.10812075315E+02 -0.40923272586E+02  0.42387695295E+02  0.00000000000E+00 0.  1.
         12    1    6    6    0    0  0.73391690835E+02 -0.55744998776E+02 -0.32476673408E+02  0.97716833186E+02  0.00000000000E+00 0. -1.
         -5    1    3    3    0  503 -0.61858363709E+02  0.49872308953E+02 -0.43546172082E+02  0.90730719517E+02  0.47000000000E+01 0.  1.
         13    1    4    4    0    0  0.11753960126E+02  0.62311887850E+01 -0.90550509437E+01  0.16092769802E+02  0.00000000000E+00 0. -1.
        -14    1    4    4    0    0 -0.85353707707E+02 -0.86155150515E+02 -0.62441764822E+02  0.13640725558E+03  0.00000000000E+00 0.  1.
</event>
<event>
12    1  0.1594973E-001  0.1830451E+03  0.7818608E-02  0.1165152E+00
         21   -1    0    0  501  502  0.00000000000E+00  0.00000000000E+00  0.39333038658E+02  0.39333038658E+02  0.00000000000E+00 0.  1.
         21   -1    0    0  502  503 -0.00000000000E+00 -0.00000000000E+00 -0.10232440793E+04  0.10232440793E+04  0.00000000000E+00 0.  1.
         -6    2    1    2    0  503 -0.45762580415E+02 -0.43266552855E+02 -0.71388708071E+03  0.73698050076E+03  0.17186996868E+03 0.  0.
        -24    2    3    3    0    0 -0.43044896250E+02  0.37064258487E+02 -0.30677150481E+03  0.32197976919E+03  0.79596439980E+02 0.  0.
          6    2    1    2  501    0  0.45762580415E+02  0.43266552855E+02 -0.27002395995E+03  0.32559661721E+03  0.17068687657E+03 0.  0.
         24    2    5    5    0    0  0.36739348569E+02  0.65703328618E+02 -0.82301438750E+02  0.13626446837E+03  0.78280083011E+02 0.  0.
          5    1    5    5  501    0  0.90232318459E+01 -0.22436775763E+02 -0.18772252120E+03  0.18933214884E+03  0.47000000000E+01 0. -1.
        -11    1    6    6    0    0  0.52741725567E+02  0.41054718027E+02 -0.24072398014E+02  0.71039846806E+02  0.00000000000E+00 0.  1.
         12    1    6    6    0    0 -0.16002376998E+02  0.24648610591E+02 -0.58229040736E+02  0.65224621568E+02  0.00000000000E+00 0. -1.
         -5    1    3    3    0  503 -0.27176841646E+01 -0.80330811342E+02 -0.40711557590E+03  0.41500073156E+03  0.47000000000E+01 0.  1.
         13    1    4    4    0    0  0.21545636494E+02  0.60141715990E+01 -0.11716548102E+03  0.11928174485E+03  0.00000000000E+00 0. -1.
        -14    1    4    4    0    0 -0.64590532744E+02  0.31050086888E+02 -0.18960602379E+03  0.20269802434E+03  0.00000000000E+00 0.  1.
</event>
<event>
12    1  0.1594973E-001  0.1863234E+03  0.7818608E-02  0.1161910E+00
         21   -1    0    0  501  502  0.00000000000E+00  0.00000000000E+00  0.19997533959E+04  0.19997533959E+04  0.00000000000E+00 0.  1.
         21   -1    0    0  502  503 -0.00000000000E+00 -0.00000000000E+00 -0.21355071926E+02  0.21355071926E+02  0.00000000000E+00 0.  1.
         -6    2    1    2    0  503  0.54451036472E+02 -0.48458694809E+02  0.55098296234E+03  0.58163445788E+03  0.17147378031E+03 0.  0.
        -24    2    3    3    0    0  0.14195651029E+02  0.40280599225E+02  0.26376525772E+03  0.27830088208E+03  0.77815336563E+02 0.  0.
          6    2    1    2  501    0 -0.54451036472E+02  0.48458694809E+02  0.14274153617E+04  0.14394740100E+04  0.17104867785E+03 0.  0.
         24    2    5    5    0    0 -0.71417942072E+01  0.90895633138E+02  0.77699397203E+03  0.78593814085E+03  0.75273549934E+02 0.  0.
          5    1    5    5  501    0 -0.47309242265E+02 -0.42436938329E+02  0.65042138964E+03  0.65353586913E+03  0.47000000000E+01 0. -1.
        -11    1    6    6    0    0 -0.51353791488E+01  0.85064074915E+02  0.40385759930E+03  0.41275080796E+03  0.00000000000E+00 0.  1.
         12    1    6    6    0    0 -0.20064150584E+01  0.58315582228E+01  0.37313637273E+03  0.37318733288E+03  0.00000000000E+00 0. -1.
         -5    1    3    3    0  503  0.40255385443E+02 -0.88739294034E+02  0.28721770462E+03  0.30333357581E+03  0.47000000000E+01 0.  1.
         13    1    4    4    0    0  0.18923535739E+02  0.37753011864E+00  0.21164462730E+03  0.21248927267E+03  0.00000000000E+00 0. -1.
        -14    1    4    4    0    0 -0.47278847100E+01  0.39903069106E+02  0.52120630413E+02  0.65811609406E+02  0.00000000000E+00 0.  1.
</event>
<event>
12    1  0.1594973E-001  0.2900090E+03  0.7818608E-02  0.1090453E+00
         21   -1    0    0  503  502  0.00000000000E+00  0.00000000000E+00  0.14571643988E+03  0.14571643988E+03  0.00000000000E+00 0.  1.
         21   -1    0    0  501  503 -0.00000000000E+00 -0.00000000000E+00 -0.57761195665E+03  0.57761195665E+03  0.00000000000E+00 0. -1.
          6    2    1    2  501    0  0.17107703075E+03  0.15793385253E+03 -0.23736460575E+03  0.37411856617E+03  0.17150012615E+03 0.  0.
         24    2    3    3    0    0  0.14877715550E+02  0.52014557130E+02 -0.95529962672E+02  0.13799089058E+03  0.83598155129E+02 0.  0.
         -6    2    1    2    0  502 -0.17107703075E+03 -0.15793385253E+03 -0.19453091102E+03  0.34920983036E+03  0.17290106434E+03 0.  0.
        -24    2    5    5    0    0 -0.12535086238E+03 -0.52716013321E+02 -0.51230661201E+02  0.16558323163E+03  0.79381415895E+02 0.  0.
          5    1    3    3  501    0  0.15619931520E+03  0.10591929540E+03 -0.14183464308E+03  0.23612767560E+03  0.47000000000E+01 0. -1.
        -13    1    4    4    0    0  0.40974150139E+02  0.54954932266E+02 -0.47983912352E+02  0.83674257718E+02  0.00000000000E+00 0.  1.
         14    1    4    4    0    0 -0.26096434590E+02 -0.29403751365E+01 -0.47546050320E+02  0.54316632861E+02  0.00000000000E+00 0. -1.
         -5    1    5    5    0  502 -0.45726168368E+02 -0.10521783921E+03 -0.14330024982E+03  0.18362659873E+03  0.47000000000E+01 0.  1.
         11    1    6    6    0    0  0.10033499794E+02  0.52777753161E+00  0.27439225418E+01  0.10415314597E+02  0.00000000000E+00 0. -1.
        -12    1    6    6    0    0 -0.13538436217E+03 -0.53243790853E+02 -0.53974583742E+02  0.15516791703E+03  0.00000000000E+00 0.  1.
</event>
<event>
12    1  0.1594973E-001  0.4482683E+03  0.7818608E-02  0.1028257E+00
         21   -1    0    0  503  502  0.00000000000E+00  0.00000000000E+00  0.96602755124E+03  0.96602755124E+03  0.00000000000E+00 0.  1.
         21   -1    0    0  501  503 -0.00000000000E+00 -0.00000000000E+00 -0.21044752283E+03  0.21044752283E+03  0.00000000000E+00 0. -1.
          6    2    1    2  501    0  0.90654428730E+02  0.40398943645E+03  0.31325346632E+03  0.54687491970E+03  0.17181022502E+03 0.  0.
         24    2    3    3    0    0  0.59327479648E+02  0.13758733756E+03  0.17316477608E+03  0.24422266517E+03  0.84903740874E+02 0.  0.
         -6    2    1    2    0  502 -0.90654428730E+02 -0.40398943645E+03  0.44232656208E+03  0.62960015437E+03  0.17122463799E+03 0.  0.
        -24    2    5    5    0    0 -0.27522996880E+01 -0.11359444432E+03  0.10484360784E+03  0.17575781374E+03  0.83590394508E+02 0.  0.
          5    1    3    3  501    0  0.31326949082E+02  0.26640209889E+03  0.14008869025E+03  0.30265225452E+03  0.47000000000E+01 0. -1.
        -11    1    4    4    0    0  0.75910858020E+02  0.73456683973E+02  0.98840345480E+02  0.14466428958E+03  0.00000000000E+00 0.  1.
         12    1    4    4    0    0 -0.16583378372E+02  0.64130653583E+02  0.74324430596E+02  0.99558375592E+02  0.00000000000E+00 0. -1.
         -5    1    5    5    0  502 -0.87902129042E+02 -0.29039499213E+03  0.33748295424E+03  0.45384234063E+03  0.47000000000E+01 0.  1.
         13    1    6    6    0    0  0.14266514224E+02 -0.46819002895E+02  0.94028370203E+02  0.10600418323E+03  0.00000000000E+00 0. -1.
        -14    1    6    6    0    0 -0.17018813912E+02 -0.66775441421E+02  0.10815237635E+02  0.69753630508E+02  0.00000000000E+00 0.  1.
</event>
<event>
12    1  0.1594973E-001  0.2343975E+03  0.7818608E-02  0.1123625E+00
         21   -1    0    0  501  502  0.00000000000E+00  0.00000000000E+00  0.34170769883E+03  0.34170769883E+03  0.00000000000E+00 0. -1.
         21   -1    0    0  502  503 -0.00000000000E+00 -0.00000000000E+00 -0.48442280880E+03  0.48442280880E+03  0.00000000000E+00 0. -1.
         -6    2    1    2    0  503  0.15305635242E+03  0.42315107667E+02 -0.40908496911E+03  0.47147928562E+03  0.17241052597E+03 0.  0.
        -24    2    3    3    0    0  0.12324642015E+03  0.85587990530E+02 -0.23759506478E+03  0.29205784950E+03  0.79570022268E+02 0.  0.
          6    2    1    2  501    0 -0.15305635242E+03 -0.42315107667E+02  0.26636985914E+03  0.35465122200E+03  0.17206909094E+03 0.  0.
         24    2    5    5    0    0 -0.48498750704E+02  0.97572433043E+01  0.19380062548E+03  0.21705687079E+03  0.84306999127E+02 0.  0.
          5    1    5    5  501    0 -0.10455760172E+03 -0.52072350972E+02  0.72569233654E+02  0.13759435122E+03  0.47000000000E+01 0. -1.
        -13    1    6    6    0    0 -0.27394299757E+02  0.44161738185E+02  0.72384796855E+02  0.89108167945E+02  0.00000000000E+00 0.  1.
         14    1    6    6    0    0 -0.21104450946E+02 -0.34404494881E+02  0.12141582863E+03  0.12794870284E+03  0.00000000000E+00 0. -1.
         -5    1    3    3    0  503  0.29809932276E+02 -0.43272882863E+02 -0.17148990433E+03  0.17942143612E+03  0.47000000000E+01 0.  1.
         13    1    4    4    0    0  0.63011149914E+02  0.55197295507E+02 -0.19509830968E+03  0.21232168256E+03  0.00000000000E+00 0. -1.
        -14    1    4    4    0    0  0.60235270234E+02  0.30390695024E+02 -0.42496755099E+02  0.79736166939E+02  0.00000000000E+00 0.  1.
</event>
<event>
12    1  0.1594973E-001  0.1976008E+03  0.7818608E-02  0.1151996E+00
         21   -1    0    0  501  502  0.00000000000E+00  0.00000000000E+00  0.16781232395E+03  0.16781232395E+03  0.00000000000E+00 0. -1.
         21   -1    0    0  502  503 -0.00000000000E+00 -0.00000000000E+00 -0.24594092958E+03  0.24594092958E+03  0.00000000000E+00 0. -1.
         -6    2    1    2    0  503 -0.89184703029E+02  0.38472302994E+02 -0.89117043199E+02  0.21584717775E+03  0.17092140709E+03 0.  0.
        -24    2    3    3    0    0 -0.47776402069E+02  0.88069969098E+02 -0.35623029849E+02  0.13183363518E+03  0.77924341873E+02 0.  0.
          6    2    1    2  501    0  0.89184703029E+02 -0.38472302994E+02  0.10988437573E+02  0.19790607578E+03  0.17208149150E+03 0.  0.
         24    2    5    5    0    0  0.88969775829E+02 -0.87503423846E+02  0.17535081421E+01  0.14779149779E+03  0.79163007971E+02 0.  0.
          5    1    5    5  501    0  0.21492719959E+00  0.49031120852E+02  0.92349294306E+01  0.50114577992E+02  0.47000000000E+01 0. -1.
        -13    1    6    6    0    0 -0.96734425402E+01 -0.89400306863E+01 -0.15688805299E+02  0.20485073858E+02  0.00000000000E+00 0.  1.
         14    1    6    6    0    0  0.98643218369E+02 -0.78563393160E+02  0.17442313441E+02  0.12730642393E+03  0.00000000000E+00 0. -1.
         -5    1    3    3    0  503 -0.41408300960E+02 -0.49597666104E+02 -0.53494013350E+02  0.84013542573E+02  0.47000000000E+01 0.  1.
         11    1    4    4    0    0 -0.57357712298E+02  0.50212951617E+02  0.38230489386E+01  0.76327343550E+02  0.00000000000E+00 0. -1.
        -12    1    4    4    0    0  0.95813102295E+01  0.37857017482E+02 -0.39446078788E+02  0.55506291626E+02  0.00000000000E+00 0.  1.
</event>
<event>
12    1  0.1594973E-001  0.1780648E+03  0.7818608E-02  0.1170060E+00
         21   -1    0    0  501  502  0.00000000000E+00  0.00000000000E+00  0.24104880226E+03  0.24104880226E+03  0.00000000000E+00 0. -1.
         21   -1    0    0  502  503 -0.00000000000E+00 -0.00000000000E+00 -0.14684430378E+03  0.14684430378E+03  0.00000000000E+00 0. -1.
         -6    2    1    2    0  503 -0.31020405794E+02  0.33050450016E+02 -0.17562659913E+02  0.17892885497E+03  0.17219898459E+03 0.  0.
        -24    2    3    3    0    0 -0.14242283696E+02  0.80059299728E+01 -0.76621994905E+02  0.11245458615E+03  0.80673206722E+02 0.  0.
          6    2    1    2  501    0  0.31020405794E+02 -0.33050450016E+02  0.11176715839E+03  0.20896425108E+03  0.17064455079E+03 0.  0.
         24    2    5    5    0    0 -0.37653778067E+02 -0.39702218340E+02  0.99566810049E+02  0.13874083582E+03  0.79632887160E+02 0.  0.
          5    1    5    5  501    0  0.68674183861E+02  0.66517683241E+01  0.12200348343E+02  0.70223415258E+02  0.47000000000E+01 0. -1.
        -13    1    6    6    0    0  0.19245552667E+02  0.83410008236E+01  0.31540015696E+02  0.37877911536E+02  0.00000000000E+00 0.  1.
         14    1    6    6    0    0 -0.56899330734E+02 -0.48043219164E+02  0.68026794353E+02  0.10086292429E+03  0.00000000000E+00 0. -1.
         -5    1    3    3    0  503 -0.16778122097E+02  0.25044520043E+02  0.59059334992E+02  0.66474268819E+02  0.47000000000E+01 0.  1.
         11    1    4    4    0    0 -0.17770362986E+01  0.41807652194E+02 -0.22703833786E+02  0.47607790419E+02  0.00000000000E+00 0. -1.
        -12    1    4    4    0    0 -0.12465247398E+02 -0.33801722221E+02 -0.53918161118E+02  0.64846795728E+02  0.00000000000E+00 0.  1.
</event>
<event>
12    1  0.1594973E-001  0.1756044E+03  0.7818608E-02  0.1172575E+00
         21   -1    0    0  501  502  0.00000000000E+00  0.00000000000E+00  0.18042745845E+04  0.18042745845E+04  0.00000000000E+00 0.  1.
         21   -1    0    0  502  503 -0.00000000000E+00 -0.00000000000E+00 -0.17264944973E+02  0.17264944973E+02  0.00000000000E+00 0.  1.
         -6    2    1    2    0  503  0.23702443901E+02  0.59696333711E+00  0.76880274657E+03  0.78860293103E+03  0.17399642952E+03 0.  0.
        -24    2    3    3    0    0  0.93793169410E+00  0.24201632325E+02  0.73962376637E+03  0.74445651216E+03  0.81151611147E+02 0.  0.
          6    2    1    2  501    0 -0.23702443901E+02 -0.59696333711E+00  0.10182068930E+04  0.10329365984E+04  0.17219342996E+03 0.  0.
         24    2    5    5    0    0 -0.50433232964E+02  0.51289597941E+02  0.79303551802E+03  0.80027592618E+03  0.79762718982E+02 0.  0.
          5    1    5    5  501    0  0.26730789063E+02 -0.51886561278E+02  0.22517137494E+03  0.23266067226E+03  0.47000000000E+01 0. -1.
        -11    1    6    6    0    0 -0.14842106813E+02 -0.19720410206E+02  0.28521659530E+03  0.28628253343E+03  0.00000000000E+00 0.  1.
         12    1    6    6    0    0 -0.35591126151E+02  0.71010008147E+02  0.50781892273E+03  0.51399339276E+03  0.00000000000E+00 0. -1.
         -5    1    3    3    0  503  0.22764512207E+02 -0.23604668988E+02  0.29178980203E+02  0.44146418878E+02  0.47000000000E+01 0.  1.
         11    1    4    4    0    0  0.36320244077E+02  0.62720959049E+01  0.19935566502E+03  0.20273426078E+03  0.00000000000E+00 0. -1.
        -12    1    4    4    0    0 -0.35382312383E+02  0.17929536420E+02  0.54026810135E+03  0.54172225138E+03  0.00000000000E+00 0.  1.
</event>
<event>
12    1  0.1594973E-001  0.2245611E+03  0.7818608E-02  0.1132754E+00
         21   -1    0    0  503  502  0.00000000000E+00  0.00000000000E+00  0.32164297796E+03  0.32164297796E+03  0.00000000000E+00 0. -1.
         21   -1    0    0  501  503 -0.00000000000E+00 -0.00000000000E+00 -0.15621096693E+03  0.15621096693E+03  0.00000000000E+00 0. -1.
          6    2    1    2  501    0  0.12782211288E+03 -0.70117267258E+02  0.32048845971E+02  0.22683657135E+03  0.17080040359E+03 0.  0.
         24    2    3    3    0    0  0.52621065509E+02 -0.84970759977E+02 -0.28541413609E+02  0.12901482875E+03  0.76427790490E+02 0.  0.
         -6    2    1    2    0  502 -0.12782211288E+03  0.70117267258E+02  0.13338316506E+03  0.25101737354E+03  0.15480222670E+03 0.  0.
        -24    2    5    5    0    0 -0.12053728501E+03  0.22108523646E+02  0.13709997734E+03  0.20209076653E+03  0.83822731001E+02 0.  0.
          5    1    3    3  501    0  0.75201047367E+02  0.14853492719E+02  0.60590259579E+02  0.97821742608E+02  0.47000000000E+01 0. -1.
        -13    1    4    4    0    0 -0.17733927907E+02 -0.20587930121E+02  0.55561674346E+01  0.27734924955E+02  0.00000000000E+00 0.  1.
         14    1    4    4    0    0  0.70354993416E+02 -0.64382829855E+02 -0.34097581043E+02  0.10127990379E+03  0.00000000000E+00 0. -1.
         -5    1    5    5    0  502 -0.72848278651E+01  0.48008743612E+02 -0.37168122881E+01  0.48926607013E+02  0.47000000000E+01 0.  1.
         11    1    6    6    0    0 -0.87475569837E+02  0.35162246382E+02  0.47230397797E+02  0.10544699789E+03  0.00000000000E+00 0. -1.
        -12    1    6    6    0    0 -0.33061715174E+02 -0.13053722737E+02  0.89869579547E+02  0.96643768633E+02  0.00000000000E+00 0.  1.
</event>
<event>
12    1  0.1594973E-001  0.1837485E+03  0.7818608E-02  0.1165828E+00
         21   -1    0    0  503  502  0.00000000000E+00  0.00000000000E+00  0.64993233190E+02  0.64993233190E+02  0.00000000000E+00 0. -1.
         21   -1    0    0  501  503 -0.00000000000E+00 -0.00000000000E+00 -0.51183772772E+03  0.51183772772E+03  0.00000000000E+00 0. -1.
          6    2    1    2  501    0  0.94879135408E+01  0.36265183858E+02 -0.26174116834E+03  0.31601158932E+03  0.17305982005E+03 0.  0.
         24    2    3    3    0    0  0.17150059932E+02  0.64416082521E+02 -0.26613488437E+03  0.28613557346E+03  0.81254128981E+02 0.  0.
         -6    2    1    2    0  502 -0.94879135408E+01 -0.36265183858E+02 -0.18510332618E+03  0.26081937159E+03  0.17988418265E+03 0.  0.
        -24    2    5    5    0    0 -0.15073323628E+02 -0.78727941857E+02 -0.61728993871E+02  0.13013808564E+03  0.81854497347E+02 0.  0.
          5    1    3    3  501    0 -0.76621463911E+01 -0.28150898663E+02  0.43937160325E+01  0.29876015856E+02  0.47000000000E+01 0. -1.
        -11    1    4    4    0    0 -0.28749399060E+02  0.14003177398E+02 -0.48684861627E+02  0.58248027221E+02  0.00000000000E+00 0.  1.
         12    1    4    4    0    0  0.45899458992E+02  0.50412905123E+02 -0.21745002275E+03  0.22788754624E+03  0.00000000000E+00 0. -1.
         -5    1    5    5    0  502  0.55854100869E+01  0.42462757999E+02 -0.12337433231E+03  0.13068128595E+03  0.47000000000E+01 0.  1.
         13    1    6    6    0    0 -0.88808333666E+01  0.91781816420E+01 -0.36205992882E+02  0.38392475045E+02  0.00000000000E+00 0. -1.
        -14    1    6    6    0    0 -0.61924902611E+01 -0.87906123499E+02 -0.25523000989E+02  0.91745610597E+02  0.00000000000E+00 0.  1.
</event>
<event>
12    1  0.1594973E-001  0.2527636E+03  0.7818608E-02  0.1111746E+00
         21   -1    0    0  501  502  0.00000000000E+00  0.00000000000E+00  0.49031445810E+03  0.49031445810E+03  0.00000000000E+00 0.  1.
         21   -1    0    0  502  503 -0.00000000000E+00 -0.00000000000E+00 -0.19712424010E+03  0.19712424010E+03  0.00000000000E+00 0. -1.
         -6    2    1    2    0  503 -0.68164239434E+01 -0.18496905719E+03 -0.54174883663E+02  0.25850405627E+03  0.17213196488E+03 0.  0.
        -24    2    3    3    0    0 -0.44526386966E+02 -0.98736337325E+02 -0.98352297405E+02  0.15442784779E+03  0.49429973942E+02 0.  0.
          6    2    1    2  501    0  0.68164239434E+01  0.18496905719E+03  0.34736510167E+03  0.42893464193E+03  0.17047697041E+03 0.  0.
         24    2    5    5    0    0 -0.55084079193E+02  0.15285256177E+03  0.24096786816E+03  0.30163341309E+03  0.80740578314E+02 0.  0.
          5    1    5    5  501    0  0.61900503137E+02  0.32116495416E+02  0.10639723351E+03  0.12730122884E+03  0.47000000000E+01 0. -1.
        -11    1    6    6    0    0 -0.15219836095E+02  0.13737733894E+03  0.19274887894E+03  0.23718412046E+03  0.00000000000E+00 0.  1.
         12    1    6    6    0    0 -0.39864243098E+02  0.15475222834E+02  0.48218989218E+02  0.64449292632E+02  0.00000000000E+00 0. -1.
         -5    1    3    3    0  503  0.37709963022E+02 -0.86232719864E+02  0.44177413742E+02  0.10407620848E+03  0.47000000000E+01 0.  1.
         13    1    4    4    0    0 -0.42256264063E+02 -0.69134440050E+02 -0.43273944772E+02  0.91857481730E+02  0.00000000000E+00 0. -1.
        -14    1    4    4    0    0 -0.22701229025E+01 -0.29601897275E+02 -0.55078352633E+02  0.62570366061E+02  0.00000000000E+00 0.  1.
</event>
<event>
12    1  0.1594973E-001  0.2419423E+03  0.7818608E-02  0.1118511E+00
         21   -1    0    0  503  502  0.00000000000E+00  0.00000000000E+00  0.12150913307E+04  0.12150913307E+04  0.00000000000E+00 0. -1.
         21   -1    0    0  501  503 -0.00000000000E+00 -0.00000000000E+00 -0.51479678011E+02  0.51479678011E+02  0.00000000000E+00 0. -1.
          6    2    1    2  501    0 -0.76431623637E+02 -0.15246919070E+03  0.42121770309E+03  0.48575756088E+03  0.17160246894E+03 0.  0.
         24    2    3    3    0    0 -0.38307876052E+01 -0.89316258821E+02  0.33591450668E+03  0.35708005890E+03  0.81704000150E+02 0.  0.
         -6    2    1    2    0  502  0.76431623637E+02  0.15246919070E+03  0.74239394963E+03  0.78081344787E+03  0.17155820212E+03 0.  0.
        -24    2    5    5    0    0  0.66944573177E+02  0.16687593190E+03  0.50273192871E+03  0.54048547906E+03  0.84000050020E+02 0.  0.
          5    1    3    3  501    0 -0.72600836032E+02 -0.63152931881E+02  0.85303196405E+02  0.12867750198E+03  0.47000000000E+01 0. -1.
        -11    1    4    4    0    0 -0.55280463557E+01  0.11939838142E+02  0.92627118893E+02  0.93556946219E+02  0.00000000000E+00 0.  1.
         12    1    4    4    0    0  0.16972587506E+01 -0.10125609696E+03  0.24328738779E+03  0.26352311268E+03  0.00000000000E+00 0. -1.
         -5    1    5    5    0  502  0.94870504600E+01 -0.14406741200E+02  0.23966202092E+03  0.24032796881E+03  0.47000000000E+01 0.  1.
         13    1    6    6    0    0  0.85263144316E+02  0.14148714425E+03  0.39132395309E+03  0.42476211228E+03  0.00000000000E+00 0. -1.
        -14    1    6    6    0    0 -0.18318571139E+02  0.25388787653E+02  0.11140797562E+03  0.11572336678E+03  0.00000000000E+00 0.  1.
</event>
<event>
12    1  0.1594973E-001  0.2095486E+03  0.7818608E-02  0.1141993E+00
         21   -1    0    0  503  502  0.00000000000E+00  0.00000000000E+00  0.12592078800E+03  0.12592078800E+03  0.00000000000E+00 0.  1.
         21   -1    0    0  501  503 -0.00000000000E+00 -0.00000000000E+00 -0.37187743088E+03  0.37187743088E+03  0.00000000000E+00 0.  1.
          6    2    1    2  501    0 -0.11080201755E+03 -0.50316057403E+02 -0.18596011227E+03  0.28016387045E+03  0.17059260894E+03 0.  0.
         24    2    3    3    0    0 -0.85363401444E+01 -0.13098571685E+02 -0.13878069369E+03  0.16145667793E+03  0.81016888515E+02 0.  0.
         -6    2    1    2    0  502  0.11080201755E+03  0.50316057403E+02 -0.59996530604E+02  0.21763434843E+03  0.17016560523E+03 0.  0.
        -24    2    5    5    0    0  0.84221710292E+02  0.70122253405E+02  0.14794964736E+02  0.13569134440E+03  0.78630929384E+02 0.  0.
          5    1    3    3  501    0 -0.10226567740E+03 -0.37217485719E+02 -0.47179418585E+02  0.11870719252E+03  0.47000000000E+01 0. -1.
        -13    1    4    4    0    0 -0.29411514079E+02  0.23347779781E+01 -0.11680115555E+02  0.31731899533E+02  0.00000000000E+00 0.  1.
         14    1    4    4    0    0  0.20875173934E+02 -0.15433349663E+02 -0.12710057813E+03  0.12972477840E+03  0.00000000000E+00 0. -1.
         -5    1    5    5    0  502  0.26580307257E+02 -0.19806196002E+02 -0.74791495340E+02  0.81943004028E+02  0.47000000000E+01 0.  1.
         11    1    6    6    0    0  0.38671051318E+02 -0.84733945569E+01 -0.11312183288E+02  0.41172977985E+02  0.00000000000E+00 0. -1.
        -12    1    6    6    0    0  0.45550658973E+02  0.78595647962E+02  0.26107148024E+02  0.94518366413E+02  0.00000000000E+00 0.  1.
</event>
<event>
12    1  0.1594973E-001  0.2325381E+03  0.7818608E-02  0.1124976E+00
         21   -1    0    0  501  502  0.00000000000E+00  0.00000000000E+00  0.57016737393E+02  0.57016737393E+02  0.00000000000E+00 0.  1.
         21   -1    0    0  502  503 -0.00000000000E+00 -0.00000000000E+00 -0.95267870783E+03  0.95267870783E+03  0.00000000000E+00 0.  1.
         -6    2    1    2    0  503  0.10276315450E+01 -0.15545120019E+03 -0.49130753007E+03  0.54355963415E+03  0.17293887678E+03 0.  0.
        -24    2    3    3    0    0  0.44478955998E+02 -0.46817236967E+02 -0.32132904234E+03  0.33715195053E+03  0.79049687502E+02 0.  0.
          6    2    1    2  501    0 -0.10276315450E+01  0.15545120019E+03 -0.40435444037E+03  0.46613581108E+03  0.17208703976E+03 0.  0.
         24    2    5    5    0    0  0.62242648914E+02  0.78413436525E+02 -0.18391216131E+03  0.22415475022E+03  0.79992840894E+02 0.  0.
          5    1    5    5  501    0 -0.63270280459E+02  0.77037763669E+02 -0.22044227905E+03  0.24198106086E+03  0.47000000000E+01 0. -1.
        -11    1    6    6    0    0  0.16819837860E+02  0.23606767599E+02 -0.13429052594E+03  0.13738315682E+03  0.00000000000E+00 0.  1.
         12    1    6    6    0    0  0.45422811054E+02  0.54806668926E+02 -0.49621635377E+02  0.86771593394E+02  0.00000000000E+00 0. -1.
         -5    1    3    3    0  503 -0.43451324453E+02 -0.10863396323E+03 -0.16997848773E+03  0.20640768362E+03  0.47000000000E+01 0.  1.
         11    1    4    4    0    0  0.22045234031E+01  0.96155986852E+01 -0.19168066260E+01  0.10049567610E+02  0.00000000000E+00 0. -1.
        -12    1    4    4    0    0  0.42274432595E+02 -0.56432835653E+02 -0.31941223571E+03  0.32710238292E+03  0.00000000000E+00 0.  1.
</event>
<event>
12    1  0.1594973E-001  0.1857644E+03  0.7818608E-02  0.1162494E+00
         21   -1    0    0  501  502  0.00000000000E+00  0.00000000000E+00  0.24446926915E+03  0.24446926915E+03  0.00000000000E+00 0.  1.
         21   -1    0    0  502  503 -0.00000000000E+00 -0.00000000000E+00 -0.40635324137E+03  0.40635324137E+03  0.00000000000E+00 0.  1.
         -6    2    1    2    0  503 -0.18097382614E+02 -0.67168411015E+02 -0.34412936822E+03  0.39106706187E+03  0.17224782761E+03 0.  0.
        -24    2    3    3    0    0 -0.46714176095E+02  0.83721146686E+01 -0.25075913336E+03  0.26751390470E+03  0.80195010394E+02 0.  0.
          6    2    1    2  501    0  0.18097382614E+02  0.67168411015E+02  0.18224539600E+03  0.25975544865E+03  0.17152375359E+03 0.  0.
         24    2    5    5    0    0  0.42749766818E+02  0.51679905883E+01  0.35069393824E+02  0.98093276838E+02  0.80859000043E+02 0.  0.
          5    1    5    5  501    0 -0.24652384204E+02  0.62000420426E+02  0.14717600217E+03  0.16166217181E+03  0.47000000000E+01 0. -1.
        -11    1    6    6    0    0  0.41943462978E+02 -0.83827516798E+01  0.57626926764E+02  0.71766198872E+02  0.00000000000E+00 0.  1.
         12    1    6    6    0    0  0.80630384020E+00  0.13550742268E+02 -0.22557532940E+02  0.26327077966E+02  0.00000000000E+00 0. -1.
         -5    1    3    3    0  503  0.28616793481E+02 -0.75540525683E+02 -0.93370234858E+02  0.12355315717E+03  0.47000000000E+01 0.  1.
         11    1    4    4    0    0  0.23496743366E+01  0.26193965644E+02 -0.26787091160E+02  0.37539220270E+02  0.00000000000E+00 0. -1.
        -12    1    4    4    0    0 -0.49063850432E+02 -0.17821850976E+02 -0.22397204220E+03  0.22997468443E+03  0.00000000000E+00 0.  1.
</event>
<event>
12    1  0.1594973E-001  0.2206009E+03  0.7818608E-02  0.1133677E+00
         21   -1    0    0  501  502  0.00000000000E+00  0.00000000000E+00  0.37236734628E+03  0.37236734628E+03  0.00000000000E+00 0.  1.
         21   -1    0    0  502  503 -0.00000000000E+00 -0.00000000000E+00 -0.13057181496E+03  0.13057181496E+03  0.00000000000E+00 0.  1.
         -6    2    1    2    0  503 -0.13405071187E+03  0.30984900413E+02  0.10354246014E+03  0.24369203777E+03  0.17243871611E+03 0.  0.
        -24    2    3    3    0    0 -0.10112739042E+03  0.86688740633E+02  0.68674510556E+02  0.17003929295E+03  0.80346038494E+02 0.  0.
          6    2    1    2  501    0  0.13405071187E+03 -0.30984900413E+02  0.13825307119E+03  0.25924712347E+03  0.17077910273E+03 0.  0.
         24    2    5    5    0    0  0.12117466952E+03 -0.70263528990E+02  0.14792246899E+03  0.21653658164E+03  0.73394620515E+02 0.  0.
          5    1    5    5  501    0  0.12876042351E+02  0.39278628577E+02 -0.96693978002E+01  0.42710541829E+02  0.47000000000E+01 0. -1.
        -11    1    6    6    0    0  0.36273340611E+02  0.52384064447E+01  0.10290037344E+02  0.38066796683E+02  0.00000000000E+00 0.  1.
         12    1    6    6    0    0  0.84901328905E+02 -0.75501935435E+02  0.13763243164E+03  0.17846978496E+03  0.00000000000E+00 0. -1.
         -5    1    3    3    0  503 -0.32923321446E+02 -0.55703840220E+02  0.34867949586E+02  0.73652744814E+02  0.47000000000E+01 0.  1.
         11    1    4    4    0    0 -0.11310805516E+02  0.34323764759E+02  0.54093307243E+02  0.65054907864E+02  0.00000000000E+00 0. -1.
        -12    1    4    4    0    0 -0.89816584905E+02  0.52364975874E+02  0.14581203312E+02  0.10498438509E+03  0.00000000000E+00 0.  1.
</event>
<event>
12    1  0.1594973E-001  0.1969497E+03  0.7818608E-02  0.1152804E+00
         21   -1    0    0  501  502  0.00000000000E+00  0.00000000000E+00  0.68672662048E+03  0.68672662048E+03  0.00000000000E+00 0. -1.
         21   -1    0    0  502  503 -0.00000000000E+00 -0.00000000000E+00 -0.64043961109E+02  0.64043961109E+02  0.00000000000E+00 0. -1.
         -6    2    1    2    0  503 -0.65056064932E+02  0.65421270052E+02  0.17872047665E+03  0.26595147476E+03  0.17400271261E+03 0.  0.
        -24    2    3    3    0    0 -0.38363004079E+02 -0.32394457152E+02  0.70949216786E+02  0.11790698672E+03  0.79668972753E+02 0.  0.
          6    2    1    2  501    0  0.65056064932E+02 -0.65421270052E+02  0.44396218273E+03  0.48481910683E+03  0.17156605870E+03 0.  0.
         24    2    5    5    0    0  0.48636879780E+02 -0.79185999943E+02  0.16992651366E+03  0.20990694750E+03  0.80931686630E+02 0.  0.
          5    1    5    5  501    0  0.16419185152E+02  0.13764729891E+02  0.27403566907E+03  0.27491215934E+03  0.47000000000E+01 0. -1.
        -11    1    6    6    0    0 -0.17575998635E+02 -0.42588398180E+02  0.80688766949E+02  0.92915900143E+02  0.00000000000E+00 0.  1.
         12    1    6    6    0    0  0.66212878415E+02 -0.36597601763E+02  0.89237746712E+02  0.11699104735E+03  0.00000000000E+00 0. -1.
         -5    1    3    3    0  503 -0.26693060852E+02  0.97815727204E+02  0.10777125986E+03  0.14804448804E+03  0.47000000000E+01 0.  1.
         13    1    4    4    0    0 -0.30145790324E+02 -0.51780615252E+00 -0.89843389786E+01  0.31460374193E+02  0.00000000000E+00 0. -1.
        -14    1    4    4    0    0 -0.82172137553E+01 -0.31876650999E+02  0.79933555765E+02  0.86446612531E+02  0.00000000000E+00 0.  1.
</event>
<event>
12    1  0.1594973E-001  0.2389612E+03  0.7818608E-02  0.1120547E+00
         21   -1    0    0  503  502  0.00000000000E+00  0.00000000000E+00  0.10554061601E+04  0.10554061601E+04  0.00000000000E+00 0. -1.
         21   -1    0    0  501  503 -0.00000000000E+00 -0.00000000000E+00 -0.54208606135E+02  0.54208606135E+02  0.00000000000E+00 0. -1.
          6    2    1    2  501    0  0.16318476358E+03 -0.23789795208E+02  0.53336237009E+03  0.58444664690E+03  0.17293710947E+03 0.  0.
         24    2    3    3    0    0  0.66881954633E+01  0.39929825074E+01  0.20979105395E+03  0.22391433878E+03  0.77875984289E+02 0.  0.
         -6    2    1    2    0  502 -0.16318476358E+03  0.23789795208E+02  0.46783518386E+03  0.52516811931E+03  0.17244295540E+03 0.  0.
        -24    2    5    5    0    0 -0.80283339506E+02  0.75224039590E+02  0.23058361266E+03  0.26859741630E+03  0.82895710873E+02 0.  0.
          5    1    3    3  501    0  0.15649656811E+03 -0.27782777715E+02  0.32357131614E+03  0.36053230812E+03  0.47000000000E+01 0. -1.
        -11    1    4    4    0    0  0.58212515204E+01  0.90410738280E+01 -0.29193400939E+01  0.11142285753E+02  0.00000000000E+00 0.  1.
         12    1    4    4    0    0  0.86694394294E+00 -0.50480913206E+01  0.21271039404E+03  0.21277205303E+03  0.00000000000E+00 0. -1.
         -5    1    5    5    0  502 -0.82901424070E+02 -0.51434244383E+02  0.23725157120E+03  0.25657070301E+03  0.47000000000E+01 0.  1.
         13    1    6    6    0    0 -0.66702187520E+02  0.50714422891E+02  0.22490481702E+03  0.24000689829E+03  0.00000000000E+00 0. -1.
        -14    1    6    6    0    0 -0.13581151986E+02  0.24509616700E+02  0.56787956403E+01  0.28590518008E+02  0.00000000000E+00 0.  1.
</event>
<event>
12    1  0.1594973E-001  0.2173873E+03  0.7818608E-02  0.1136601E+00
         21   -1    0    0  501  502  0.00000000000E+00  0.00000000000E+00  0.55607125250E+02  0.55607125250E+02  0.00000000000E+00 0.  1.
         21   -1    0    0  502  503 -0.00000000000E+00 -0.00000000000E+00 -0.83452889443E+03  0.83452889443E+03  0.00000000000E+00 0.  1.
         -6    2    1    2    0  503 -0.23313372354E+02 -0.13034694218E+03 -0.38928731738E+03  0.44587202782E+03  0.17240478838E+03 0.  0.
        -24    2    3    3    0    0  0.31046862247E+02 -0.43624996394E+02 -0.27947671921E+03  0.29568484975E+03  0.80344544470E+02 0.  0.
          6    2    1    2  501    0  0.23313372354E+02  0.13034694218E+03 -0.38963445180E+03  0.44426399186E+03  0.16739668384E+03 0.  0.
         24    2    5    5    0    0  0.33269264487E+02  0.11305362787E+03 -0.16367458977E+03  0.21737607293E+03  0.81086490920E+02 0.  0.
          5    1    5    5  501    0 -0.99558921331E+01  0.17293314314E+02 -0.22595986203E+03  0.22688791893E+03  0.47000000000E+01 0. -1.
        -13    1    6    6    0    0  0.11114298525E+02  0.10109012161E+03 -0.16307778303E+03  0.19219027977E+03  0.00000000000E+00 0.  1.
         14    1    6    6    0    0  0.22154965962E+02  0.11963506256E+02 -0.59680674323E+00  0.25185793159E+02  0.00000000000E+00 0. -1.
         -5    1    3    3    0  503 -0.54360234601E+02 -0.86721945789E+02 -0.10981059817E+03  0.15018717807E+03  0.47000000000E+01 0.  1.
         11    1    4    4    0    0  0.52734644743E+02 -0.48899336034E+02 -0.18218952304E+03  0.19587013587E+03  0.00000000000E+00 0. -1.
        -12    1    4    4    0    0 -0.21687782496E+02  0.52743396403E+01 -0.97287196171E+02  0.99814713881E+02  0.00000000000E+00 0.  1.
</event>
<event>
12    1  0.1594973E-001  0.2464572E+03  0.7818608E-02  0.1115576E+00
         21   -1    0    0  501  502  0.00000000000E+00  0.00000000000E+00  0.70675332065E+03  0.70675332065E+03  0.00000000000E+00 0. -1.
         21   -1    0    0  502  503 -0.00000000000E+00 -0.00000000000E+00 -0.10401455168E+03  0.10401455168E+03  0.00000000000E+00 0.  1.
         -6    2    1    2    0  503  0.74578636246E+02  0.15998343785E+03  0.13224326515E+03  0.27963026500E+03  0.17189569673E+03 0.  0.
        -24    2    3    3    0    0  0.76630496456E+01  0.11077755097E+03  0.14135103551E+03  0.19594062098E+03  0.77988611876E+02 0.  0.
          6    2    1    2  501    0 -0.74578636246E+02 -0.15998343785E+03  0.47049550383E+03  0.53113760734E+03  0.17200135300E+03 0.  0.
         24    2    5    5    0    0 -0.11695104644E+03 -0.13917735018E+03  0.38974414972E+03  0.43748299923E+03  0.80268239686E+02 0.  0.
          5    1    5    5  501    0  0.42372410198E+02 -0.20806087669E+02  0.80751354106E+02  0.93654608109E+02  0.47000000000E+01 0. -1.
        -13    1    6    6    0    0 -0.15414384043E+02  0.61230182045E+01  0.12839612125E+02  0.20974990509E+02  0.00000000000E+00 0.  1.
         14    1    6    6    0    0 -0.10153666240E+03 -0.14530036839E+03  0.37690453760E+03  0.41650800872E+03  0.00000000000E+00 0. -1.
         -5    1    3    3    0  503  0.66915586600E+02  0.49205886883E+02 -0.91077703674E+01  0.83689644014E+02  0.47000000000E+01 0.  1.
         13    1    4    4    0    0  0.10252913517E+02 -0.23259140122E+01 -0.44319346935E+01  0.11409388972E+02  0.00000000000E+00 0. -1.
        -14    1    4    4    0    0 -0.25898638716E+01  0.11310346498E+03  0.14578297021E+03  0.18453123201E+03  0.00000000000E+00 0.  1.
</event>
<event>
12    1  0.1594973E-001  0.2388731E+03  0.7818608E-02  0.1120549E+00
         21   -1    0    0  503  502  0.00000000000E+00  0.00000000000E+00  0.61921987597E+02  0.61921987597E+02  0.00000000000E+00 0. -1.
         21   -1    0    0  501  503 -0.00000000000E+00 -0.00000000000E+00 -0.94317430756E+03  0.94317430756E+03  0.00000000000E+00 0.  1.
          6    2    1    2  501    0  0.83839362634E+02  0.14251311342E+03 -0.51696074905E+03  0.56948113445E+03  0.17239872450E+03 0.  0.
         24    2    3    3    0    0  0.80458464435E+01  0.14099737188E+03 -0.36156838651E+03  0.39651919961E+03  0.80936907580E+02 0.  0.
         -6    2    1    2    0  502 -0.83839362634E+02 -0.14251311342E+03 -0.36429157091E+03  0.43561516071E+03  0.17237515302E+03 0.  0.
        -24    2    5    5    0    0  0.18601857499E+02 -0.23711112880E+02 -0.61072470142E+02  0.94188694270E+02  0.65064718109E+02 0.  0.
          5    1    3    3  501    0  0.75793516190E+02  0.15157415352E+01 -0.15539236254E+03  0.17296193484E+03  0.47000000000E+01 0. -1.
        -13    1    4    4    0    0  0.95880887463E+00  0.12222257370E+03 -0.35492357668E+03  0.37537983712E+03  0.00000000000E+00 0.  1.
         14    1    4    4    0    0  0.70870375689E+01  0.18774798187E+02 -0.66448098311E+01  0.21139362482E+02  0.00000000000E+00 0. -1.
         -5    1    5    5    0  502 -0.10244122013E+03 -0.11880200054E+03 -0.30321910077E+03  0.34142646644E+03  0.47000000000E+01 0.  1.
         13    1    6    6    0    0  0.10633067281E+02 -0.33965669773E+02 -0.41834447816E+01  0.35836155670E+02  0.00000000000E+00 0. -1.
        -14    1    6    6    0    0  0.79687902176E+01  0.10254556894E+02 -0.56889025361E+02  0.58352538600E+02  0.00000000000E+00 0.  1.
</event>
<event>
12    1  0.1594973E-001  0.2030451E+03  0.7818608E-02  0.1147425E+00
         21   -1    0    0  501  502  0.00000000000E+00  0.00000000000E+00  0.57382423021E+02  0.57382423021E+02  0.00000000000E+00 0. -1.
         21   -1    0    0  502  503 -0.00000000000E+00 -0.00000000000E+00 -0.76897464804E+03  0.76897464804E+03  0.00000000000E+00 0. -1.
         -6    2    1    2    0  503  0.77239507599E+02  0.72508051496E+02 -0.46663276841E+03  0.50889432458E+03  0.17321643677E+03 0.  0.
        -24    2    3    3    0    0  0.90761402735E+02  0.82341840590E+02 -0.46922782323E+03  0.49133387568E+03  0.78844253831E+02 0.  0.
          6    2    1    2  501    0 -0.77239507599E+02 -0.72508051496E+02 -0.24495945661E+03  0.31746274648E+03  0.17191306220E+03 0.  0.
         24    2    5    5    0    0 -0.12050961561E+02 -0.95164519036E+02 -0.19679193265E+03  0.23317121417E+03  0.80251099683E+02 0.  0.
          5    1    5    5  501    0 -0.65188546038E+02  0.22656467541E+02 -0.48167523953E+02  0.84291532313E+02  0.47000000000E+01 0. -1.
        -13    1    6    6    0    0 -0.27377429602E+01 -0.86792708847E+02 -0.20179535178E+03  0.21968576091E+03  0.00000000000E+00 0.  1.
         14    1    6    6    0    0 -0.93132186004E+01 -0.83718101892E+01  0.50034191293E+01  0.13485453256E+02  0.00000000000E+00 0. -1.
         -5    1    3    3    0  503 -0.13521895136E+02 -0.98337890938E+01  0.25950548172E+01  0.17560448898E+02  0.47000000000E+01 0.  1.
         11    1    4    4    0    0  0.65590067429E+02  0.31233359077E+02 -0.14546205387E+03  0.16259393833E+03  0.00000000000E+00 0. -1.
        -12    1    4    4    0    0  0.25171335305E+02  0.51108481513E+02 -0.32376576936E+03  0.32873993735E+03  0.00000000000E+00 0.  1.
</event>
<event>
12    1  0.1594973E-001  0.2267715E+03  0.7818608E-02  0.1129045E+00
         21   -1    0    0  501  502  0.00000000000E+00  0.00000000000E+00  0.17417620378E+03  0.17417620378E+03  0.00000000000E+00 0.  1.
         21   -1    0    0  502  503 -0.00000000000E+00 -0.00000000000E+00 -0.46125336310E+03  0.46125336310E+03  0.00000000000E+00 0.  1.
         -6    2    1    2    0  503 -0.12583136741E+03 -0.76145175691E+02 -0.33472979023E+03  0.40431340451E+03  0.17260844648E+03 0.  0.
        -24    2    3    3    0    0 -0.70120994817E+02 -0.29007542294E+02 -0.75629565020E+02  0.13509115655E+03  0.82288504958E+02 0.  0.
          6    2    1    2  501    0  0.12583136741E+03  0.76145175691E+02  0.47652630900E+02  0.23111616237E+03  0.17179140395E+03 0.  0.
         24    2    5    5    0    0  0.75177416461E+02  0.73686445073E+01  0.84941864784E+02  0.13779622371E+03  0.77889267602E+02 0.  0.
          5    1    5    5  501    0  0.50653950951E+02  0.68776531184E+02 -0.37289233884E+02  0.93319938664E+02  0.47000000000E+01 0. -1.
        -11    1    6    6    0    0  0.27592600103E+02  0.37272769097E+02  0.16468641789E+02  0.49212062129E+02  0.00000000000E+00 0.  1.
         12    1    6    6    0    0  0.47584816358E+02 -0.29904124590E+02  0.68473222995E+02  0.88584161579E+02  0.00000000000E+00 0. -1.
         -5    1    3    3    0  503 -0.55710372595E+02 -0.47137633397E+02 -0.25910022521E+03  0.26922224796E+03  0.47000000000E+01 0.  1.
         13    1    4    4    0    0 -0.15211958027E+02  0.27886515335E+02 -0.13424334952E+02  0.34485854687E+02  0.00000000000E+00 0. -1.
        -14    1    4    4    0    0 -0.54909036790E+02 -0.56894057630E+02 -0.62205230068E+02  0.10060530186E+03  0.00000000000E+00 0.  1.
</event>
<event>
12    1  0.1594973E-001  0.1999970E+03  0.7818608E-02  0.1150159E+00
         21   -1    0    0  501  502  0.00000000000E+00  0.00000000000E+00  0.97809332524E+03  0.97809332524E+03  0.00000000000E+00 0.  1.
         21   -1    0    0  502  503 -0.00000000000E+00 -0.00000000000E+00 -0.50202938227E+02  0.50202938227E+02  0.00000000000E+00 0.  1.
         -6    2    1    2    0  503 -0.80764095941E+02 -0.58392743055E+02  0.23968453498E+03  0.31216575884E+03  0.17339617368E+03 0.  0.
        -24    2    3    3    0    0 -0.15416825724E+02  0.25977925065E+02  0.13050011554E+03  0.15941759089E+03  0.86435854956E+02 0.  0.
          6    2    1    2  501    0  0.80764095941E+02  0.58392743055E+02  0.68820585203E+03  0.71613050463E+03  0.17112291855E+03 0.  0.
         24    2    5    5    0    0  0.37821761831E+02  0.16956463469E+02  0.61620272564E+03  0.62249531074E+03  0.77952584844E+02 0.  0.
          5    1    5    5  501    0  0.42942334110E+02  0.41436279585E+02  0.72003126392E+02  0.93635193891E+02  0.47000000000E+01 0. -1.
        -11    1    6    6    0    0 -0.20512477401E+02  0.40324642431E+01  0.70578270043E+02  0.73609202544E+02  0.00000000000E+00 0.  1.
         12    1    6    6    0    0  0.58334239232E+02  0.12923999226E+02  0.54562445560E+03  0.54888610819E+03  0.00000000000E+00 0. -1.
         -5    1    3    3    0  503 -0.65347270217E+02 -0.84370668120E+02  0.10918441944E+03  0.15274816795E+03  0.47000000000E+01 0.  1.
         13    1    4    4    0    0 -0.21815701415E+02  0.52961621436E+02  0.11282452938E+03  0.12653154786E+03  0.00000000000E+00 0. -1.
        -14    1    4    4    0    0  0.63988756914E+01 -0.26983696371E+02  0.17675586158E+02  0.32886043027E+02  0.00000000000E+00 0.  1.
</event>
<event>
12    1  0.1594973E-001  0.2075177E+03  0.7818608E-02  0.1143785E+00
         21   -1    0    0  501  502  0.00000000000E+00  0.00000000000E+00  0.18787072553E+03  0.18787072553E+03  0.00000000000E+00 0. -1.
         21   -1    0    0  502  503 -0.00000000000E+00 -0.00000000000E+00 -0.22906827595E+03  0.22906827595E+03  0.00000000000E+00 0. -1.
         -6    2    1    2    0  503  0.86153719035E+02  0.74532646281E+02 -0.58948153458E+01  0.20760139567E+03  0.17345319822E+03 0.  0.
        -24    2    3    3    0    0  0.30801668833E+02  0.80112479002E+02  0.51244177460E+02  0.12771435984E+03  0.79487356805E+02 0.  0.
          6    2    1    2  501    0 -0.86153719035E+02 -0.74532646281E+02 -0.35302735076E+02  0.20933760581E+03  0.17204177236E+03 0.  0.
         24    2    5    5    0    0  0.63010907695E+01 -0.75426715721E+02 -0.40249775208E+02  0.11662701082E+03  0.79075420074E+02 0.  0.
          5    1    5    5  501    0 -0.92454809804E+02  0.89406944050E+00  0.49470401319E+01  0.92710594983E+02  0.47000000000E+01 0. -1.
        -13    1    6    6    0    0 -0.30832730512E+01 -0.52120699172E+02 -0.63628208862E+02  0.82308096915E+02  0.00000000000E+00 0.  1.
         14    1    6    6    0    0  0.93843638207E+01 -0.23306016549E+02  0.23378433654E+02  0.34318913908E+02  0.00000000000E+00 0. -1.
         -5    1    3    3    0  503  0.55352050202E+02 -0.55798327215E+01 -0.57138992806E+02  0.79887035830E+02  0.47000000000E+01 0.  1.
         13    1    4    4    0    0  0.36721678388E+02  0.30689351894E+02 -0.99003126507E+01  0.48870585979E+02  0.00000000000E+00 0. -1.
        -14    1    4    4    0    0 -0.59200095554E+01  0.49423127108E+02  0.61144490111E+02  0.78843773865E+02  0.00000000000E+00 0.  1.
</event>
<event>
12    1  0.1594973E-001  0.1853397E+03  0.7818608E-02  0.1163618E+00
         21   -1    0    0  503  502  0.00000000000E+00  0.00000000000E+00  0.62811338581E+02  0.62811338581E+02  0.00000000000E+00 0. -1.
         21   -1    0    0  501  503 -0.00000000000E+00 -0.00000000000E+00 -0.58768124142E+03  0.58768124142E+03  0.00000000000E+00 0. -1.
          6    2    1    2  501    0 -0.26328358662E+01  0.66763663148E+02 -0.36146062412E+03  0.40620756729E+03  0.17287708463E+03 0.  0.
         24    2    3    3    0    0  0.63681570406E+02  0.27474860614E+02 -0.17701873772E+03  0.20625229743E+03  0.79963531172E+02 0.  0.
         -6    2    1    2    0  502  0.26328358662E+01 -0.66763663148E+02 -0.16340927872E+03  0.24428501271E+03  0.16884388210E+03 0.  0.
        -24    2    5    5    0    0 -0.16808959395E+02 -0.96283941215E+02 -0.73192243368E+02  0.14727659201E+03  0.82341676036E+02 0.  0.
          5    1    3    3  501    0 -0.66314406272E+02  0.39288802534E+02 -0.18444188640E+03  0.19995526985E+03  0.47000000000E+01 0. -1.
        -13    1    4    4    0    0 -0.14041991611E+02  0.99598501857E+01 -0.74236238434E+02  0.76206267728E+02  0.00000000000E+00 0.  1.
         14    1    4    4    0    0  0.77723562017E+02  0.17515010428E+02 -0.10278249929E+03  0.13004602971E+03  0.00000000000E+00 0. -1.
         -5    1    5    5    0  502  0.19441795261E+02  0.29520278068E+02 -0.90217035352E+02  0.97008420707E+02  0.47000000000E+01 0.  1.
         11    1    6    6    0    0  0.13607475048E+02 -0.41081937097E+02 -0.72276974576E+02  0.84242803768E+02  0.00000000000E+00 0. -1.
        -12    1    6    6    0    0 -0.30416434444E+02 -0.55202004118E+02 -0.91526879188E+00  0.63033788240E+02  0.00000000000E+00 0.  1.
</event>
<event>
12    1  0.1594973E-001  0.1733797E+03  0.7818608E-02  0.1174498E+00
         21   -1    0    0  503  502  0.00000000000E+00  0.00000000000E+00  0.22173564111E+04  0.22173564111E+04  0.00000000000E+00 0. -1.
         21   -1    0    0  501  503 -0.00000000000E+00 -0.00000000000E+00 -0.14259462545E+02  0.14259462545E+02  0.00000000000E+00 0. -1.
          6    2    1    2  501    0  0.11913702056E+02  0.14647776153E+02  0.84545447857E+03  0.86294732285E+03  0.17183804302E+03 0.  0.
         24    2    3    3    0    0  0.29470381578E+02 -0.46287102546E+02  0.65605135055E+03  0.66315510242E+03  0.79751589685E+02 0.  0.
         -6    2    1    2    0  502 -0.11913702056E+02 -0.14647776153E+02  0.13576424700E+04  0.13686685508E+04  0.17234857702E+03 0.  0.
        -24    2    5    5    0    0  0.51606624162E+02  0.21305960070E+02  0.92345169472E+03  0.92836045149E+03  0.77284589815E+02 0.  0.
          5    1    3    3  501    0 -0.17556679522E+02  0.60934878699E+02  0.18940312802E+03  0.19979222043E+03  0.47000000000E+01 0. -1.
        -11    1    4    4    0    0  0.24972316130E+02  0.11702080508E+02  0.38227974155E+03  0.38327321334E+03  0.00000000000E+00 0.  1.
         12    1    4    4    0    0  0.44980654478E+01 -0.57989183054E+02  0.27377160900E+03  0.27988188908E+03  0.00000000000E+00 0. -1.
         -5    1    5    5    0  502 -0.63520326219E+02 -0.35953736223E+02  0.43419077531E+03  0.44030809936E+03  0.47000000000E+01 0.  1.
         13    1    6    6    0    0 -0.12651569070E+02 -0.14384315095E+02  0.29573457730E+03  0.29635436715E+03  0.00000000000E+00 0. -1.
        -14    1    6    6    0    0  0.64258193232E+02  0.35690275165E+02  0.62771711742E+03  0.63200608433E+03  0.00000000000E+00 0.  1.
</event>
<event>
12    1  0.1594973E-001  0.1794113E+03  0.7818608E-02  0.1168422E+00
         21   -1    0    0  503  502  0.00000000000E+00  0.00000000000E+00  0.71075667217E+02  0.71075667217E+02  0.00000000000E+00 0. -1.
         21   -1    0    0  501  503 -0.00000000000E+00 -0.00000000000E+00 -0.57772708118E+03  0.57772708118E+03  0.00000000000E+00 0. -1.
          6    2    1    2  501    0 -0.47250279861E+02 -0.18115083474E+02 -0.40432289206E+03  0.44226090331E+03  0.17192137842E+03 0.  0.
         24    2    3    3    0    0 -0.74734142878E+02  0.39013961077E+02 -0.25908315098E+03  0.28371828176E+03  0.79149876917E+02 0.  0.
         -6    2    1    2    0  502  0.47250279861E+02  0.18115083474E+02 -0.10232852191E+03  0.20654184509E+03  0.17212687815E+03 0.  0.
        -24    2    5    5    0    0  0.40635070462E+02  0.81535415405E+01 -0.13982317960E+03  0.16690685211E+03  0.81176884248E+02 0.  0.
          5    1    3    3  501    0  0.27483863017E+02 -0.57129044551E+02 -0.14523974108E+03  0.15854262154E+03  0.47000000000E+01 0. -1.
        -11    1    4    4    0    0 -0.61896196145E+02  0.38931854589E+01 -0.82454738141E+02  0.10317499616E+03  0.00000000000E+00 0.  1.
         12    1    4    4    0    0 -0.12837946733E+02  0.35120775618E+02 -0.17662841284E+03  0.18054328561E+03  0.00000000000E+00 0. -1.
         -5    1    5    5    0  502  0.66152093984E+01  0.99615419334E+01  0.37494657693E+02  0.39634992981E+02  0.47000000000E+01 0.  1.
         11    1    6    6    0    0 -0.27451521614E+01 -0.11046660508E+02  0.64846805439E+01  0.13100215667E+02  0.00000000000E+00 0. -1.
        -12    1    6    6    0    0  0.43380222624E+02  0.19200202048E+02 -0.14630786015E+03  0.15380663644E+03  0.00000000000E+00 0.  1.
</event>
<event>
12    1  0.1594973E-001  0.1937280E+03  0.7818608E-02  0.1155151E+00
         21   -1    0    0  503  502  0.00000000000E+00  0.00000000000E+00  0.11052850721E+03  0.11052850721E+03  0.00000000000E+00 0.  1.
         21   -1    0    0  501  503 -0.00000000000E+00 -0.00000000000E+00 -0.34884026735E+03  0.34884026735E+03  0.00000000000E+00 0. -1.
          6    2    1    2  501    0  0.71242012714E+02 -0.54580409179E+02 -0.81522384097E+02  0.21014308875E+03  0.17163849568E+03 0.  0.
         24    2    3    3    0    0 -0.17211302449E+02 -0.34108672808E+02  0.53013627665E+01  0.84430981248E+02  0.75105629979E+02 0.  0.
         -6    2    1    2    0  502 -0.71242012714E+02  0.54580409179E+02 -0.15678937604E+03  0.24922568582E+03  0.17168601745E+03 0.  0.
        -24    2    5    5    0    0 -0.46873217453E+02  0.73438794808E+02 -0.17650599224E+03  0.21234328019E+03  0.79655183434E+02 0.  0.
          5    1    3    3  501    0  0.88453315163E+02 -0.20471736371E+02 -0.86823746863E+02  0.12571210750E+03  0.47000000000E+01 0. -1.
        -11    1    4    4    0    0  0.26799171522E+02 -0.20393334996E+02 -0.11167330957E+02  0.35479472759E+02  0.00000000000E+00 0.  1.
         12    1    4    4    0    0 -0.44010473971E+02 -0.13715337811E+02  0.16468693723E+02  0.48951508489E+02  0.00000000000E+00 0. -1.
         -5    1    5    5    0  502 -0.24368795261E+02 -0.18858385629E+02  0.19716616191E+02  0.36882405630E+02  0.47000000000E+01 0.  1.
         13    1    6    6    0    0 -0.13012184019E+02  0.28461429419E+02 -0.14394317321E+03  0.14730582817E+03  0.00000000000E+00 0. -1.
        -14    1    6    6    0    0 -0.33861033434E+02  0.44977365389E+02 -0.32562819025E+02  0.65037452021E+02  0.00000000000E+00 0.  1.
</event>
<event>
12    1  0.1594973E-001  0.1833746E+03  0.7818608E-02  0.1165403E+00
         21   -1    0    0  501  502  0.00000000000E+00  0.00000000000E+00  0.28261211575E+04  0.28261211575E+04  0.00000000000E+00 0. -1.
         21   -1    0    0  502  503 -0.00000000000E+00 -0.00000000000E+00 -0.11678824635E+02  0.11678824635E+02  0.00000000000E+00 0. -1.
         -6    2    1    2    0  503  0.47682984486E+02  0.42160748968E+02  0.13938638416E+04  0.14058743345E+04  0.17197395037E+03 0.  0.
        -24    2    3    3    0    0  0.12441122780E+02  0.70710002451E+02  0.53617668413E+03  0.54697597099E+03  0.80886279713E+02 0.  0.
          6    2    1    2  501    0 -0.47682984486E+02 -0.42160748968E+02  0.14205784913E+04  0.14319256477E+04  0.16827541374E+03 0.  0.
         24    2    5    5    0    0 -0.29222845171E+01  0.20047192222E+02  0.39334693416E+03  0.40182851142E+03  0.79585880130E+02 0.  0.
          5    1    5    5  501    0 -0.44760699969E+02 -0.62207941190E+02  0.10272315571E+04  0.10300971363E+04  0.47000000000E+01 0. -1.
        -13    1    6    6    0    0  0.30867187831E+02  0.76705246513E+01  0.75154003371E+02  0.81607257371E+02  0.00000000000E+00 0.  1.
         14    1    6    6    0    0 -0.33789472348E+02  0.12376667571E+02  0.31819293079E+03  0.32022125405E+03  0.00000000000E+00 0. -1.
         -5    1    3    3    0  503  0.35241861706E+02 -0.28549253483E+02  0.85768715747E+03  0.85889836348E+03  0.47000000000E+01 0.  1.
         13    1    4    4    0    0  0.33440630778E+02  0.76476669554E+01  0.98985309296E+02  0.10476093763E+03  0.00000000000E+00 0. -1.
        -14    1    4    4    0    0 -0.20999507998E+02  0.63062335496E+02  0.43719137484E+03  0.44221503336E+03  0.00000000000E+00 0.  1.
</event>
<event>
12    1  0.1594973E-001  0.1754961E+03  0.7818608E-02  0.1172245E+00
         21   -1    0    0  503  502  0.00000000000E+00  0.00000000000E+00  0.29321686023E+03  0.29321686023E+03  0.00000000000E+00 0. -1.
         21   -1    0    0  501  503 -0.00000000000E+00 -0.00000000000E+00 -0.11934621319E+03  0.11934621319E+03  0.00000000000E+00 0. -1.
          6    2    1    2  501    0 -0.34691543130E+01  0.34625981877E+02  0.15841201516E+03  0.23638746296E+03  0.17196997541E+03 0.  0.
         24    2    3    3    0    0 -0.16216636166E+02 -0.46341568422E+02  0.88728569027E+02  0.12870220324E+03  0.79252620808E+02 0.  0.
         -6    2    1    2    0  502  0.34691543130E+01 -0.34625981877E+02  0.15458631874E+02  0.17617561047E+03  0.17201128676E+03 0.  0.
        -24    2    5    5    0    0 -0.63210761391E+02 -0.33288650059E+02 -0.15381358211E+02  0.10254684841E+03  0.71941193756E+02 0.  0.
          5    1    3    3  501    0  0.12747481853E+02  0.80967550299E+02  0.69683446138E+02  0.10768525972E+03  0.47000000000E+01 0. -1.
        -13    1    4    4    0    0  0.23854525368E+02 -0.46673954642E+02  0.42176066940E+02  0.67277909042E+02  0.00000000000E+00 0.  1.
         14    1    4    4    0    0 -0.40071161534E+02  0.33238622000E+00  0.46552502086E+02  0.61424294198E+02  0.00000000000E+00 0. -1.
         -5    1    5    5    0  502  0.66679915704E+02 -0.13373318184E+01  0.30839990085E+02  0.73628762065E+02  0.47000000000E+01 0.  1.
         13    1    6    6    0    0 -0.19701190200E+02 -0.87180118428E+01  0.28718767027E+02  0.35901367736E+02  0.00000000000E+00 0. -1.
        -14    1    6    6    0    0 -0.43509571192E+02 -0.24570638216E+02 -0.44100125238E+02  0.66645480669E+02  0.00000000000E+00 0.  1.
</event>
<event>
12    1  0.1594973E-001  0.2202989E+03  0.7818608E-02  0.1135304E+00
         21   -1    0    0  503  502  0.00000000000E+00  0.00000000000E+00  0.97291359161E+02  0.97291359161E+02  0.00000000000E+00 0.  1.
         21   -1    0    0  501  503 -0.00000000000E+00 -0.00000000000E+00 -0.49718556137E+03  0.49718556137E+03  0.00000000000E+00 0. -1.
          6    2    1    2  501    0 -0.87818654989E+02  0.10893233205E+03 -0.25222972836E+03  0.32926684643E+03  0.15880318371E+03 0.  0.
         24    2    3    3    0    0 -0.10869040197E+03  0.61465924882E+02 -0.13056521437E+03  0.19693002768E+03  0.78374084986E+02 0.  0.
         -6    2    1    2    0  502  0.87818654989E+02 -0.10893233205E+03 -0.14766447385E+03  0.26521007410E+03  0.17015644989E+03 0.  0.
        -24    2    5    5    0    0  0.10328181087E+03 -0.29081791257E+02 -0.68032708943E+02  0.15128674007E+03  0.82136138183E+02 0.  0.
          5    1    3    3  501    0  0.20871746978E+02  0.47466407169E+02 -0.12166451399E+03  0.13233681875E+03  0.47000000000E+01 0. -1.
        -11    1    4    4    0    0  0.97641709484E+01 -0.54414225764E+01 -0.73215201276E+01  0.13362363973E+02  0.00000000000E+00 0.  1.
         12    1    4    4    0    0 -0.11845457292E+03  0.66907347458E+02 -0.12324369425E+03  0.18356766371E+03  0.00000000000E+00 0. -1.
         -5    1    5    5    0  502 -0.15463155884E+02 -0.79850540794E+02 -0.79631764903E+02  0.11392333403E+03  0.47000000000E+01 0.  1.
         11    1    6    6    0    0  0.32767846291E+02 -0.51196363682E+02 -0.24645085083E+02  0.65591002612E+02  0.00000000000E+00 0. -1.
        -12    1    6    6    0    0  0.70513964582E+02  0.22114572426E+02 -0.43387623860E+02  0.85695737460E+02  0.00000000000E+00 0.  1.
</event>
<event>
12    1  0.1594973E-001  0.1799063E+03  0.7818608E-02  0.1170987E+00
         21   -1    0    0  503  502  0.00000000000E+00  0.00000000000E+00  0.59175710526E+03  0.59175710526E+03  0.00000000000E+00 0. -1.
         21   -1    0    0  501  503 -0.00000000000E+00 -0.00000000000E+00 -0.53099377757E+02  0.53099377757E+02  0.00000000000E+00 0. -1.
          6    2    1    2  501    0  0.50265468528E+02  0.15409650080E+02  0.21470977605E+03  0.28011883902E+03  0.17205290291E+03 0.  0.
         24    2    3    3    0    0  0.41238080305E+01 -0.44756255453E+02  0.16864571338E+03  0.19127641170E+03  0.78263406762E+02 0.  0.
         -6    2    1    2    0  502 -0.50265468528E+02 -0.15409650080E+02  0.32394795146E+03  0.36473764400E+03  0.15914521374E+03 0.  0.
        -24    2    5    5    0    0  0.23772373996E+02 -0.36612701376E+02  0.17521985778E+03  0.19718673425E+03  0.79214859311E+02 0.  0.
          5    1    3    3  501    0  0.46141660497E+02  0.60165905534E+02  0.46064062673E+02  0.88842427320E+02  0.47000000000E+01 0. -1.
        -13    1    4    4    0    0  0.21213602340E+02 -0.55587295330E+02  0.15708132182E+03  0.16797174164E+03  0.00000000000E+00 0.  1.
         14    1    4    4    0    0 -0.17089794310E+02  0.10831039877E+02  0.11564391557E+02  0.23304670057E+02  0.00000000000E+00 0. -1.
         -5    1    5    5    0  502 -0.74037842523E+02  0.21203051296E+02  0.14872809367E+03  0.16755090975E+03  0.47000000000E+01 0.  1.
         13    1    6    6    0    0 -0.16148762777E+02 -0.83648497898E+01  0.12773046978E+03  0.12901870470E+03  0.00000000000E+00 0. -1.
        -14    1    6    6    0    0  0.39921136773E+02 -0.28247851586E+02  0.47489388003E+02  0.68168029555E+02  0.00000000000E+00 0.  1.
</event>
<event>
12    1  0.1594973E-001  0.4012685E+03  0.7818608E-02  0.1043343E+00
         21   -1    0    0  501  502  0.00000000000E+00  0.00000000000E+00  0.68131761969E+03  0.68131761969E+03  0.00000000000E+00 0. -1.
         21   -1    0    0  502  503 -0.00000000000E+00 -0.00000000000E+00 -0.87798359748E+03  0.87798359748E+03  0.00000000000E+00 0.  1.
         -6    2    1    2    0  503  0.30734005956E+03  0.19214355404E+03 -0.76484846296E+03  0.86371845375E+03  0.17216079254E+03 0.  0.
        -24    2    3    3    0    0  0.19568123132E+03  0.43830597278E+02 -0.40796854750E+03  0.46141285955E+03  0.79064692871E+02 0.  0.
          6    2    1    2  501    0 -0.30734005956E+03 -0.19214355404E+03  0.56818248516E+03  0.69558276342E+03  0.17212491614E+03 0.  0.
         24    2    5    5    0    0 -0.12671525558E+03 -0.10311803593E+03  0.16867309908E+03  0.24816718227E+03  0.80288546339E+02 0.  0.
          5    1    5    5  501    0 -0.18062480398E+03 -0.89025518110E+02  0.39950938609E+03  0.44741558115E+03  0.47000000000E+01 0. -1.
        -13    1    6    6    0    0  0.10023571409E+02 -0.14353610496E+02  0.27037002878E+02  0.32210210224E+02  0.00000000000E+00 0.  1.
         14    1    6    6    0    0 -0.13673882699E+03 -0.88764425437E+02  0.14163609620E+03  0.21595697205E+03  0.00000000000E+00 0. -1.
         -5    1    3    3    0  503  0.11165882824E+03  0.14831295676E+03 -0.35687991546E+03  0.40230559420E+03  0.47000000000E+01 0.  1.
         13    1    4    4    0    0  0.15099230244E+03  0.31805977765E+02 -0.22601313124E+03  0.27366444985E+03  0.00000000000E+00 0. -1.
        -14    1    4    4    0    0  0.44688928879E+02  0.12024619514E+02 -0.18195541626E+03  0.18774840970E+03  0.00000000000E+00 0.  1.
</event>
<event>
12    1  0.1594973E-001  0.1877233E+03  0.7818608E-02  0.1160626E+00
         21   -1    0    0  503  502  0.00000000000E+00  0.00000000000E+00  0.64407689671E+03  0.64407689671E+03  0.00000000000E+00 0.  1.
         21   -1    0    0  501  503 -0.00000000000E+00 -0.00000000000E+00 -0.31810519557E+03  0.31810519557E+03  0.00000000000E+00 0.  1.
          6    2    1    2  501    0 -0.77337428815E+02 -0.48122180863E+01 -0.27484990020E+03  0.33284007860E+03  0.17098483835E+03 0.  0.
         24    2    3    3    0    0 -0.88230204587E+02 -0.56427082576E+02 -0.22251311597E+03  0.25838219934E+03  0.79250801303E+02 0.  0.
         -6    2    1    2    0  502  0.77337428815E+02  0.48122180863E+01  0.60082160134E+03  0.62934201369E+03  0.17053016806E+03 0.  0.
        -24    2    5    5    0    0  0.10291739712E+03  0.31010329503E+02  0.55225466818E+03  0.56833781042E+03  0.80430199916E+02 0.  0.
          5    1    3    3  501    0  0.10892775773E+02  0.51614864490E+02 -0.52336784222E+02  0.74457879254E+02  0.47000000000E+01 0. -1.
        -11    1    4    4    0    0 -0.33106295133E+02  0.18767109765E+02 -0.67618900526E+02  0.77592183206E+02  0.00000000000E+00 0.  1.
         12    1    4    4    0    0 -0.55123909455E+02 -0.75194192341E+02 -0.15489421545E+03  0.18079001614E+03  0.00000000000E+00 0. -1.
         -5    1    5    5    0  502 -0.25579968303E+02 -0.26198111417E+02  0.48566933158E+02  0.61004203270E+02  0.47000000000E+01 0.  1.
         11    1    6    6    0    0  0.51380640998E+02  0.33777501568E+02  0.14056372901E+03  0.15342441720E+03  0.00000000000E+00 0. -1.
        -12    1    6    6    0    0  0.51536756120E+02 -0.27671720643E+01  0.41169093917E+03  0.41491339321E+03  0.00000000000E+00 0.  1.
</event>
<event>
12    1  0.1594973E-001  0.1843769E+03  0.7818608E-02  0.1163720E+00
         21   -1    0    0  501  502  0.00000000000E+00  0.00000000000E+00  0.13984953671E+02  0.13984953671E+02  0.00000000000E+00 0.  1.
         21   -1    0    0  502  503 -0.00000000000E+00 -0.00000000000E+00 -0.24260812962E+04  0.24260812962E+04  0.00000000000E+00 0. -1.
         -6    2    1    2    0  503 -0.46481097472E+02 -0.45559635628E+02 -0.12172314259E+04  0.12311162391E+04  0.17250703499E+03 0.  0.
        -24    2    3    3    0    0 -0.82292965347E+02  0.13598362280E+02 -0.76404739397E+03  0.77266229877E+03  0.79256293761E+02 0.  0.
          6    2    1    2  501    0  0.46481097472E+02  0.45559635628E+02 -0.11948649166E+04  0.12089500108E+04  0.17210981020E+03 0.  0.
         24    2    5    5    0    0  0.20573564442E+02  0.84462129625E+02 -0.10503575211E+04  0.10569990922E+04  0.80243602939E+02 0.  0.
          5    1    5    5  501    0  0.25907533030E+02 -0.38902493997E+02 -0.14450739550E+03  0.15195091860E+03  0.47000000000E+01 0. -1.
        -11    1    6    6    0    0  0.44807386470E+02  0.25389857597E+02 -0.35499576250E+03  0.35871205464E+03  0.00000000000E+00 0.  1.
         12    1    6    6    0    0 -0.24233822029E+02  0.59072272028E+02 -0.69536175863E+03  0.69828703755E+03  0.00000000000E+00 0. -1.
         -5    1    3    3    0  503  0.35811867875E+02 -0.59157997908E+02 -0.45318403194E+03  0.45845394033E+03  0.47000000000E+01 0.  1.
         13    1    4    4    0    0 -0.57428637511E+02  0.90247394052E+01 -0.71611985762E+03  0.71847557008E+03  0.00000000000E+00 0. -1.
        -14    1    4    4    0    0 -0.24864327836E+02  0.45736228745E+01 -0.47927536352E+02  0.54186728686E+02  0.00000000000E+00 0.  1.
</event>
<event>
12    1  0.1594973E-001  0.1901328E+03  0.7818608E-02  0.1158720E+00
         21   -1    0    0  501  502  0.00000000000E+00  0.00000000000E+00  0.25697568120E+03  0.25697568120E+03  0.00000000000E+00 0. -1.
         21   -1    0    0  502  503 -0.00000000000E+00 -0.00000000000E+00 -0.33379507008E+03  0.33379507008E+03  0.00000000000E+00 0. -1.
         -6    2    1    2    0  503  0.60703243488E+02 -0.44728755775E+02 -0.26373254065E+03  0.32414929451E+03  0.17272048740E+03 0.  0.
        -24    2    3    3    0    0  0.96724906154E+02 -0.69241667852E+02 -0.21790179634E+03  0.26073801662E+03  0.79705736453E+02 0.  0.
          6    2    1    2  501    0 -0.60703243488E+02  0.44728755775E+02  0.18691315177E+03  0.26662145677E+03  0.17454205667E+03 0.  0.
         24    2    5    5    0    0  0.38955616728E+01  0.87697967111E+02  0.10812084339E+03  0.15594319960E+03  0.70157365194E+02 0.  0.
          5    1    5    5  501    0 -0.64598805161E+02 -0.42969211336E+02  0.78792308378E+02  0.11067825717E+03  0.47000000000E+01 0. -1.
        -11    1    6    6    0    0  0.35166786234E+02  0.30281950459E+02  0.52830158526E+02  0.70318738808E+02  0.00000000000E+00 0.  1.
         12    1    6    6    0    0 -0.31271224561E+02  0.57416016652E+02  0.55290684862E+02  0.85624460794E+02  0.00000000000E+00 0. -1.
         -5    1    3    3    0  503 -0.36021662666E+02  0.24512912077E+02 -0.45830744308E+02  0.63411277889E+02  0.47000000000E+01 0.  1.
         13    1    4    4    0    0  0.87682972752E+01 -0.15193401642E+02 -0.11005640081E+03  0.11144565424E+03  0.00000000000E+00 0. -1.
        -14    1    4    4    0    0  0.87956608879E+02 -0.54048266210E+02 -0.10784539553E+03  0.14929236237E+03  0.00000000000E+00 0.  1.
</event>
<event>
12    1  0.1594973E-001  0.2946675E+03  0.7818608E-02  0.1087956E+00
         21   -1    0    0  501  502  0.00000000000E+00  0.00000000000E+00  0.33953987002E+03  0.33953987002E+03  0.00000000000E+00 0.  1.
         21   -1    0    0  502  503 -0.00000000000E+00 -0.00000000000E+00 -0.31914614572E+03  0.31914614572E+03  0.00000000000E+00 0. -1.
         -6    2    1    2    0  503  0.23806133642E+03  0.23546073986E+02 -0.13676528776E+03  0.32485951689E+03  0.17205041202E+03 0.  0.
        -24    2    3    3    0    0  0.12264069289E+03 -0.46368684862E+01 -0.14357576873E+03  0.20576008007E+03  0.81614760193E+02 0.  0.
          6    2    1    2  501    0 -0.23806133642E+03 -0.23546073986E+02  0.15715901207E+03  0.33382649884E+03  0.17179510691E+03 0.  0.
         24    2    5    5    0    0 -0.10165439345E+03  0.48088501645E+02  0.10441905810E+03  0.17090946701E+03  0.75236869430E+02 0.  0.
          5    1    5    5  501    0 -0.13640694297E+03 -0.71634575631E+02  0.52739953965E+02  0.16291703183E+03  0.47000000000E+01 0. -1.
        -11    1    6    6    0    0 -0.11355989376E+03  0.47037485721E+02  0.90975454367E+02  0.15292124716E+03  0.00000000000E+00 0.  1.
         12    1    6    6    0    0  0.11905500314E+02  0.10510159241E+01  0.13443603735E+02  0.17988219856E+02  0.00000000000E+00 0. -1.
         -5    1    3    3    0  503  0.11542064354E+03  0.28182942472E+02  0.68104809661E+01  0.11909943682E+03  0.47000000000E+01 0.  1.
         11    1    4    4    0    0  0.41582108159E+02  0.20417193510E+02 -0.98011838908E+01  0.47349727723E+02  0.00000000000E+00 0. -1.
        -12    1    4    4    0    0  0.81058584727E+02 -0.25054061997E+02 -0.13377458484E+03  0.15841035234E+03  0.00000000000E+00 0.  1.
</event>
<event>
12    1  0.1594973E-001  0.1733691E+03  0.7818608E-02  0.1174458E+00
         21   -1    0    0  503  502  0.00000000000E+00  0.00000000000E+00  0.23063084982E+02  0.23063084982E+02  0.00000000000E+00 0.  1.
         21   -1    0    0  501  503 -0.00000000000E+00 -0.00000000000E+00 -0.13017018999E+04  0.13017018999E+04  0.00000000000E+00 0.  1.
          6    2    1    2  501    0  0.18287880103E+02 -0.48287008024E+01 -0.65488908976E+03  0.67736976181E+03  0.17202415939E+03 0.  0.
         24    2    3    3    0    0  0.23060226855E+02 -0.65481436008E+02 -0.32245978343E+03  0.33938623663E+03  0.79894387549E+02 0.  0.
         -6    2    1    2    0  502 -0.18287880103E+02  0.48287008024E+01 -0.62374972518E+03  0.64739522310E+03  0.17233424592E+03 0.  0.
        -24    2    5    5    0    0 -0.74863037978E+01  0.44439479035E+02 -0.58006552983E+03  0.58726131647E+03  0.79805531671E+02 0.  0.
          5    1    3    3  501    0 -0.47723467520E+01  0.60652735205E+02 -0.33242930633E+03  0.33798352518E+03  0.47000000000E+01 0. -1.
        -13    1    4    4    0    0  0.26443928112E+02  0.44042379211E+01 -0.16386381219E+03  0.16604224640E+03  0.00000000000E+00 0.  1.
         14    1    4    4    0    0 -0.33837012570E+01 -0.69885673929E+02 -0.15859597124E+03  0.17334399023E+03  0.00000000000E+00 0. -1.
         -5    1    5    5    0  502 -0.10801576305E+02 -0.39610778233E+02 -0.43684195354E+02  0.60133906630E+02  0.47000000000E+01 0.  1.
         11    1    6    6    0    0 -0.34585891661E+02  0.49216840696E+02 -0.30885473858E+03  0.31465811741E+03  0.00000000000E+00 0. -1.
        -12    1    6    6    0    0  0.27099587863E+02 -0.47773616613E+01 -0.27121079125E+03  0.27260319906E+03  0.00000000000E+00 0.  1.
</event>
<event>
12    1  0.1594973E-001  0.1903535E+03  0.7818608E-02  0.1158487E+00
         21   -1    0    0  501  502  0.00000000000E+00  0.00000000000E+00  0.68165687969E+03  0.68165687969E+03  0.00000000000E+00 0.  1.
         21   -1    0    0  502  503 -0.00000000000E+00 -0.00000000000E+00 -0.85422583964E+02  0.85422583964E+02  0.00000000000E+00 0.  1.
         -6    2    1    2    0  503  0.16943320223E+02  0.78032368938E+02  0.60110322273E+02  0.19816527285E+03  0.17111428291E+03 0.  0.
        -24    2    3    3    0    0 -0.20072145735E+02  0.82104503092E+02  0.91646358983E+02  0.14914141531E+03  0.81853931992E+02 0.  0.
          6    2    1    2  501    0 -0.16943320223E+02 -0.78032368938E+02  0.53612397345E+03  0.56891419081E+03  0.17279558701E+03 0.  0.
         24    2    5    5    0    0 -0.72333520533E+02 -0.55547829482E+02  0.43192370784E+03  0.44869183782E+03  0.80303028444E+02 0.  0.
          5    1    5    5  501    0  0.55390200310E+02 -0.22484539456E+02  0.10420026561E+03  0.12022235299E+03  0.47000000000E+01 0. -1.
        -13    1    6    6    0    0 -0.54902969350E+02 -0.71616524444E+02  0.26161810615E+03  0.27674409855E+03  0.00000000000E+00 0.  1.
         14    1    6    6    0    0 -0.17430551182E+02  0.16068694961E+02  0.17030560169E+03  0.17194773926E+03  0.00000000000E+00 0. -1.
         -5    1    3    3    0  503  0.37015465958E+02 -0.40721341543E+01 -0.31536036710E+02  0.49023857539E+02  0.47000000000E+01 0.  1.
         13    1    4    4    0    0  0.28505658580E+02  0.19841529863E+02  0.46945697612E+02  0.58396553003E+02  0.00000000000E+00 0. -1.
        -14    1    4    4    0    0 -0.48577804316E+02  0.62262973230E+02  0.44700661371E+02  0.90744862304E+02  0.00000000000E+00 0.  1.
</event>
<event>
12    1  0.1594973E-001  0.4075398E+03  0.7818608E-02  0.1041252E+00
         21   -1    0    0  503  502  0.00000000000E+00  0.00000000000E+00  0.33849074955E+03  0.33849074955E+03  0.00000000000E+00 0. -1.
         21   -1    0    0  501  503 -0.00000000000E+00 -0.00000000000E+00 -0.71638131298E+03  0.71638131298E+03  0.00000000000E+00 0.  1.
          6    2    1    2  501    0  0.34373648884E+03 -0.13522252556E+03 -0.48558425255E+03  0.63394064053E+03  0.17218816513E+03 0.  0.
         24    2    3    3    0    0  0.29894301627E+03 -0.16027747891E+03 -0.45810848192E+03  0.57553504282E+03  0.79507276909E+02 0.  0.
         -6    2    1    2    0  502 -0.34373648884E+03  0.13522252556E+03  0.10769368912E+03  0.42093142200E+03  0.17072031563E+03 0.  0.
        -24    2    5    5    0    0 -0.10861157560E+03  0.51821212916E+02  0.91943352537E+02  0.17091208899E+03  0.79217735537E+02 0.  0.
          5    1    3    3  501    0  0.44793472576E+02  0.25054953346E+02 -0.27475770622E+02  0.58405597710E+02  0.47000000000E+01 0. -1.
        -13    1    4    4    0    0  0.27892225143E+03 -0.13174086006E+03 -0.37606502519E+03  0.48639303009E+03  0.00000000000E+00 0.  1.
         14    1    4    4    0    0  0.20020764838E+02 -0.28536618841E+02 -0.82043456734E+02  0.89142012724E+02  0.00000000000E+00 0. -1.
         -5    1    5    5    0  502 -0.23512491325E+03  0.83401312643E+02  0.15750336587E+02  0.25001933302E+03  0.47000000000E+01 0.  1.
         11    1    6    6    0    0 -0.72682928109E+02  0.27722893742E+02  0.10021777017E+03  0.12686594631E+03  0.00000000000E+00 0. -1.
        -12    1    6    6    0    0 -0.35928647490E+02  0.24098319174E+02 -0.82744176303E+01  0.44046142675E+02  0.00000000000E+00 0.  1.
</event>
<event>
12    1  0.1594973E-001  0.1995346E+03  0.7818608E-02  0.1150153E+00
         21   -1    0    0  501  502  0.00000000000E+00  0.00000000000E+00  0.54739716269E+03  0.54739716269E+03  0.00000000000E+00 0.  1.
         21   -1    0    0  502  503 -0.00000000000E+00 -0.00000000000E+00 -0.10341875124E+03  0.10341875124E+03  0.00000000000E+00 0.  1.
         -6    2    1    2    0  503  0.99549632731E+02  0.12474676448E+02  0.44597761349E+02  0.20436439646E+03  0.17236617793E+03 0.  0.
        -24    2    3    3    0    0  0.78849079830E+02  0.96229445197E+01 -0.37868539626E+02  0.11916213087E+03  0.80348047202E+02 0.  0.
          6    2    1    2  501    0 -0.99549632731E+02 -0.12474676448E+02  0.39938065010E+03  0.44645151747E+03  0.17247697484E+03 0.  0.
         24    2    5    5    0    0  0.25534759531E+01 -0.49341687131E+01  0.26397022183E+03  0.27662814410E+03  0.82534755306E+02 0.  0.
          5    1    5    5  501    0 -0.10210310868E+03 -0.75405077345E+01  0.13541042826E+03  0.16982337337E+03  0.47000000000E+01 0. -1.
        -11    1    6    6    0    0  0.82983727764E+01  0.35556555806E+02  0.76736745741E+02  0.84980349484E+02  0.00000000000E+00 0.  1.
         12    1    6    6    0    0 -0.57448968233E+01 -0.40490724519E+02  0.18723347609E+03  0.19164779462E+03  0.00000000000E+00 0. -1.
         -5    1    3    3    0  503  0.20700552901E+02  0.28517319279E+01  0.82466300975E+02  0.85202265591E+02  0.47000000000E+01 0.  1.
         13    1    4    4    0    0 -0.14080873309E+02  0.12876801213E+02 -0.12379652284E+02  0.22745082838E+02  0.00000000000E+00 0. -1.
        -14    1    4    4    0    0  0.92929953138E+02 -0.32538566931E+01 -0.25488887342E+02  0.96417048034E+02  0.00000000000E+00 0.  1.
</event>
<event>
12    1  0.1594973E-001  0.1765644E+03  0.7818608E-02  0.1171177E+00
         21   -1    0    0  501  502  0.00000000000E+00  0.00000000000E+00  0.17666402852E+03  0.17666402852E+03  0.00000000000E+00 0. -1.
         21   -1    0    0  502  503 -0.00000000000E+00 -0.00000000000E+00 -0.17648303011E+03  0.17648303011E+03  0.00000000000E+00 0. -1.
         -6    2    1    2    0  503  0.11367633588E+02 -0.38494393386E+02 -0.27806281247E+01  0.17658632041E+03  0.17194172050E+03 0.  0.
        -24    2    3    3    0    0  0.71961788664E+02 -0.17736909583E+02 -0.17149800823E+02  0.11077531915E+03  0.80523031957E+02 0.  0.
          6    2    1    2  501    0 -0.11367633588E+02  0.38494393386E+02  0.29616265397E+01  0.17656073821E+03  0.17191242431E+03 0.  0.
         24    2    5    5    0    0 -0.27580865746E+01  0.29371402289E+02 -0.64736842831E+02  0.10754968097E+03  0.80658469755E+02 0.  0.
          5    1    5    5  501    0 -0.86095470130E+01  0.91229910972E+01  0.67698469371E+02  0.69011057241E+02  0.47000000000E+01 0. -1.
        -13    1    6    6    0    0  0.18432065543E+02  0.10744885277E+02  0.12909283980E+02  0.24936784329E+02  0.00000000000E+00 0.  1.
         14    1    6    6    0    0 -0.21190152117E+02  0.18626517012E+02 -0.77646126811E+02  0.82612896642E+02  0.00000000000E+00 0. -1.
         -5    1    3    3    0  503 -0.60594155076E+02 -0.20757483803E+02  0.14369172698E+02  0.65811001263E+02  0.47000000000E+01 0.  1.
         13    1    4    4    0    0  0.69068029002E+02 -0.37182204523E+02  0.80068258461E+01  0.78848070513E+02  0.00000000000E+00 0. -1.
        -14    1    4    4    0    0  0.28937596617E+01  0.19445294940E+02 -0.25156626669E+02  0.31927248638E+02  0.00000000000E+00 0.  1.
</event>
<event>
12    1  0.1594973E-001  0.1788498E+03  0.7818608E-02  0.1169248E+00
         21   -1    0    0  501  502  0.00000000000E+00  0.00000000000E+00  0.36330780411E+02  0.36330780411E+02  0.00000000000E+00 0.  1.
         21   -1    0    0  502  503 -0.00000000000E+00 -0.00000000000E+00 -0.99482128212E+03  0.99482128212E+03  0.00000000000E+00 0.  1.
         -6    2    1    2    0  503  0.33380343153E+02  0.32071503930E+02 -0.29791165814E+03  0.34678982156E+03  0.17137384750E+03 0.  0.
        -24    2    3    3    0    0  0.28913180386E+02 -0.45671157341E+02 -0.13175536247E+03  0.16323088956E+03  0.79768547396E+02 0.  0.
          6    2    1    2  501    0 -0.33380343153E+02 -0.32071503930E+02 -0.66057884356E+03  0.68436224097E+03  0.17275543299E+03 0.  0.
         24    2    5    5    0    0 -0.69830884073E+02 -0.42645141984E+02 -0.61207581236E+03  0.62259592498E+03  0.79334262594E+02 0.  0.
          5    1    5    5  501    0  0.36450540919E+02  0.10573638054E+02 -0.48503031205E+02  0.61766315991E+02  0.47000000000E+01 0. -1.
        -13    1    6    6    0    0 -0.58202509231E+02 -0.62728447409E+02 -0.38813515212E+03  0.39745601833E+03  0.00000000000E+00 0.  1.
         14    1    6    6    0    0 -0.11628374841E+02  0.20083305425E+02 -0.22394066024E+03  0.22513990665E+03  0.00000000000E+00 0. -1.
         -5    1    3    3    0  503  0.44671627670E+01  0.77742661271E+02 -0.16615629568E+03  0.18355893200E+03  0.47000000000E+01 0.  1.
         11    1    4    4    0    0  0.19038947102E+02 -0.34096223442E+02 -0.97098698275E+01  0.40240719822E+02  0.00000000000E+00 0. -1.
        -12    1    4    4    0    0  0.98742332846E+01 -0.11574933899E+02 -0.12204549264E+03  0.12299016973E+03  0.00000000000E+00 0.  1.
</event>
<event>
12    1  0.1594973E-001  0.3632798E+03  0.7818608E-02  0.1057436E+00
         21   -1    0    0  503  502  0.00000000000E+00  0.00000000000E+00  0.13788594698E+04  0.13788594698E+04  0.00000000000E+00 0. -1.
         21   -1    0    0  501  503 -0.00000000000E+00 -0.00000000000E+00 -0.21450705473E+03  0.21450705473E+03  0.00000000000E+00 0.  1.
          6    2    1    2  501    0  0.15727125094E+03 -0.27766040546E+03 -0.11139041266E+02  0.36345053017E+03  0.17361642350E+03 0.  0.
         24    2    3    3    0    0  0.67622293786E+02 -0.12267381820E+03 -0.68882448679E+02  0.17526400343E+03  0.79693405451E+02 0.  0.
         -6    2    1    2    0  502 -0.15727125094E+03  0.27766040546E+03  0.11754914563E+04  0.12299159944E+04  0.17053926869E+03 0.  0.
        -24    2    5    5    0    0 -0.46629653088E+02  0.98610750016E+02  0.65022504469E+03  0.66402975537E+03  0.79022165937E+02 0.  0.
          5    1    3    3  501    0  0.89648957150E+02 -0.15498658725E+03  0.57743407413E+02  0.18818652674E+03  0.47000000000E+01 0. -1.
        -11    1    4    4    0    0  0.57082887841E+02 -0.12660706858E+03 -0.79305056121E+02  0.15992841469E+03  0.00000000000E+00 0.  1.
         12    1    4    4    0    0  0.10539405945E+02  0.39332503735E+01  0.10422607442E+02  0.15335588742E+02  0.00000000000E+00 0. -1.
         -5    1    5    5    0  502 -0.11064159785E+03  0.17904965544E+03  0.52526641164E+03  0.56588623900E+03  0.47000000000E+01 0.  1.
         13    1    6    6    0    0 -0.64922690904E+02  0.54192126250E+02  0.46798904544E+03  0.47556859546E+03  0.00000000000E+00 0. -1.
        -14    1    6    6    0    0  0.18293037816E+02  0.44418623766E+02  0.18223599925E+03  0.18846115991E+03  0.00000000000E+00 0.  1.
</event>
<event>
12    1  0.1594973E-001  0.3049912E+03  0.7818608E-02  0.1082880E+00
         21   -1    0    0  503  502  0.00000000000E+00  0.00000000000E+00  0.56181370788E+03  0.56181370788E+03  0.00000000000E+00 0.  1.
         21   -1    0    0  501  503 -0.00000000000E+00 -0.00000000000E+00 -0.17233681316E+03  0.17233681316E+03  0.00000000000E+00 0.  1.
          6    2    1    2  501    0  0.20676709823E+03 -0.14360042109E+03  0.26972364796E+03  0.40649146418E+03  0.17061872798E+03 0.  0.
         24    2    3    3    0    0  0.17004701491E+03 -0.17252043628E+03  0.20974221967E+03  0.33030358104E+03  0.80183344440E+02 0.  0.
         -6    2    1    2    0  502 -0.20676709823E+03  0.14360042109E+03  0.11975324675E+03  0.32765905685E+03  0.17217985824E+03 0.  0.
        -24    2    5    5    0    0 -0.38514533687E+02  0.14515865145E+02  0.10721619060E+02  0.89160138835E+02  0.78361327169E+02 0.  0.
          5    1    3    3  501    0  0.36720083323E+02  0.28920015187E+02  0.59981428296E+02  0.76187883145E+02  0.47000000000E+01 0. -1.
        -11    1    4    4    0    0  0.63387954910E+02 -0.67850125242E+02  0.13329024396E+03  0.16244371782E+03  0.00000000000E+00 0.  1.
         12    1    4    4    0    0  0.10665906000E+03 -0.10467031104E+03  0.76451975701E+02  0.16785986322E+03  0.00000000000E+00 0. -1.
         -5    1    5    5    0  502 -0.16825256454E+03  0.12908455595E+03  0.10903162769E+03  0.23849891802E+03  0.47000000000E+01 0.  1.
         13    1    6    6    0    0  0.76294240379E+01  0.12539398971E+02 -0.26199046593E+02  0.30030562434E+02  0.00000000000E+00 0. -1.
        -14    1    6    6    0    0 -0.46143957725E+02  0.19764661740E+01  0.36920665653E+02  0.59129576401E+02  0.00000000000E+00 0.  1.
</event>
<event>
12    1  0.1594973E-001  0.2364444E+03  0.7818608E-02  0.1122290E+00
         21   -1    0    0  501  502  0.00000000000E+00  0.00000000000E+00  0.34218534308E+03  0.34218534308E+03  0.00000000000E+00 0. -1.
         21   -1    0    0  502  503 -0.00000000000E+00 -0.00000000000E+00 -0.16353615598E+03  0.16353615598E+03  0.00000000000E+00 0. -1.
         -6    2    1    2    0  503  0.12164580753E+03 -0.10286997837E+03  0.74316643992E+02  0.24784855483E+03  0.17471693569E+03 0.  0.
        -24    2    3    3    0    0  0.44509813014E+02 -0.11816916348E+03  0.15810378094E+02  0.14972057786E+03  0.78874639323E+02 0.  0.
          6    2    1    2  501    0 -0.12164580753E+03  0.10286997837E+03  0.10433254311E+03  0.25787294422E+03  0.17387708552E+03 0.  0.
         24    2    5    5    0    0 -0.28356192579E+02  0.11197759786E+03  0.75980236823E+02  0.15983293065E+03  0.80190481058E+02 0.  0.
          5    1    5    5  501    0 -0.93289614950E+02 -0.91076194811E+01  0.28352306285E+02  0.98040013575E+02  0.47000000000E+01 0. -1.
        -11    1    6    6    0    0 -0.26389383778E+02  0.66876004799E+02  0.87494248072E+02  0.11324329137E+03  0.00000000000E+00 0.  1.
         12    1    6    6    0    0 -0.19668088007E+01  0.45101593056E+02 -0.11514011249E+02  0.46589639279E+02  0.00000000000E+00 0. -1.
         -5    1    3    3    0  503  0.77135994515E+02  0.15299185102E+02  0.58506265898E+02  0.98127976968E+02  0.47000000000E+01 0.  1.
         13    1    4    4    0    0  0.52883558295E+02 -0.33930511879E+02 -0.33628207109E+01  0.62922642486E+02  0.00000000000E+00 0. -1.
        -14    1    4    4    0    0 -0.83737452807E+01 -0.84238651598E+02  0.19173198805E+02  0.86797935375E+02  0.00000000000E+00 0.  1.
</event>
<event>
12    1  0.1594973E-001  0.3054371E+03  0.7818608E-02  0.1082605E+00
         21   -1    0    0  501  502  0.00000000000E+00  0.00000000000E+00  0.74313881833E+03  0.74313881833E+03  0.00000000000E+00 0. -1.
         21   -1    0    0  502  503 -0.00000000000E+00 -0.00000000000E+00 -0.14169416969E+03  0.14169416969E+03  0.00000000000E+00 0.  1.
         -6    2    1    2    0  503 -0.63910665196E+02 -0.24349478830E+03  0.45072892510E+03  0.54423491116E+03  0.17222308077E+03 0.  0.
        -24    2    3    3    0    0  0.12102123402E+02 -0.94638688259E+02  0.27226979458E+03  0.29968259811E+03  0.81091774346E+02 0.  0.
          6    2    1    2  501    0  0.63910665196E+02  0.24349478830E+03  0.15071572353E+03  0.34059807686E+03  0.17296686267E+03 0.  0.
         24    2    5    5    0    0  0.87341348029E+02  0.10881631128E+03  0.47337699373E+02  0.16914430772E+03  0.83062857987E+02 0.  0.
          5    1    5    5  501    0 -0.23430682833E+02  0.13467847703E+03  0.10337802416E+03  0.17145376914E+03  0.47000000000E+01 0. -1.
        -11    1    6    6    0    0  0.65017296123E+02  0.92235483689E+02  0.70409087268E+02  0.13301155144E+03  0.00000000000E+00 0.  1.
         12    1    6    6    0    0  0.22324051906E+02  0.16580827586E+02 -0.23071387896E+02  0.36132756280E+02  0.00000000000E+00 0. -1.
         -5    1    3    3    0  503 -0.76012788598E+02 -0.14885610004E+03  0.17845913053E+03  0.24455231305E+03  0.47000000000E+01 0.  1.
         11    1    4    4    0    0  0.27292730330E+02 -0.10375962693E+03  0.23938025294E+03  0.26232395774E+03  0.00000000000E+00 0. -1.
        -12    1    4    4    0    0 -0.15190606928E+02  0.91209386704E+01  0.32889541639E+02  0.37358640369E+02  0.00000000000E+00 0.  1.
</event>
<event>
12    1  0.1594973E-001  0.3764920E+03  0.7818608E-02  0.1052477E+00
         21   -1    0    0  501  502  0.00000000000E+00  0.00000000000E+00  0.71156774037E+03  0.71156774037E+03  0.00000000000E+00 0.  1.
         21   -1    0    0  502  503 -0.00000000000E+00 -0.00000000000E+00 -0.21574954845E+03  0.21574954845E+03  0.00000000000E+00 0. -1.
         -6    2    1    2    0  503 -0.33153716518E+03  0.16967579961E+02  0.38066693235E+03  0.53360920723E+03  0.17212403083E+03 0.  0.
        -24    2    3    3    0    0 -0.33052573345E+03  0.35992218832E+02  0.38373411766E+03  0.51374825297E+03  0.78375341050E+02 0.  0.
          6    2    1    2  501    0  0.33153716518E+03 -0.16967579961E+02  0.11515125957E+03  0.39370808159E+03  0.17759912799E+03 0.  0.
         24    2    5    5    0    0  0.32738011249E+03 -0.32992945639E+02  0.13791235282E+03  0.36517300145E+03  0.77879595642E+02 0.  0.
          5    1    5    5  501    0  0.41570526900E+01  0.16025365678E+02 -0.22761093251E+02  0.28535080132E+02  0.47000000000E+01 0. -1.
        -11    1    6    6    0    0  0.24892771302E+02 -0.11038539408E+02  0.36179888054E+02  0.45282267113E+02  0.00000000000E+00 0.  1.
         12    1    6    6    0    0  0.30248734118E+03 -0.21954406232E+02  0.10173246477E+03  0.31989073434E+03  0.00000000000E+00 0. -1.
         -5    1    3    3    0  503 -0.10114317245E+01 -0.19024638871E+02 -0.30671853075E+01  0.19860954258E+02  0.47000000000E+01 0.  1.
         13    1    4    4    0    0 -0.25724482347E+03  0.56585313857E+02  0.27275520676E+03  0.37917304725E+03  0.00000000000E+00 0. -1.
        -14    1    4    4    0    0 -0.73280909987E+02 -0.20593095025E+02  0.11097891090E+03  0.13457520573E+03  0.00000000000E+00 0.  1.
</event>
<event>
12    1  0.1594973E-001  0.1780395E+03  0.7818608E-02  0.1169844E+00
         21   -1    0    0  501  502  0.00000000000E+00  0.00000000000E+00  0.18580402331E+03  0.18580402331E+03  0.00000000000E+00 0.  1.
         21   -1    0    0  502  503 -0.00000000000E+00 -0.00000000000E+00 -0.46253642077E+03  0.46253642077E+03  0.00000000000E+00 0.  1.
         -6    2    1    2    0  503  0.41441164294E+02  0.62659773451E+00 -0.39620509281E+03  0.43436914191E+03  0.17314824038E+03 0.  0.
        -24    2    3    3    0    0  0.57299981435E+01 -0.22245635624E+00 -0.71703476465E+02  0.10787351055E+03  0.80389199377E+02 0.  0.
          6    2    1    2  501    0 -0.41441164294E+02 -0.62659773451E+00  0.11947269535E+03  0.21397130218E+03  0.17260425979E+03 0.  0.
         24    2    5    5    0    0  0.34905285750E+02 -0.32879204185E+02  0.37542643335E+02  0.97336682617E+02  0.75931275988E+02 0.  0.
          5    1    5    5  501    0 -0.76346450044E+02  0.32252606450E+02  0.81930052010E+02  0.11663461956E+03  0.47000000000E+01 0. -1.
        -13    1    6    6    0    0 -0.20755220471E+01  0.13370359828E+02  0.35604087559E+02  0.38088388842E+02  0.00000000000E+00 0.  1.
         14    1    6    6    0    0  0.36980807798E+02 -0.46249564013E+02  0.19385557761E+01  0.59248293775E+02  0.00000000000E+00 0. -1.
         -5    1    3    3    0  503  0.35711166150E+02  0.84905409075E+00 -0.32450161635E+03  0.32649563135E+03  0.47000000000E+01 0.  1.
         11    1    4    4    0    0 -0.15779141187E+02 -0.33167954521E+02 -0.52549869389E+02  0.64113830618E+02  0.00000000000E+00 0. -1.
        -12    1    4    4    0    0  0.21509139331E+02  0.32945498165E+02 -0.19153607076E+02  0.43759679936E+02  0.00000000000E+00 0.  1.
</event>
<event>
12    1  0.1594973E-001  0.2147699E+03  0.7818608E-02  0.1142052E+00
         21   -1    0    0  503  502  0.00000000000E+00  0.00000000000E+00  0.62014366697E+03  0.62014366697E+03  0.00000000000E+00 0.  1.
         21   -1    0    0  501  503 -0.00000000000E+00 -0.00000000000E+00 -0.43287819736E+03  0.43287819736E+03  0.00000000000E+00 0.  1.
          6    2    1    2  501    0 -0.90840366587E+02  0.14448725784E+02 -0.39081568005E+03  0.43633398442E+03  0.17084997017E+03 0.  0.
         24    2    3    3    0    0 -0.56326384724E+02  0.73450955899E+02 -0.20621547464E+03  0.23942841329E+03  0.78952128358E+02 0.  0.
         -6    2    1    2    0  502  0.90840366587E+02 -0.14448725784E+02  0.57808114967E+03  0.61668787991E+03  0.19407572685E+03 0.  0.
        -24    2    5    5    0    0  0.56965839422E+02  0.62654102925E+02  0.44048335392E+03  0.45529527420E+03  0.78086862847E+02 0.  0.
          5    1    3    3  501    0 -0.34513981864E+02 -0.59002230115E+02 -0.18460020541E+03  0.19690557113E+03  0.47000000000E+01 0. -1.
        -11    1    4    4    0    0 -0.38103659365E+02  0.51287202041E+02 -0.20015062336E+03  0.21010125650E+03  0.00000000000E+00 0.  1.
         12    1    4    4    0    0 -0.18222725359E+02  0.22163753858E+02 -0.60648512776E+01  0.29327156793E+02  0.00000000000E+00 0. -1.
         -5    1    5    5    0  502  0.33874527165E+02 -0.77102828709E+02  0.13759779574E+03  0.16139260571E+03  0.47000000000E+01 0.  1.
         11    1    6    6    0    0  0.43337700932E+02 -0.46476702230E+01  0.12368052979E+03  0.13113592418E+03  0.00000000000E+00 0. -1.
        -12    1    6    6    0    0  0.13628138490E+02  0.67301773148E+02  0.31680282413E+03  0.32415935002E+03  0.00000000000E+00 0.  1.
</event>
<event>
12    1  0.1594973E-001  0.2294347E+03  0.7818608E-02  0.1127093E+00
         21   -1    0    0  503  502  0.00000000000E+00  0.00000000000E+00  0.16429475745E+03  0.16429475745E+03  0.00000000000E+00 0. -1.
         21   -1    0    0  501  503 -0.00000000000E+00 -0.00000000000E+00 -0.41164387045E+03  0.41164387045E+03  0.00000000000E+00 0.  1.
          6    2    1    2  501    0  0.47913659280E+02  0.14241348007E+03 -0.25950764184E+03  0.34618204162E+03  0.17297535002E+03 0.  0.
         24    2    3    3    0    0  0.98108575514E+02  0.91355773810E+02 -0.16726004641E+03  0.22931404836E+03  0.81472938175E+02 0.  0.
         -6    2    1    2    0  502 -0.47913659280E+02 -0.14241348007E+03  0.12158528842E+02  0.22975658628E+03  0.17338668076E+03 0.  0.
        -24    2    5    5    0    0 -0.67066731276E+02 -0.42914342152E+02  0.48323938534E+02  0.12206747136E+03  0.78902961432E+02 0.  0.
          5    1    3    3  501    0 -0.50194916234E+02  0.51057706262E+02 -0.92247595438E+02  0.11686799326E+03  0.47000000000E+01 0. -1.
        -13    1    4    4    0    0 -0.76924135996E+00  0.49264042121E+02 -0.48161642841E+02  0.68899066898E+02  0.00000000000E+00 0.  1.
         14    1    4    4    0    0  0.98877816874E+02  0.42091731689E+02 -0.11909840357E+03  0.16041498147E+03  0.00000000000E+00 0. -1.
         -5    1    5    5    0  502  0.19153071996E+02 -0.99499137920E+02 -0.36165409692E+02  0.10768911492E+03  0.47000000000E+01 0.  1.
         11    1    6    6    0    0 -0.12683941809E+01  0.16041183420E+02  0.26600778857E+02  0.31089062789E+02  0.00000000000E+00 0. -1.
        -12    1    6    6    0    0 -0.65798337095E+02 -0.58955525572E+02  0.21723159677E+02  0.90978408572E+02  0.00000000000E+00 0.  1.
</event>
<event>
12    1  0.1594973E-001  0.4500960E+03  0.7818608E-02  0.1027887E+00
         21   -1    0    0  503  502  0.00000000000E+00  0.00000000000E+00  0.37520127025E+03  0.37520127025E+03  0.00000000000E+00 0.  1.
         21   -1    0    0  501  503 -0.00000000000E+00 -0.00000000000E+00 -0.56905237291E+03  0.56905237291E+03  0.00000000000E+00 0. -1.
          6    2    1    2  501    0  0.32748016696E+03  0.25158781092E+03 -0.20953370044E+03  0.49647838938E+03  0.17901601363E+03 0.  0.
         24    2    3    3    0    0  0.75213048702E+02  0.22246171412E+02 -0.14061231243E+02  0.10345439166E+03  0.65978770004E+02 0.  0.
         -6    2    1    2    0  502 -0.32748016696E+03 -0.25158781092E+03  0.15682597775E+02  0.44777525379E+03  0.17238633261E+03 0.  0.
        -24    2    5    5    0    0 -0.22336483672E+03 -0.24618412449E+03  0.24692860768E+02  0.34302566354E+03  0.80983918378E+02 0.  0.
          5    1    3    3  501    0  0.25226711826E+03  0.22934163951E+03 -0.19547246920E+03  0.39302399772E+03  0.47000000000E+01 0. -1.
        -13    1    4    4    0    0  0.82251227076E+02  0.31234051932E+02 -0.20513039856E+02  0.90341657942E+02  0.00000000000E+00 0.  1.
         14    1    4    4    0    0 -0.70381783742E+01 -0.89878805200E+01  0.64518086123E+01  0.13112733713E+02  0.00000000000E+00 0. -1.
         -5    1    5    5    0  502 -0.10411533024E+03 -0.54036864294E+01 -0.90102629938E+01  0.10474959025E+03  0.47000000000E+01 0.  1.
         11    1    6    6    0    0 -0.15529238580E+03 -0.19685999704E+03 -0.12614505399E+02  0.25105519168E+03  0.00000000000E+00 0. -1.
        -12    1    6    6    0    0 -0.68072450919E+02 -0.49324127450E+02  0.37307366167E+02  0.91970471855E+02  0.00000000000E+00 0.  1.
</event>
<event>
12    1  0.1594973E-001  0.1721949E+03  0.7818608E-02  0.1176824E+00
         21   -1    0    0  503  502  0.00000000000E+00  0.00000000000E+00  0.22063881180E+04  0.22063881180E+04  0.00000000000E+00 0.  1.
         21   -1    0    0  501  503 -0.00000000000E+00 -0.00000000000E+00 -0.94998908567E+02  0.94998908567E+02  0.00000000000E+00 0.  1.
          6    2    1    2  501    0  0.44525045031E+01  0.18521779233E+02 -0.14960551431E+02  0.16807636121E+03  0.16632186867E+03 0.  0.
         24    2    3    3    0    0 -0.51081540590E+02 -0.16918212003E+02 -0.30718103341E+02  0.10017633481E+03  0.78715605164E+02 0.  0.
         -6    2    1    2    0  502 -0.44525045031E+01 -0.18521779233E+02  0.21263497609E+04  0.21333106654E+04  0.17113798027E+03 0.  0.
        -24    2    5    5    0    0 -0.65826094237E+02 -0.30535519380E+02  0.14936880449E+04  0.14975481434E+04  0.79252594375E+02 0.  0.
          5    1    3    3  501    0  0.55534045093E+02  0.35439991236E+02  0.15757551911E+02  0.67900026402E+02  0.47000000000E+01 0. -1.
        -11    1    4    4    0    0 -0.46722282614E+02  0.19195071138E+02 -0.37836168092E+02  0.63110997968E+02  0.00000000000E+00 0.  1.
         12    1    4    4    0    0 -0.43592579758E+01 -0.36113283141E+02  0.71180647510E+01  0.37065336840E+02  0.00000000000E+00 0. -1.
         -5    1    5    5    0  502  0.61373589733E+02  0.12013740147E+02  0.63266171596E+03  0.63576252195E+03  0.47000000000E+01 0.  1.
         13    1    6    6    0    0 -0.16094907802E+01  0.12275390005E+01 -0.11561917128E+00  0.20274812852E+01  0.00000000000E+00 0. -1.
        -14    1    6    6    0    0 -0.64216603456E+02 -0.31763058380E+02  0.14938036641E+04  0.14955206621E+04  0.00000000000E+00 0.  1.
</event>
<event>
12    1  0.1594973E-001  0.2493966E+03  0.7818608E-02  0.1113844E+00
         21   -1    0    0  503  502  0.00000000000E+00  0.00000000000E+00  0.52232423150E+02  0.52232423150E+02  0.00000000000E+00 0.  1.
         21   -1    0    0  501  503 -0.00000000000E+00 -0.00000000000E+00 -0.13878832870E+04  0.13878832870E+04  0.00000000000E+00 0. -1.
          6    2    1    2  501    0  0.30599102934E+02  0.17745284446E+03 -0.94125589763E+03  0.97348301906E+03  0.17111606141E+03 0.  0.
         24    2    3    3    0    0  0.35236837487E+02  0.17124791317E+03 -0.94445203116E+03  0.96387494830E+03  0.80608897283E+02 0.  0.
         -6    2    1    2    0  502 -0.30599102934E+02 -0.17745284446E+03 -0.39439496618E+03  0.46663269104E+03  0.17254814370E+03 0.  0.
        -24    2    5    5    0    0 -0.74767879103E+02 -0.14888791253E+03 -0.35660020645E+03  0.40169140997E+03  0.80214932282E+02 0.  0.
          5    1    3    3  501    0 -0.46377345530E+01  0.62049312952E+01  0.31961335318E+01  0.96080707593E+01  0.47000000000E+01 0. -1.
        -13    1    4    4    0    0 -0.17952124907E+02  0.10557827411E+02 -0.64100514940E+02  0.67398980140E+02  0.00000000000E+00 0.  1.
         14    1    4    4    0    0  0.53188962394E+02  0.16069008576E+03 -0.88035151622E+03  0.89647596816E+03  0.00000000000E+00 0. -1.
         -5    1    5    5    0  502  0.44168776169E+02 -0.28564931936E+02 -0.37794759730E+02  0.64941281076E+02  0.47000000000E+01 0.  1.
         13    1    6    6    0    0 -0.17300072495E+02 -0.10233455291E+03 -0.15129715125E+03  0.18347338009E+03  0.00000000000E+00 0. -1.
        -14    1    6    6    0    0 -0.57467806608E+02 -0.46553359621E+02 -0.20530305520E+03  0.21821802987E+03  0.00000000000E+00 0.  1.
</event>
<event>
12    1  0.1594973E-001  0.2008979E+03  0.7818608E-02  0.1149470E+00
         21   -1    0    0  503  502  0.00000000000E+00  0.00000000000E+00  0.59863722118E+03  0.59863722118E+03  0.00000000000E+00 0.  1.
         21   -1    0    0  501  503 -0.00000000000E+00 -0.00000000000E+00 -0.67595365668E+02  0.67595365668E+02  0.00000000000E+00 0.  1.
          6    2    1    2  501    0  0.10308582451E+03 -0.89338989628E+01  0.30646197454E+03  0.36644086773E+03  0.17220181747E+03 0.  0.
         24    2    3    3    0    0 -0.36535764021E+01 -0.35341247912E+02  0.17008530513E+03  0.19119437349E+03  0.79774212682E+02 0.  0.
         -6    2    1    2    0  502 -0.10308582451E+03  0.89338989628E+01  0.22457988098E+03  0.29979171912E+03  0.16950648999E+03 0.  0.
        -24    2    5    5    0    0 -0.33766429823E+01  0.36628202483E+02  0.14748649512E+03  0.17066242163E+03  0.77591036715E+02 0.  0.
          5    1    3    3  501    0  0.10673940091E+03  0.26407348950E+02  0.13637666941E+03  0.17524649424E+03  0.47000000000E+01 0. -1.
        -13    1    4    4    0    0  0.28071876176E+02 -0.31855055301E+02  0.44053262745E+02  0.61183860117E+02  0.00000000000E+00 0.  1.
         14    1    4    4    0    0 -0.31725452579E+02 -0.34861926110E+01  0.12603204238E+03  0.13001051337E+03  0.00000000000E+00 0. -1.
         -5    1    5    5    0  502 -0.99709181523E+02 -0.27694303520E+02  0.77093385857E+02  0.12912929749E+03  0.47000000000E+01 0.  1.
         11    1    6    6    0    0  0.78054770124E+01 -0.21172286714E+02  0.68691582295E+02  0.72303005984E+02  0.00000000000E+00 0. -1.
        -12    1    6    6    0    0 -0.11182119995E+02  0.57800489197E+02  0.78794912824E+02  0.98359415644E+02  0.00000000000E+00 0.  1.
</event>
<event>
12    1  0.1594973E-001  0.2167992E+03  0.7818608E-02  0.1137530E+00
         21   -1    0    0  503  502  0.00000000000E+00  0.00000000000E+00  0.38116032181E+03  0.38116032181E+03  0.00000000000E+00 0.  1.
         21   -1    0    0  501  503 -0.00000000000E+00 -0.00000000000E+00 -0.27812834860E+03  0.27812834860E+03  0.00000000000E+00 0.  1.
          6    2    1    2  501    0 -0.10351188446E+03 -0.83188278119E+02 -0.19693859724E+03  0.29289364848E+03  0.17136767022E+03 0.  0.
         24    2    3    3    0    0 -0.10211022047E+03 -0.12052595738E+03 -0.17815501706E+03  0.25081063719E+03  0.78827419711E+02 0.  0.
         -6    2    1    2    0  502  0.10351188446E+03  0.83188278119E+02  0.29997057045E+03  0.36639502192E+03  0.16318078659E+03 0.  0.
        -24    2    5    5    0    0  0.79784730745E+01  0.60592158421E+01  0.74560548666E+02  0.10967086478E+03  0.79800081676E+02 0.  0.
          5    1    3    3  501    0 -0.14016639867E+01  0.37337679261E+02 -0.18783580179E+02  0.42083011285E+02  0.47000000000E+01 0. -1.
        -13    1    4    4    0    0 -0.10771016114E+03 -0.76563228419E+02 -0.13022705096E+03  0.18553299318E+03  0.00000000000E+00 0.  1.
         14    1    4    4    0    0  0.55999406609E+01 -0.43962728961E+02 -0.47927966104E+02  0.65277644013E+02  0.00000000000E+00 0. -1.
         -5    1    5    5    0  502  0.95533411386E+02  0.77129062277E+02  0.22541002178E+03  0.25672415714E+03  0.47000000000E+01 0.  1.
         13    1    6    6    0    0 -0.28159347483E+02 -0.94322589647E+01  0.61406574309E+02  0.68210583696E+02  0.00000000000E+00 0. -1.
        -14    1    6    6    0    0  0.36137820558E+02  0.15491474807E+02  0.13153974357E+02  0.41460281086E+02  0.00000000000E+00 0.  1.
</event>
<event>
12    1  0.1594973E-001  0.1930820E+03  0.7818608E-02  0.1156825E+00
         21   -1    0    0  501  502  0.00000000000E+00  0.00000000000E+00  0.13163282513E+03  0.13163282513E+03  0.00000000000E+00 0.  1.
         21   -1    0    0  502  503 -0.00000000000E+00 -0.00000000000E+00 -0.68460430872E+03  0.68460430872E+03  0.00000000000E+00 0.  1.
         -6    2    1    2    0  503  0.87947519716E+02  0.17870011647E+02 -0.59032901189E+03  0.61957437669E+03  0.16531776199E+03 0.  0.
        -24    2    3    3    0    0  0.74308588850E+02  0.62573052970E+00 -0.21828960736E+03  0.24685626042E+03  0.88122089821E+02 0.  0.
          6    2    1    2  501    0 -0.87947519716E+02 -0.17870011647E+02  0.37357528303E+02  0.19666275717E+03  0.17095774798E+03 0.  0.
         24    2    5    5    0    0 -0.77289234927E+02  0.32984859034E+02 -0.21230277720E+02  0.11821253141E+03  0.80385640069E+02 0.  0.
          5    1    5    5  501    0 -0.10658284790E+02 -0.50854870681E+02  0.58587806023E+02  0.78450225756E+02  0.47000000000E+01 0. -1.
        -13    1    6    6    0    0 -0.34081913613E+02  0.35862497057E+02  0.24521258474E+02  0.55217638920E+02  0.00000000000E+00 0.  1.
         14    1    6    6    0    0 -0.43207321314E+02 -0.28776380232E+01 -0.45751536195E+02  0.62994892490E+02  0.00000000000E+00 0. -1.
         -5    1    3    3    0  503  0.13638930866E+02  0.17244281117E+02 -0.37203940453E+03  0.37271811626E+03  0.47000000000E+01 0.  1.
         13    1    4    4    0    0  0.58151218090E+02  0.40769659780E+02 -0.11960906699E+03  0.13910448674E+03  0.00000000000E+00 0. -1.
        -14    1    4    4    0    0  0.16157370760E+02 -0.40143929251E+02 -0.98680540363E+02  0.10775177368E+03  0.00000000000E+00 0.  1.
</event>
<event>
12    1  0.1594973E-001  0.1903567E+03  0.7818608E-02  0.1159048E+00
         21   -1    0    0  503  502  0.00000000000E+00  0.00000000000E+00  0.66761107837E+03  0.66761107837E+03  0.00000000000E+00 0.  1.
         21   -1    0    0  501  503 -0.00000000000E+00 -0.00000000000E+00 -0.73183401721E+02  0.73183401721E+02  0.00000000000E+00 0. -1.
          6    2    1    2  501    0 -0.19926502956E+02  0.67704090655E+02  0.10111211247E+03  0.21202618970E+03  0.17248343810E+03 0.  0.
         24    2    3    3    0    0  0.16065822939E+02 -0.62246929884E+01  0.10083295723E+03  0.12966673061E+03  0.79682609726E+02 0.  0.
         -6    2    1    2    0  502  0.19926502956E+02 -0.67704090655E+02  0.49331556418E+03  0.52876829039E+03  0.17679012884E+03 0.  0.
        -24    2    5    5    0    0 -0.44992954814E+02 -0.64099123246E+02  0.20789899711E+03  0.23600176474E+03  0.79635270932E+02 0.  0.
          5    1    3    3  501    0 -0.35992325895E+02  0.73928783644E+02  0.27915524091E+00  0.82359459093E+02  0.47000000000E+01 0. -1.
        -13    1    4    4    0    0 -0.17981821849E+02  0.15674645624E+02  0.33199469977E+01  0.24084486304E+02  0.00000000000E+00 0.  1.
         14    1    4    4    0    0  0.34047644788E+02 -0.21899338612E+02  0.97513010235E+02  0.10558224430E+03  0.00000000000E+00 0. -1.
         -5    1    5    5    0  502  0.64919457771E+02 -0.36049674090E+01  0.28541656707E+03  0.29276652566E+03  0.47000000000E+01 0.  1.
         11    1    6    6    0    0 -0.28222994923E+02 -0.56079173487E+02  0.59676295261E+02  0.86617962095E+02  0.00000000000E+00 0. -1.
        -12    1    6    6    0    0 -0.16769959891E+02 -0.80199497597E+01  0.14822270185E+03  0.14938380264E+03  0.00000000000E+00 0.  1.
</event>
<event>
12    1  0.1594973E-001  0.1748315E+03  0.7818608E-02  0.1173342E+00
         21   -1    0    0  503  502  0.00000000000E+00  0.00000000000E+00  0.10995334160E+03  0.10995334160E+03  0.00000000000E+00 0. -1.
         21   -1    0    0  501  503 -0.00000000000E+00 -0.00000000000E+00 -0.30659934191E+03  0.30659934191E+03  0.00000000000E+00 0. -1.
          6    2    1    2  501    0  0.24677256491E+02 -0.82924869978E+01 -0.16539016102E+03  0.24066567620E+03  0.17288241672E+03 0.  0.
         24    2    3    3    0    0 -0.61209870005E+01 -0.14074845432E+01 -0.18630623426E+03  0.20251456638E+03  0.79137154217E+02 0.  0.
         -6    2    1    2    0  502 -0.24677256491E+02  0.82924869978E+01 -0.31255839289E+02  0.17588700732E+03  0.17111861244E+03 0.  0.
        -24    2    5    5    0    0 -0.67786507138E+02 -0.25650950042E+02  0.55681789211E+01  0.10964002454E+03  0.82078916765E+02 0.  0.
          5    1    3    3  501    0  0.30798243492E+02 -0.68850024547E+01  0.20916073237E+02  0.38151109822E+02  0.47000000000E+01 0. -1.
        -13    1    4    4    0    0 -0.97169231798E+01 -0.39683589409E+02 -0.91285238275E+02  0.10001100235E+03  0.00000000000E+00 0.  1.
         14    1    4    4    0    0  0.35959361793E+01  0.38276104865E+02 -0.95020995980E+02  0.10250356402E+03  0.00000000000E+00 0. -1.
         -5    1    5    5    0  502  0.43109250647E+02  0.33943437040E+02 -0.36824018210E+02  0.66246982773E+02  0.47000000000E+01 0.  1.
         11    1    6    6    0    0  0.11121256141E+02 -0.11106008640E+02 -0.19991704412E+02  0.25430179145E+02  0.00000000000E+00 0. -1.
        -12    1    6    6    0    0 -0.78907763279E+02 -0.14544941402E+02  0.25559883333E+02  0.84209845399E+02  0.00000000000E+00 0.  1.
</event>
<event>
12    1  0.1594973E-001  0.1943687E+03  0.7818608E-02  0.1154711E+00
         21   -1    0    0  503  502  0.00000000000E+00  0.00000000000E+00  0.18164324766E+03  0.18164324766E+03  0.00000000000E+00 0. -1.
         21   -1    0    0  501  503 -0.00000000000E+00 -0.00000000000E+00 -0.25482577237E+03  0.25482577237E+03  0.00000000000E+00 0.  1.
          6    2    1    2  501    0 -0.83683602744E+02  0.32216497021E+02 -0.13075022199E+03  0.23375438520E+03  0.17176915905E+03 0.  0.
         24    2    3    3    0    0 -0.27977505608E+02  0.52414507242E+02 -0.14187828335E+03  0.17328081557E+03  0.79792057042E+02 0.  0.
         -6    2    1    2    0  502  0.83683602744E+02 -0.32216497021E+02  0.57567697284E+02  0.20271463482E+03  0.17244806567E+03 0.  0.
        -24    2    5    5    0    0  0.54787929622E+02  0.30766199074E+02  0.80262876429E+02  0.12964657690E+03  0.80111355819E+02 0.  0.
          5    1    3    3  501    0 -0.55706097135E+02 -0.20198010222E+02  0.11128061360E+02  0.60473569637E+02  0.47000000000E+01 0. -1.
        -11    1    4    4    0    0 -0.18298248831E+02  0.69146119068E+01 -0.12051426225E+03  0.12209146233E+03  0.00000000000E+00 0.  1.
         12    1    4    4    0    0 -0.96792567775E+01  0.45499895336E+02 -0.21364021104E+02  0.51189353239E+02  0.00000000000E+00 0. -1.
         -5    1    5    5    0  502  0.28895673122E+02 -0.62982696095E+02 -0.22695179145E+02  0.73068057925E+02  0.47000000000E+01 0.  1.
         13    1    6    6    0    0  0.53332850782E+02 -0.14563710696E+02  0.34227203625E+02  0.65023042913E+02  0.00000000000E+00 0. -1.
        -14    1    6    6    0    0  0.14550788400E+01  0.45329909770E+02  0.46035672805E+02  0.64623533986E+02  0.00000000000E+00 0.  1.
</event>
<event>
12    1  0.1594973E-001  0.1763836E+03  0.7818608E-02  0.1171377E+00
         21   -1    0    0  503  502  0.00000000000E+00  0.00000000000E+00  0.12379242891E+03  0.12379242891E+03  0.00000000000E+00 0. -1.
         21   -1    0    0  501  503 -0.00000000000E+00 -0.00000000000E+00 -0.29700287195E+03  0.29700287195E+03  0.00000000000E+00 0. -1.
          6    2    1    2  501    0  0.39538037612E+02 -0.45528942247E+01 -0.16924123321E+03  0.24436699984E+03  0.17172259703E+03 0.  0.
         24    2    3    3    0    0  0.78817617085E+02  0.27134175395E+02 -0.15247550251E+03  0.19098033980E+03  0.79222667757E+02 0.  0.
         -6    2    1    2    0  502 -0.39538037612E+02  0.45528942247E+01 -0.39692098276E+01  0.17642830102E+03  0.17183482042E+03 0.  0.
        -24    2    5    5    0    0 -0.34884665394E+01 -0.10808473193E+02  0.61001740655E+02  0.10040950341E+03  0.78942153003E+02 0.  0.
          5    1    3    3  501    0 -0.39279579474E+02 -0.31687069620E+02 -0.16765730700E+02  0.53386660044E+02  0.47000000000E+01 0. -1.
        -13    1    4    4    0    0  0.32968865026E+02  0.18552681248E+02 -0.73433974618E+01  0.38536651760E+02  0.00000000000E+00 0.  1.
         14    1    4    4    0    0  0.45848752059E+02  0.85814941473E+01 -0.14513210504E+03  0.15244368804E+03  0.00000000000E+00 0. -1.
         -5    1    5    5    0  502 -0.36049571072E+02  0.15361367418E+02 -0.64970950482E+02  0.76018797609E+02  0.47000000000E+01 0.  1.
         11    1    6    6    0    0 -0.22819034484E+02  0.26389263752E+00  0.72025359707E+02  0.75554155512E+02  0.00000000000E+00 0. -1.
        -12    1    6    6    0    0  0.19330567945E+02 -0.11072365830E+02 -0.11023619053E+02  0.24855347899E+02  0.00000000000E+00 0.  1.
</event>
<event>
12    1  0.1594973E-001  0.2167866E+03  0.7818608E-02  0.1136331E+00
         21   -1    0    0  501  502  0.00000000000E+00  0.00000000000E+00  0.25791716441E+03  0.25791716441E+03  0.00000000000E+00 0.  1.
         21   -1    0    0  502  503 -0.00000000000E+00 -0.00000000000E+00 -0.19663394145E+03  0.19663394145E+03  0.00000000000E+00 0.  1.
         -6    2    1    2    0  503 -0.12978819924E+03 -0.25472366610E+02  0.92448855497E+02  0.23553576923E+03  0.17157065478E+03 0.  0.
        -24    2    3    3    0    0 -0.11472180401E+03  0.13647328657E+02  0.73702690658E+01  0.14057365735E+03  0.79745158988E+02 0.  0.
          6    2    1    2  501    0  0.12978819924E+03  0.25472366610E+02 -0.31165632533E+02  0.21901533663E+03  0.17176321756E+03 0.  0.
         24    2    5    5    0    0  0.15943945567E+03  0.12012933751E+02 -0.59706276027E+01  0.17757584322E+03  0.77021302886E+02 0.  0.
          5    1    5    5  501    0 -0.29651256436E+02  0.13459432859E+02 -0.25195004930E+02  0.41439493416E+02  0.47000000000E+01 0. -1.
        -11    1    6    6    0    0  0.74844128347E+02  0.36655905283E+02  0.20023026869E+02  0.85710095935E+02  0.00000000000E+00 0.  1.
         12    1    6    6    0    0  0.84595327325E+02 -0.24642971532E+02 -0.25993654471E+02  0.91865747283E+02  0.00000000000E+00 0. -1.
         -5    1    3    3    0  503 -0.15066395231E+02 -0.39119695267E+02  0.85078586432E+02  0.94962111878E+02  0.47000000000E+01 0.  1.
         11    1    4    4    0    0 -0.23848415799E+02  0.33181910878E+02  0.22112790374E+02  0.46462475653E+02  0.00000000000E+00 0. -1.
        -12    1    4    4    0    0 -0.90873388206E+02 -0.19534582221E+02 -0.14742521309E+02  0.94111181701E+02  0.00000000000E+00 0.  1.
</event>
<event>
12    1  0.1594973E-001  0.1770487E+03  0.7818608E-02  0.1172426E+00
         21   -1    0    0  503  502  0.00000000000E+00  0.00000000000E+00  0.12514298286E+04  0.12514298286E+04  0.00000000000E+00 0.  1.
         21   -1    0    0  501  503 -0.00000000000E+00 -0.00000000000E+00 -0.24262209529E+02  0.24262209529E+02  0.00000000000E+00 0.  1.
          6    2    1    2  501    0 -0.37922028198E+02 -0.26113951657E+02  0.57119162411E+03  0.59800175715E+03  0.17095675302E+03 0.  0.
         24    2    3    3    0    0 -0.67619933950E+02 -0.35175026849E+02  0.22751881713E+03  0.25289719770E+03  0.79890190123E+02 0.  0.
         -6    2    1    2    0  502  0.37922028198E+02  0.26113951657E+02  0.65597599500E+03  0.67769028102E+03  0.16382793498E+03 0.  0.
        -24    2    5    5    0    0  0.21501033989E+02  0.28123859169E+02  0.16760926529E+03  0.18902082068E+03  0.79892170603E+02 0.  0.
          5    1    3    3  501    0  0.29697905752E+02  0.90610751920E+01  0.34367280698E+03  0.34510455944E+03  0.47000000000E+01 0. -1.
        -11    1    4    4    0    0 -0.28042910560E+02 -0.58218103138E+02  0.13382167962E+03  0.14860684473E+03  0.00000000000E+00 0.  1.
         12    1    4    4    0    0 -0.39577023391E+02  0.23043076289E+02  0.93697137514E+02  0.10429035297E+03  0.00000000000E+00 0. -1.
         -5    1    5    5    0  502  0.16420994209E+02 -0.20099075127E+01  0.48836672971E+03  0.48866946033E+03  0.47000000000E+01 0.  1.
         13    1    6    6    0    0  0.44868264078E+02  0.86861326275E+01  0.50845165228E+02  0.68365494574E+02  0.00000000000E+00 0. -1.
        -14    1    6    6    0    0 -0.23367230089E+02  0.19437726542E+02  0.11676410006E+03  0.12065532611E+03  0.00000000000E+00 0.  1.
</event>
<event>
12    1  0.1594973E-001  0.2353392E+03  0.7818608E-02  0.1122974E+00
         21   -1    0    0  503  502  0.00000000000E+00  0.00000000000E+00  0.54993843310E+03  0.54993843310E+03  0.00000000000E+00 0. -1.
         21   -1    0    0  501  503 -0.00000000000E+00 -0.00000000000E+00 -0.15954727396E+03  0.15954727396E+03  0.00000000000E+00 0. -1.
          6    2    1    2  501    0  0.24403224592E+02 -0.15908062174E+03 -0.20449961894E+02  0.23601451133E+03  0.17141320554E+03 0.  0.
         24    2    3    3    0    0  0.10235080296E+02 -0.96469939641E+02  0.55100864406E+02  0.13676305703E+03  0.79100078298E+02 0.  0.
         -6    2    1    2    0  502 -0.24403224592E+02  0.15908062174E+03  0.41084112103E+03  0.47347119573E+03  0.17170435310E+03 0.  0.
        -24    2    5    5    0    0 -0.27316794976E+02  0.10304490018E+03  0.39196802811E+03  0.41408454219E+03  0.80390386750E+02 0.  0.
          5    1    3    3  501    0  0.14168144296E+02 -0.62610682095E+02 -0.75550826300E+02  0.99251454296E+02  0.47000000000E+01 0. -1.
        -11    1    4    4    0    0 -0.73996456149E+01  0.12128186214E+02  0.12267549402E+01  0.14260174745E+02  0.00000000000E+00 0.  1.
         12    1    4    4    0    0  0.17634725911E+02 -0.10859812585E+03  0.53874109466E+02  0.12250288228E+03  0.00000000000E+00 0. -1.
         -5    1    5    5    0  502  0.29135703836E+01  0.56035721551E+02  0.18873092925E+02  0.59386653540E+02  0.47000000000E+01 0.  1.
         11    1    6    6    0    0 -0.14409321439E+02  0.79926537194E+02  0.37242040548E+03  0.38117297688E+03  0.00000000000E+00 0. -1.
        -12    1    6    6    0    0 -0.12907473537E+02  0.23118362990E+02  0.19547622633E+02  0.32911565309E+02  0.00000000000E+00 0.  1.
</event>
<event>
12    1  0.1594973E-001  0.2540668E+03  0.7818608E-02  0.1110918E+00
         21   -1    0    0  503  502  0.00000000000E+00  0.00000000000E+00  0.35473512953E+03  0.35473512953E+03  0.00000000000E+00 0. -1.
         21   -1    0    0  501  503 -0.00000000000E+00 -0.00000000000E+00 -0.74679356162E+03  0.74679356162E+03  0.00000000000E+00 0. -1.
          6    2    1    2  501    0 -0.89612806884E+02  0.16258315760E+03 -0.67522742893E+03  0.72108865672E+03  0.17196811268E+03 0.  0.
         24    2    3    3    0    0 -0.33070828108E+01  0.14213379456E+03 -0.39571832886E+03  0.42780674204E+03  0.78820431277E+02 0.  0.
         -6    2    1    2    0  502  0.89612806884E+02 -0.16258315760E+03  0.28316899685E+03  0.38044003443E+03  0.17345374233E+03 0.  0.
        -24    2    5    5    0    0  0.10513768100E+03 -0.14640334846E+03  0.29486230263E+03  0.35471783895E+03  0.79956834292E+02 0.  0.
          5    1    3    3  501    0 -0.86305724073E+02  0.20449363044E+02 -0.27950910007E+03  0.29328191468E+03  0.47000000000E+01 0. -1.
        -11    1    4    4    0    0 -0.13614053591E+02 -0.35070129969E+01 -0.17916126209E+02  0.22773431311E+02  0.00000000000E+00 0.  1.
         12    1    4    4    0    0  0.10306970780E+02  0.14564080755E+03 -0.37780220266E+03  0.40503331073E+03  0.00000000000E+00 0. -1.
         -5    1    5    5    0  502 -0.15524874117E+02 -0.16179809140E+02 -0.11693305784E+02  0.25722195480E+02  0.47000000000E+01 0.  1.
         13    1    6    6    0    0  0.10644852829E+03 -0.10069912199E+03  0.18705742481E+03  0.23761751308E+03  0.00000000000E+00 0. -1.
        -14    1    6    6    0    0 -0.13108472851E+01 -0.45704226468E+02  0.10780487782E+03  0.11710032587E+03  0.00000000000E+00 0.  1.
</event>
<event>
12    1  0.1594973E-001  0.2146453E+03  0.7818608E-02  0.1137973E+00
         21   -1    0    0  503  502  0.00000000000E+00  0.00000000000E+00  0.13352039873E+03  0.13352039873E+03  0.00000000000E+00 0. -1.
         21   -1    0    0  501  503 -0.00000000000E+00 -0.00000000000E+00 -0.70956877375E+03  0.70956877375E+03  0.00000000000E+00 0.  1.
          6    2    1    2  501    0 -0.92731810918E+02  0.89604338424E+02 -0.59021834400E+03  0.62797667131E+03  0.17137350992E+03 0.  0.
         24    2    3    3    0    0 -0.12205194603E+03  0.10606333044E+03 -0.48647753228E+03  0.51882166796E+03  0.79808684597E+02 0.  0.
         -6    2    1    2    0  502  0.92731810918E+02 -0.89604338424E+02  0.14169968976E+02  0.21511250116E+03  0.17159392155E+03 0.  0.
        -24    2    5    5    0    0  0.75060198367E+02 -0.48450755305E+02 -0.55581253685E+02  0.13208704509E+03  0.79851128044E+02 0.  0.
          5    1    3    3  501    0  0.29320135111E+02 -0.16458992018E+02 -0.10374081172E+03  0.10915500335E+03  0.47000000000E+01 0. -1.
        -13    1    4    4    0    0 -0.98644365642E+02  0.40298108337E+02 -0.34462977581E+03  0.36072750211E+03  0.00000000000E+00 0.  1.
         14    1    4    4    0    0 -0.23407580387E+02  0.65765222105E+02 -0.14184775648E+03  0.15809416585E+03  0.00000000000E+00 0. -1.
         -5    1    5    5    0  502  0.17671612552E+02 -0.41153583119E+02  0.69751222661E+02  0.83025456075E+02  0.47000000000E+01 0.  1.
         13    1    6    6    0    0  0.64531286815E+02  0.36987419581E+01 -0.18482954450E+02  0.67227875731E+02  0.00000000000E+00 0. -1.
        -14    1    6    6    0    0  0.10528911551E+02 -0.52149497263E+02 -0.37098299235E+02  0.64859169355E+02  0.00000000000E+00 0.  1.
</event>
<event>
12    1  0.1594973E-001  0.1759530E+03  0.7818608E-02  0.1171882E+00
         21   -1    0    0  503  502  0.00000000000E+00  0.00000000000E+00  0.33253613643E+02  0.33253613643E+02  0.00000000000E+00 0.  1.
         21   -1    0    0  501  503 -0.00000000000E+00 -0.00000000000E+00 -0.93813870552E+03  0.93813870552E+03  0.00000000000E+00 0.  1.
          6    2    1    2  501    0 -0.32037314973E+02 -0.71552705595E+01 -0.50142891895E+03  0.53140421199E+03  0.17286378543E+03 0.  0.
         24    2    3    3    0    0 -0.73247072491E+02  0.19846285750E+02 -0.43456050577E+03  0.44821284922E+03  0.79327903963E+02 0.  0.
         -6    2    1    2    0  502  0.32037314973E+02  0.71552705595E+01 -0.40345617293E+03  0.43998810718E+03  0.17243857902E+03 0.  0.
        -24    2    5    5    0    0  0.39563871135E+02 -0.59663748314E+02 -0.20605262137E+03  0.23139356626E+03  0.77202571016E+02 0.  0.
          5    1    3    3  501    0  0.41209757518E+02 -0.27001556310E+02 -0.66868413182E+02  0.83191362769E+02  0.47000000000E+01 0. -1.
        -13    1    4    4    0    0 -0.18355829162E+02  0.23219259397E+02 -0.31751125832E+03  0.31888786372E+03  0.00000000000E+00 0.  1.
         14    1    4    4    0    0 -0.54891243329E+02 -0.33729736469E+01 -0.11704924745E+03  0.12932498550E+03  0.00000000000E+00 0. -1.
         -5    1    5    5    0  502 -0.75265561619E+01  0.66819018873E+02 -0.19740355157E+03  0.20859454092E+03  0.47000000000E+01 0.  1.
         11    1    6    6    0    0 -0.20613663937E+02 -0.22244301506E+02 -0.35408034762E+02  0.46620392706E+02  0.00000000000E+00 0. -1.
        -12    1    6    6    0    0  0.60177535072E+02 -0.37419446808E+02 -0.17064458660E+03  0.18477317355E+03  0.00000000000E+00 0.  1.
</event>
<event>
12    1  0.1594973E-001  0.2773577E+03  0.7818608E-02  0.1097173E+00
         21   -1    0    0  501  502  0.00000000000E+00  0.00000000000E+00  0.75532832544E+03  0.75532832544E+03  0.00000000000E+00 0. -1.
         21   -1    0    0  502  503 -0.00000000000E+00 -0.00000000000E+00 -0.15196903433E+03  0.15196903433E+03  0.00000000000E+00 0.  1.
         -6    2    1    2    0  503 -0.15437659448E+03 -0.15334055243E+03  0.41010432650E+02  0.28037322384E+03  0.17199369499E+03 0.  0.
        -24    2    3    3    0    0 -0.63627226339E+02 -0.99951128662E+02  0.84013028094E+02  0.16654356336E+03  0.81485689273E+02 0.  0.
          6    2    1    2  501    0  0.15437659448E+03  0.15334055243E+03  0.56234885846E+03  0.62692413593E+03  0.17161636187E+03 0.  0.
         24    2    5    5    0    0  0.15256195901E+03  0.64062664326E+02  0.33251810124E+03  0.38031087357E+03  0.81785674843E+02 0.  0.
          5    1    5    5  501    0  0.18146354705E+01  0.89277888109E+02  0.22983075722E+03  0.24661326236E+03  0.47000000000E+01 0. -1.
        -11    1    6    6    0    0  0.43823469686E+02 -0.13198890402E+02  0.49402974000E+02  0.67345089229E+02  0.00000000000E+00 0.  1.
         12    1    6    6    0    0  0.10873848932E+03  0.77261554727E+02  0.28311512724E+03  0.31296578434E+03  0.00000000000E+00 0. -1.
         -5    1    3    3    0  503 -0.90749368140E+02 -0.53389423773E+02 -0.43002595444E+02  0.11382966047E+03  0.47000000000E+01 0.  1.
         13    1    4    4    0    0 -0.78936798792E+02 -0.65620392607E+02  0.44117996882E+02  0.11172936847E+03  0.00000000000E+00 0. -1.
        -14    1    4    4    0    0  0.15309572453E+02 -0.34330736055E+02  0.39895031212E+02  0.54814194896E+02  0.00000000000E+00 0.  1.
</event>
<event>
12    1  0.1594973E-001  0.3140703E+03  0.7818608E-02  0.1078548E+00
         21   -1    0    0  503  502  0.00000000000E+00  0.00000000000E+00  0.32778097042E+03  0.32778097042E+03  0.00000000000E+00 0. -1.
         21   -1    0    0  501  503 -0.00000000000E+00 -0.00000000000E+00 -0.29984210661E+03  0.29984210661E+03  0.00000000000E+00 0.  1.
          6    2    1    2  501    0 -0.19750620592E+03  0.17225919917E+03  0.11325183523E+02  0.31311367519E+03  0.17096777688E+03 0.  0.
         24    2    3    3    0    0 -0.45862652613E+02  0.71001068361E+02 -0.39988463614E+02  0.12362975319E+03  0.80874619243E+02 0.  0.
         -6    2    1    2    0  502  0.19750620592E+03 -0.17225919917E+03  0.16613680289E+02  0.31450940184E+03  0.17308441986E+03 0.  0.
        -24    2    5    5    0    0  0.20342589457E+03 -0.16770248278E+03  0.49850073117E+02  0.28012111624E+03  0.80477280399E+02 0.  0.
          5    1    3    3  501    0 -0.15164355330E+03  0.10125813081E+03  0.51313647137E+02  0.18948392200E+03  0.47000000000E+01 0. -1.
        -13    1    4    4    0    0 -0.35811186437E+02  0.80859415824E+02 -0.81403913641E+01  0.88808514079E+02  0.00000000000E+00 0.  1.
         14    1    4    4    0    0 -0.10051466176E+02 -0.98583474626E+01 -0.31848072249E+02  0.34821239108E+02  0.00000000000E+00 0. -1.
         -5    1    5    5    0  502 -0.59196886554E+01 -0.45567163874E+01 -0.33236392829E+02  0.34388285596E+02  0.47000000000E+01 0.  1.
         13    1    6    6    0    0  0.89106491279E+02 -0.75101224886E+02 -0.18338584197E+02  0.11796806533E+03  0.00000000000E+00 0. -1.
        -14    1    6    6    0    0  0.11431940329E+03 -0.92601257897E+02  0.68188657314E+02  0.16215305091E+03  0.00000000000E+00 0.  1.
</event>
<event>
12    1  0.1594973E-001  0.2098353E+03  0.7818608E-02  0.1142455E+00
         21   -1    0    0  501  502  0.00000000000E+00  0.00000000000E+00  0.16442733733E+04  0.16442733733E+04  0.00000000000E+00 0.  1.
         21   -1    0    0  502  503 -0.00000000000E+00 -0.00000000000E+00 -0.63815479939E+02  0.63815479939E+02  0.00000000000E+00 0.  1.
         -6    2    1    2    0  503  0.75752679705E+01 -0.12146747617E+03  0.13835883642E+03  0.25134446493E+03  0.17093606987E+03 0.  0.
        -24    2    3    3    0    0 -0.22293288733E+02 -0.10947650414E+03  0.16102938298E+03  0.21169654227E+03  0.80017923888E+02 0.  0.
          6    2    1    2  501    0 -0.75752679705E+01  0.12146747617E+03  0.14420990569E+04  0.14567443883E+04  0.16626121135E+03 0.  0.
         24    2    5    5    0    0 -0.58393460783E+02  0.83148055830E+02  0.71192986427E+03  0.72379145215E+03  0.81893462030E+02 0.  0.
          5    1    5    5  501    0  0.50818192812E+02  0.38319420341E+02  0.73016919267E+03  0.73295293616E+03  0.47000000000E+01 0. -1.
        -11    1    6    6    0    0 -0.36462161194E+02  0.97411901509E+02  0.58826640835E+03  0.59739093980E+03  0.00000000000E+00 0.  1.
         12    1    6    6    0    0 -0.21931299589E+02 -0.14263845680E+02  0.12366345592E+03  0.12640051236E+03  0.00000000000E+00 0. -1.
         -5    1    3    3    0  503  0.29868556703E+02 -0.11990972026E+02 -0.22670546561E+02  0.39647922658E+02  0.47000000000E+01 0.  1.
         11    1    4    4    0    0 -0.20348767946E+02  0.50674915248E-01  0.57406523319E+02  0.60906353071E+02  0.00000000000E+00 0. -1.
        -12    1    4    4    0    0 -0.19445207867E+01 -0.10952717906E+03  0.10362285966E+03  0.15079018920E+03  0.00000000000E+00 0.  1.
</event>
<event>
12    1  0.1594973E-001  0.2396152E+03  0.7818608E-02  0.1120513E+00
         21   -1    0    0  501  502  0.00000000000E+00  0.00000000000E+00  0.73204937902E+03  0.73204937902E+03  0.00000000000E+00 0. -1.
         21   -1    0    0  502  503 -0.00000000000E+00 -0.00000000000E+00 -0.20058248471E+03  0.20058248471E+03  0.00000000000E+00 0.  1.
         -6    2    1    2    0  503 -0.14021338492E+03 -0.87747441786E+02 -0.10009933706E+03  0.25713845349E+03  0.16953141341E+03 0.  0.
        -24    2    3    3    0    0 -0.57863041024E+02 -0.11288986760E+03 -0.55891275873E+02  0.16023559807E+03  0.80370134050E+02 0.  0.
          6    2    1    2  501    0  0.14021338492E+03  0.87747441786E+02  0.63156623137E+03  0.67549341024E+03  0.17336676678E+03 0.  0.
         24    2    5    5    0    0  0.15390295075E+03  0.11598001995E+03  0.54043582785E+03  0.57899821281E+03  0.77656700484E+02 0.  0.
          5    1    5    5  501    0 -0.13689565832E+02 -0.28232578166E+02  0.91130403513E+02  0.96495197429E+02  0.47000000000E+01 0. -1.
        -13    1    6    6    0    0  0.61420278383E+01 -0.11097082712E+02  0.27423615811E+02  0.30214639744E+02  0.00000000000E+00 0.  1.
         14    1    6    6    0    0  0.14776092291E+03  0.12707710266E+03  0.51301221204E+03  0.54878357307E+03  0.00000000000E+00 0. -1.
         -5    1    3    3    0  503 -0.82350343895E+02  0.25142425810E+02 -0.44208061187E+02  0.96902855423E+02  0.47000000000E+01 0.  1.
         13    1    4    4    0    0  0.14711897826E+02 -0.22387478029E+02  0.77900647375E+01  0.27898462659E+02  0.00000000000E+00 0. -1.
        -14    1    4    4    0    0 -0.72574938850E+02 -0.90502389567E+02 -0.63681340610E+02  0.13233713541E+03  0.00000000000E+00 0.  1.
</event>
<event>
12    1  0.1594973E-001  0.2601519E+03  0.7818608E-02  0.1107174E+00
         21   -1    0    0  503  502  0.00000000000E+00  0.00000000000E+00  0.12561147785E+03  0.12561147785E+03  0.00000000000E+00 0.  1.
         21   -1    0    0  501  503 -0.00000000000E+00 -0.00000000000E+00 -0.53766159514E+03  0.53766159514E+03  0.00000000000E+00 0. -1.
          6    2    1    2  501    0  0.97258347911E+02  0.16809727285E+03 -0.19509893355E+03  0.32453008987E+03  0.17187293557E+03 0.  0.
         24    2    3    3    0    0  0.28568435540E+02  0.84753952429E+02 -0.25559179857E+02  0.12345738858E+03  0.81173069174E+02 0.  0.
         -6    2    1    2    0  502 -0.97258347911E+02 -0.16809727285E+03 -0.21695118374E+03  0.33874298312E+03  0.17309856472E+03 0.  0.
        -24    2    5    5    0    0 -0.76030493530E+02 -0.54818314973E+02 -0.17902911500E+03  0.21732256722E+03  0.79949925593E+02 0.  0.
          5    1    3    3  501    0  0.68689912371E+02  0.83343320423E+02 -0.16953975369E+03  0.20107270129E+03  0.47000000000E+01 0. -1.
        -13    1    4    4    0    0  0.48255176573E+02  0.58843681931E+02  0.82340544587E+01  0.76543717065E+02  0.00000000000E+00 0.  1.
         14    1    4    4    0    0 -0.19686741033E+02  0.25910270498E+02 -0.33793234315E+02  0.46913671518E+02  0.00000000000E+00 0. -1.
         -5    1    5    5    0  502 -0.21227854381E+02 -0.11327895788E+03 -0.37922068743E+02  0.12142041590E+03  0.47000000000E+01 0.  1.
         11    1    6    6    0    0 -0.37781164399E+02 -0.70292696017E+02 -0.97907450806E+02  0.12631052379E+03  0.00000000000E+00 0. -1.
        -12    1    6    6    0    0 -0.38249329131E+02  0.15474381044E+02 -0.81121664193E+02  0.91012043429E+02  0.00000000000E+00 0.  1.
</event>
<event>
12    1  0.1594973E-001  0.2599078E+03  0.7818608E-02  0.1107302E+00
         21   -1    0    0  501  502  0.00000000000E+00  0.00000000000E+00  0.41743137281E+03  0.41743137281E+03  0.00000000000E+00 0. -1.
         21   -1    0    0  502  503 -0.00000000000E+00 -0.00000000000E+00 -0.18071677130E+03  0.18071677130E+03  0.00000000000E+00 0.  1.
         -6    2    1    2    0  503 -0.22989489715E+02 -0.19267743667E+03  0.21627591806E+03  0.33812324094E+03  0.17291310562E+03 0.  0.
        -24    2    3    3    0    0 -0.15345476315E+02 -0.18194063372E+03  0.23935858861E+03  0.31113047232E+03  0.78560543687E+02 0.  0.
          6    2    1    2  501    0  0.22989489715E+02  0.19267743667E+03  0.20438683452E+02  0.26002490316E+03  0.17187815231E+03 0.  0.
         24    2    5    5    0    0 -0.10317844971E+02  0.71291077961E+02 -0.47428528315E+02  0.11694424389E+03  0.78978574047E+02 0.  0.
          5    1    5    5  501    0  0.33307334686E+02  0.12138635871E+03  0.67867211766E+02  0.14308065927E+03  0.47000000000E+01 0. -1.
        -13    1    6    6    0    0  0.20866766347E+02  0.12271416740E+02 -0.43860177390E+02  0.50097153285E+02  0.00000000000E+00 0.  1.
         14    1    6    6    0    0 -0.31184611318E+02  0.59019661221E+02 -0.35683509249E+01  0.66847090602E+02  0.00000000000E+00 0. -1.
         -5    1    3    3    0  503 -0.76440133993E+01 -0.10736802955E+02 -0.23082670547E+02  0.26992768627E+02  0.47000000000E+01 0.  1.
         13    1    4    4    0    0  0.18615449327E+02 -0.27716415070E+02  0.80428158415E+02  0.87082852985E+02  0.00000000000E+00 0. -1.
        -14    1    4    4    0    0 -0.33960925642E+02 -0.15422421865E+03  0.15893043019E+03  0.22404761933E+03  0.00000000000E+00 0.  1.
</event>
<event>
12    1  0.1594973E-001  0.2022302E+03  0.7818608E-02  0.1148326E+00
         21   -1    0    0  501  502  0.00000000000E+00  0.00000000000E+00  0.15870888633E+03  0.15870888633E+03  0.00000000000E+00 0.  1.
         21   -1    0    0  502  503 -0.00000000000E+00 -0.00000000000E+00 -0.25779509966E+03  0.25779509966E+03  0.00000000000E+00 0.  1.
         -6    2    1    2    0  503  0.48730414177E+02  0.91431403053E+02 -0.71789231163E+02  0.21459439334E+03  0.17367413513E+03 0.  0.
        -24    2    3    3    0    0  0.62107898105E+01 -0.13523357998E+02 -0.59397802353E+02  0.10058098259E+03  0.79793358198E+02 0.  0.
          6    2    1    2  501    0 -0.48730414177E+02 -0.91431403053E+02 -0.27296982166E+02  0.20190959265E+03  0.17113738235E+03 0.  0.
         24    2    5    5    0    0 -0.53400893986E+02  0.13610878702E+02 -0.17301870470E+02  0.96185013688E+02  0.76910926655E+02 0.  0.
          5    1    5    5  501    0  0.46704798085E+01 -0.10504228176E+03 -0.99951116961E+01  0.10572457896E+03  0.47000000000E+01 0. -1.
        -11    1    6    6    0    0  0.16011361208E+02  0.55911427666E+01 -0.20045304795E+02  0.26257166821E+02  0.00000000000E+00 0.  1.
         12    1    6    6    0    0 -0.69412255194E+02  0.80197359358E+01  0.27434343252E+01  0.69927846867E+02  0.00000000000E+00 0. -1.
         -5    1    3    3    0  503  0.42519624367E+02  0.10495476105E+03 -0.12391428810E+02  0.11401341075E+03  0.47000000000E+01 0.  1.
         11    1    4    4    0    0  0.22926955843E+02  0.28106851410E+02 -0.28056580783E+02  0.45856429491E+02  0.00000000000E+00 0. -1.
        -12    1    4    4    0    0 -0.16716166033E+02 -0.41630209408E+02 -0.31341221571E+02  0.54724553098E+02  0.00000000000E+00 0.  1.
</event>
<event>
12    1  0.1594973E-001  0.2676064E+03  0.7818608E-02  0.1103007E+00
         21   -1    0    0  501  502  0.00000000000E+00  0.00000000000E+00  0.13212771403E+04  0.13212771403E+04  0.00000000000E+00 0.  1.
         21   -1    0    0  502  503 -0.00000000000E+00 -0.00000000000E+00 -0.74559624431E+02  0.74559624431E+02  0.00000000000E+00 0. -1.
         -6    2    1    2    0  503  0.15822663658E+03  0.12531096718E+03  0.25636098366E+03  0.37058622737E+03  0.17571195450E+03 0.  0.
        -24    2    3    3    0    0  0.17662605173E+03  0.13685042039E+03  0.20195456092E+03  0.31181679405E+03  0.80741988235E+02 0.  0.
          6    2    1    2  501    0 -0.15822663658E+03 -0.12531096718E+03  0.99035653223E+03  0.10252505374E+04  0.17202934764E+03 0.  0.
         24    2    5    5    0    0 -0.10765336731E+03 -0.39697264711E+01  0.49906775319E+03  0.51665629176E+03  0.79120764185E+02 0.  0.
          5    1    5    5  501    0 -0.50573269266E+02 -0.12134124071E+03  0.49128877905E+03  0.50859424562E+03  0.47000000000E+01 0. -1.
        -13    1    6    6    0    0 -0.41795461761E+02  0.15154059494E+01  0.36286855925E+03  0.36527078773E+03  0.00000000000E+00 0.  1.
         14    1    6    6    0    0 -0.65857905551E+02 -0.54851324204E+01  0.13619919394E+03  0.15138550403E+03  0.00000000000E+00 0. -1.
         -5    1    3    3    0  503 -0.18399415149E+02 -0.11539453206E+02  0.54406422735E+02  0.58769433322E+02  0.47000000000E+01 0.  1.
         13    1    4    4    0    0  0.11735566744E+03  0.91923145992E+02  0.80548732976E+02  0.16944118695E+03  0.00000000000E+00 0. -1.
        -14    1    4    4    0    0  0.59270384282E+02  0.44927274396E+02  0.12140582795E+03  0.14237560710E+03  0.00000000000E+00 0.  1.
</event>
<event>
12    1  0.1594973E-001  0.2108991E+03  0.7818608E-02  0.1141186E+00
         21   -1    0    0  503  502  0.00000000000E+00  0.00000000000E+00  0.83919803703E+03  0.83919803703E+03  0.00000000000E+00 0.  1.
         21   -1    0    0  501  503 -0.00000000000E+00 -0.00000000000E+00 -0.56369167566E+02  0.56369167566E+02  0.00000000000E+00 0.  1.
          6    2    1    2  501    0  0.10162719855E+03 -0.59854183407E+02  0.27681313590E+03  0.34799991490E+03  0.17483654597E+03 0.  0.
         24    2    3    3    0    0  0.31763428656E+01 -0.56670607334E+02  0.19818663786E+03  0.22187726691E+03  0.82036158221E+02 0.  0.
         -6    2    1    2    0  502 -0.10162719855E+03  0.59854183407E+02  0.50601573356E+03  0.54756728969E+03  0.17282188337E+03 0.  0.
        -24    2    5    5    0    0 -0.10539256099E+03  0.12571287030E+02  0.46774536894E+03  0.48643987316E+03  0.81070283476E+02 0.  0.
          5    1    3    3  501    0  0.98450855687E+02 -0.31835760727E+01  0.78626498040E+02  0.12612264799E+03  0.47000000000E+01 0. -1.
        -13    1    4    4    0    0  0.41407921249E+02 -0.40952311523E+02  0.10923984984E+03  0.12379439630E+03  0.00000000000E+00 0.  1.
         14    1    4    4    0    0 -0.38231578383E+02 -0.15718295812E+02  0.88946788019E+02  0.98082870614E+02  0.00000000000E+00 0. -1.
         -5    1    5    5    0  502  0.37653624323E+01  0.47282896378E+02  0.38270364620E+02  0.61127416535E+02  0.47000000000E+01 0.  1.
         13    1    6    6    0    0 -0.23101913822E+01  0.26543523013E+02  0.14232168825E+03  0.14479419375E+03  0.00000000000E+00 0. -1.
        -14    1    6    6    0    0 -0.10308236960E+03 -0.13972235984E+02  0.32542368070E+03  0.34164567941E+03  0.00000000000E+00 0.  1.
</event>
<event>
12    1  0.1594973E-001  0.2131345E+03  0.7818608E-02  0.1139167E+00
         21   -1    0    0  503  502  0.00000000000E+00  0.00000000000E+00  0.13786307797E+04  0.13786307797E+04  0.00000000000E+00 0. -1.
         21   -1    0    0  501  503 -0.00000000000E+00 -0.00000000000E+00 -0.58955476844E+02  0.58955476844E+02  0.00000000000E+00 0. -1.
          6    2    1    2  501    0 -0.38400685628E+02 -0.11867786827E+03  0.18175136648E+03  0.27987420117E+03  0.17244407843E+03 0.  0.
         24    2    3    3    0    0  0.23956789906E+02 -0.68764723032E+02  0.16224753518E+03  0.19751968546E+03  0.85949104444E+02 0.  0.
         -6    2    1    2    0  502  0.38400685628E+02  0.11867786827E+03  0.11379239364E+04  0.11577120554E+04  0.17282149496E+03 0.  0.
        -24    2    5    5    0    0  0.46329730500E+02  0.12362867067E+03  0.58053891516E+03  0.60022884301E+03  0.76280664831E+02 0.  0.
          5    1    3    3  501    0 -0.62357475534E+02 -0.49913145238E+02  0.19503831304E+02  0.82354515711E+02  0.47000000000E+01 0. -1.
        -13    1    4    4    0    0 -0.20120331866E+02 -0.56413375571E+02  0.12461489645E+03  0.13826123504E+03  0.00000000000E+00 0.  1.
         14    1    4    4    0    0  0.44077121772E+02 -0.12351347461E+02  0.37632638726E+02  0.59258450413E+02  0.00000000000E+00 0. -1.
         -5    1    5    5    0  502 -0.79290448716E+01 -0.49508023990E+01  0.55738502125E+03  0.55748321240E+03  0.47000000000E+01 0.  1.
         11    1    6    6    0    0  0.47922168906E+02  0.10980808584E+03  0.57082071665E+03  0.58325863949E+03  0.00000000000E+00 0. -1.
        -12    1    6    6    0    0 -0.15924384068E+01  0.13820584831E+02  0.97181985136E+01  0.16970203520E+02  0.00000000000E+00 0.  1.
</event>
<event>
12    1  0.1594973E-001  0.1769102E+03  0.7818608E-02  0.1172505E+00
         21   -1    0    0  503  502  0.00000000000E+00  0.00000000000E+00  0.12994982878E+03  0.12994982878E+03  0.00000000000E+00 0.  1.
         21   -1    0    0  501  503 -0.00000000000E+00 -0.00000000000E+00 -0.32279457066E+03  0.32279457066E+03  0.00000000000E+00 0.  1.
          6    2    1    2  501    0  0.77704493803E+01  0.47512159365E+02 -0.21521638264E+03  0.27442528682E+03  0.16331981362E+03 0.  0.
         24    2    3    3    0    0 -0.48055581009E+02  0.96665210780E+01 -0.16477049431E+03  0.19007058538E+03  0.81084715795E+02 0.  0.
         -6    2    1    2    0  502 -0.77704493803E+01 -0.47512159365E+02  0.22371640757E+02  0.17831911261E+03  0.17023345864E+03 0.  0.
        -24    2    5    5    0    0 -0.14323573142E+02 -0.90862495087E+02 -0.11498940104E+02  0.12271784207E+03  0.80413216437E+02 0.  0.
          5    1    3    3  501    0  0.55826030390E+02  0.37845638287E+02 -0.50445888325E+02  0.84354701441E+02  0.47000000000E+01 0. -1.
        -13    1    4    4    0    0  0.30777161927E+01 -0.29728245417E+02 -0.59537675544E+02  0.66618133580E+02  0.00000000000E+00 0.  1.
         14    1    4    4    0    0 -0.51133297202E+02  0.39394766494E+02 -0.10523281877E+03  0.12345245180E+03  0.00000000000E+00 0. -1.
         -5    1    5    5    0  502  0.65531237615E+01  0.43350335722E+02  0.33870580861E+02  0.55601270544E+02  0.47000000000E+01 0.  1.
         11    1    6    6    0    0  0.25782202927E+02 -0.74457844490E+02 -0.57123082067E+01  0.79002044650E+02  0.00000000000E+00 0. -1.
        -12    1    6    6    0    0 -0.40105776069E+02 -0.16404650597E+02 -0.57866318971E+01  0.43715797420E+02  0.00000000000E+00 0.  1.
</event>
<event>
12    1  0.1594973E-001  0.1897504E+03  0.7818608E-02  0.1158884E+00
         21   -1    0    0  501  502  0.00000000000E+00  0.00000000000E+00  0.23286512710E+03  0.23286512710E+03  0.00000000000E+00 0. -1.
         21   -1    0    0  502  503 -0.00000000000E+00 -0.00000000000E+00 -0.27395174423E+03  0.27395174423E+03  0.00000000000E+00 0. -1.
         -6    2    1    2    0  503  0.15685644033E+02 -0.75916262747E+02 -0.18831512236E+03  0.26733462002E+03  0.17319323132E+03 0.  0.
        -24    2    3    3    0    0 -0.72632199486E+01 -0.11066273950E+03 -0.17700542262E+03  0.22392992772E+03  0.80713670565E+02 0.  0.
          6    2    1    2  501    0 -0.15685644033E+02  0.75916262747E+02  0.14722850523E+03  0.23948225131E+03  0.17223878065E+03 0.  0.
         24    2    5    5    0    0 -0.42405534173E+02  0.60082424005E+01  0.20456129102E+02  0.92192030359E+02  0.79035365114E+02 0.  0.
          5    1    5    5  501    0  0.26719890140E+02  0.69908020346E+02  0.12677237613E+03  0.14729022095E+03  0.47000000000E+01 0. -1.
        -13    1    6    6    0    0  0.23425841300E+02  0.51630095782E+01  0.70691128217E+01  0.25007980019E+02  0.00000000000E+00 0.  1.
         14    1    6    6    0    0 -0.65831375473E+02  0.84523282228E+00  0.13387016281E+02  0.67184050340E+02  0.00000000000E+00 0. -1.
         -5    1    3    3    0  503  0.22948863981E+02  0.34746476757E+02 -0.11309699744E+02  0.43404692297E+02  0.47000000000E+01 0.  1.
         11    1    4    4    0    0 -0.20750214714E+02 -0.38864512681E+02 -0.12949807718E+03  0.13678733038E+03  0.00000000000E+00 0. -1.
        -12    1    4    4    0    0  0.13486994765E+02 -0.71798226823E+02 -0.47507345434E+02  0.87142597350E+02  0.00000000000E+00 0.  1.
</event>
<event>
12    1  0.1594973E-001  0.2023414E+03  0.7818608E-02  0.1147877E+00
         21   -1    0    0  501  502  0.00000000000E+00  0.00000000000E+00  0.51290605548E+02  0.51290605548E+02  0.00000000000E+00 0. -1.
         21   -1    0    0  502  503 -0.00000000000E+00 -0.00000000000E+00 -0.79719353743E+03  0.79719353743E+03  0.00000000000E+00 0. -1.
         -6    2    1    2    0  503  0.96734893392E+02  0.46769854105E+02 -0.38609017625E+03  0.43567999469E+03  0.17089872652E+03 0.  0.
        -24    2    3    3    0    0  0.10220399348E+03  0.52015544459E+01 -0.36675153730E+03  0.38926978516E+03  0.80941726415E+02 0.  0.
          6    2    1    2  501    0 -0.96734893392E+02 -0.46769854105E+02 -0.35981275563E+03  0.41280414829E+03  0.17145549531E+03 0.  0.
         24    2    5    5    0    0 -0.45493704459E+02  0.26749614692E+01 -0.31379292107E+03  0.32789028367E+03  0.83481783927E+02 0.  0.
          5    1    5    5  501    0 -0.51241188934E+02 -0.49444815575E+02 -0.46019834560E+02  0.84913864613E+02  0.47000000000E+01 0. -1.
        -13    1    6    6    0    0  0.17256996778E+02  0.10251054298E+02 -0.24012753334E+02  0.31296970695E+02  0.00000000000E+00 0.  1.
         14    1    6    6    0    0 -0.62750701237E+02 -0.75760928289E+01 -0.28978016774E+03  0.29659331298E+03  0.00000000000E+00 0. -1.
         -5    1    3    3    0  503 -0.54691000889E+01  0.41568299660E+02 -0.19338638948E+02  0.46410209531E+02  0.47000000000E+01 0.  1.
         13    1    4    4    0    0  0.97277981618E+02  0.29636290830E+02 -0.25008286651E+03  0.26996806397E+03  0.00000000000E+00 0. -1.
        -14    1    4    4    0    0  0.49260118630E+01 -0.24434736385E+02 -0.11666867080E+03  0.11930172120E+03  0.00000000000E+00 0.  1.
</event>
<event>
12    1  0.1594973E-001  0.1785471E+03  0.7818608E-02  0.1170134E+00
         21   -1    0    0  501  502  0.00000000000E+00  0.00000000000E+00  0.95372072365E+02  0.95372072365E+02  0.00000000000E+00 0. -1.
         21   -1    0    0  502  503 -0.00000000000E+00 -0.00000000000E+00 -0.38423496516E+03  0.38423496516E+03  0.00000000000E+00 0.  1.
         -6    2    1    2    0  503  0.32145161331E+02  0.29978340767E+02 -0.23540522821E+03  0.29322893682E+03  0.16922049405E+03 0.  0.
        -24    2    3    3    0    0  0.34411298830E+02 -0.45984188358E+01 -0.43983646352E+02  0.98639626514E+02  0.81178395091E+02 0.  0.
          6    2    1    2  501    0 -0.32145161331E+02 -0.29978340767E+02 -0.53457664590E+02  0.18637810071E+03  0.17305219504E+03 0.  0.
         24    2    5    5    0    0 -0.51747325084E+02 -0.28517459358E+02 -0.97295259902E+02  0.13810591658E+03  0.78203871086E+02 0.  0.
          5    1    5    5  501    0  0.19602163753E+02 -0.14608814098E+01  0.43837595312E+02  0.48272184134E+02  0.47000000000E+01 0. -1.
        -13    1    6    6    0    0 -0.72242520469E+02 -0.24886090822E+02 -0.68805188883E+02  0.10282243577E+03  0.00000000000E+00 0.  1.
         14    1    6    6    0    0  0.20495195385E+02 -0.36313685360E+01 -0.28490071018E+02  0.35283480809E+02  0.00000000000E+00 0. -1.
         -5    1    3    3    0  503 -0.22661374999E+01  0.34576759603E+02 -0.19142158186E+03  0.19458931030E+03  0.47000000000E+01 0.  1.
         13    1    4    4    0    0  0.54982770876E+02 -0.17036174954E+02 -0.12287247602E+02  0.58858413196E+02  0.00000000000E+00 0. -1.
        -14    1    4    4    0    0 -0.20571472046E+02  0.12437756118E+02 -0.31696398750E+02  0.39781213319E+02  0.00000000000E+00 0.  1.
</event>
<event>
12    1  0.1594973E-001  0.2066239E+03  0.7818608E-02  0.1144326E+00
         21   -1    0    0  501  502  0.00000000000E+00  0.00000000000E+00  0.63037467935E+03  0.63037467935E+03  0.00000000000E+00 0.  1.
         21   -1    0    0  502  503 -0.00000000000E+00 -0.00000000000E+00 -0.67691067663E+02  0.67691067663E+02  0.00000000000E+00 0.  1.
         -6    2    1    2    0  503 -0.61585816072E+02  0.95917353330E+02  0.29139161311E+03  0.35704849289E+03  0.17199303090E+03 0.  0.
        -24    2    3    3    0    0 -0.59050981236E+02 -0.32816558027E+01  0.18451020560E+03  0.21112867220E+03  0.83866039638E+02 0.  0.
          6    2    1    2  501    0  0.61585816072E+02 -0.95917353330E+02  0.27129199858E+03  0.34101725412E+03  0.17233823633E+03 0.  0.
         24    2    5    5    0    0  0.40361691080E+02 -0.31554551808E+02  0.25471158028E+03  0.27108847626E+03  0.77370646809E+02 0.  0.
          5    1    5    5  501    0  0.21224124992E+02 -0.64362801522E+02  0.16580418300E+02  0.69928777856E+02  0.47000000000E+01 0. -1.
        -11    1    6    6    0    0  0.51958607400E+02 -0.49067277037E+02  0.18684641787E+03  0.20004719051E+03  0.00000000000E+00 0.  1.
         12    1    6    6    0    0 -0.11596916320E+02  0.17512725229E+02  0.67865162406E+02  0.71041285753E+02  0.00000000000E+00 0. -1.
         -5    1    3    3    0  503 -0.25348348357E+01  0.99199009133E+02  0.10688140751E+03  0.14591982070E+03  0.47000000000E+01 0.  1.
         13    1    4    4    0    0  0.74577068865E+01 -0.27779094987E+02  0.32455946210E+02  0.43366853180E+02  0.00000000000E+00 0. -1.
        -14    1    4    4    0    0 -0.66508688123E+02  0.24497439185E+02  0.15205425939E+03  0.16776181902E+03  0.00000000000E+00 0.  1.
</event>
<event>
12    1  0.1594973E-001  0.2279331E+03  0.7818608E-02  0.1128123E+00
         21   -1    0    0  503  502  0.00000000000E+00  0.00000000000E+00  0.16481874981E+03  0.16481874981E+03  0.00000000000E+00 0. -1.
         21   -1    0    0  501  503 -0.00000000000E+00 -0.00000000000E+00 -0.32743291163E+03  0.32743291163E+03  0.00000000000E+00 0. -1.
          6    2    1    2  501    0  0.72682400931E+02 -0.13105519538E+03 -0.12912510384E+03  0.26187146699E+03  0.17159597064E+03 0.  0.
         24    2    3    3    0    0  0.81473087894E+02 -0.86702617492E+02 -0.18538361317E+02  0.14230581571E+03  0.75842378745E+02 0.  0.
         -6    2    1    2    0  502 -0.72682400931E+02  0.13105519538E+03 -0.33489057977E+02  0.23038019445E+03  0.17174201975E+03 0.  0.
        -24    2    5    5    0    0 -0.38775184910E+02  0.13192469445E+03  0.26944934214E+02  0.16091932245E+03  0.79128748803E+02 0.  0.
          5    1    3    3  501    0 -0.87906869629E+01 -0.44352577884E+02 -0.11058674253E+03  0.11956565127E+03  0.47000000000E+01 0. -1.
        -11    1    4    4    0    0  0.80688266424E+02 -0.46552886281E+02 -0.34155188170E+02  0.99218669808E+02  0.00000000000E+00 0.  1.
         12    1    4    4    0    0  0.78482147033E+00 -0.40149731211E+02  0.15616826853E+02  0.43087145902E+02  0.00000000000E+00 0. -1.
         -5    1    5    5    0  502 -0.33907216022E+02 -0.86949907059E+00 -0.60433992192E+02  0.69460872001E+02  0.47000000000E+01 0.  1.
         11    1    6    6    0    0 -0.35646032285E+02  0.12376092615E+03 -0.39081645899E+01  0.12885138808E+03  0.00000000000E+00 0. -1.
        -12    1    6    6    0    0 -0.31291526249E+01  0.81637682992E+01  0.30853098804E+02  0.32067934371E+02  0.00000000000E+00 0.  1.
</event>
<event>
12    1  0.1594973E-001  0.2390226E+03  0.7818608E-02  0.1120660E+00
         21   -1    0    0  501  502  0.00000000000E+00  0.00000000000E+00  0.17917588001E+03  0.17917588001E+03  0.00000000000E+00 0. -1.
         21   -1    0    0  502  503 -0.00000000000E+00 -0.00000000000E+00 -0.33184167824E+03  0.33184167824E+03  0.00000000000E+00 0. -1.
         -6    2    1    2    0  503 -0.14226262512E+03  0.83400771105E+02 -0.22782032133E+02  0.24010589029E+03  0.17302449085E+03 0.  0.
        -24    2    3    3    0    0 -0.13488255036E+03  0.22782610248E+02 -0.59070802585E+02  0.16891606103E+03  0.79567117789E+02 0.  0.
          6    2    1    2  501    0  0.14226262512E+03 -0.83400771105E+02 -0.12988376609E+03  0.27091166796E+03  0.17125710501E+03 0.  0.
         24    2    5    5    0    0  0.10278644873E+03  0.13940386758E+02 -0.68812832853E+02  0.14931636212E+03  0.82466851559E+02 0.  0.
          5    1    5    5  501    0  0.39476176394E+02 -0.97341157863E+02 -0.61070933239E+02  0.12159530584E+03  0.47000000000E+01 0. -1.
        -13    1    6    6    0    0  0.30661568320E+02  0.44549714292E+02 -0.30689995618E+02  0.62182671592E+02  0.00000000000E+00 0.  1.
         14    1    6    6    0    0  0.72124880407E+02 -0.30609327534E+02 -0.38122837236E+02  0.87133690526E+02  0.00000000000E+00 0. -1.
         -5    1    3    3    0  503 -0.73800747616E+01  0.60618160858E+02  0.36288770452E+02  0.71189829261E+02  0.47000000000E+01 0.  1.
         11    1    4    4    0    0 -0.10792674764E+03  0.46002859097E+02 -0.25629792191E+02  0.12008885106E+03  0.00000000000E+00 0. -1.
        -12    1    4    4    0    0 -0.26955802720E+02 -0.23220248849E+02 -0.33441010394E+02  0.48827209966E+02  0.00000000000E+00 0.  1.
</event>
<event>
12    1  0.1594973E-001  0.2087049E+03  0.7818608E-02  0.1142739E+00
         21   -1    0    0  501  502  0.00000000000E+00  0.00000000000E+00  0.27472234366E+03  0.27472234366E+03  0.00000000000E+00 0.  1.
         21   -1    0    0  502  503 -0.00000000000E+00 -0.00000000000E+00 -0.33973875104E+03  0.33973875104E+03  0.00000000000E+00 0.  1.
         -6    2    1    2    0  503 -0.98408612664E+02  0.64330649325E+02 -0.25723524919E+03  0.33125174823E+03  0.17243856816E+03 0.  0.
        -24    2    3    3    0    0 -0.33008730513E+02 -0.19813900555E+02 -0.52043180983E+02  0.99987127687E+02  0.76202139544E+02 0.  0.
          6    2    1    2  501    0  0.98408612664E+02 -0.64330649325E+02  0.19221884181E+03  0.28320934647E+03  0.17157145244E+03 0.  0.
         24    2    5    5    0    0  0.62299060381E+02 -0.91186586048E+02  0.72906478922E+02  0.15560577661E+03  0.81863524517E+02 0.  0.
          5    1    5    5  501    0  0.36109552283E+02  0.26855936723E+02  0.11931236289E+03  0.12760356986E+03  0.47000000000E+01 0. -1.
        -13    1    6    6    0    0  0.78016733135E+02 -0.86234159134E+02  0.75887189151E+02  0.13885894400E+03  0.00000000000E+00 0.  1.
         14    1    6    6    0    0 -0.15717672754E+02 -0.49524269146E+01 -0.29807102291E+01  0.16746832614E+02  0.00000000000E+00 0. -1.
         -5    1    3    3    0  503 -0.65399882151E+02  0.84144549879E+02 -0.20519206821E+03  0.23126462054E+03  0.47000000000E+01 0.  1.
         11    1    4    4    0    0 -0.33596500042E+02  0.23163503013E+02 -0.34960032348E+02  0.53735244940E+02  0.00000000000E+00 0. -1.
        -12    1    4    4    0    0  0.58776952929E+00 -0.42977403568E+02 -0.17083148635E+02  0.46251882748E+02  0.00000000000E+00 0.  1.
</event>
<event>
12    1  0.1594973E-001  0.1772994E+03  0.7818608E-02  0.1170678E+00
         21   -1    0    0  501  502  0.00000000000E+00  0.00000000000E+00  0.14284611617E+03  0.14284611617E+03  0.00000000000E+00 0.  1.
         21   -1    0    0  502  503 -0.00000000000E+00 -0.00000000000E+00 -0.25699697650E+03  0.25699697650E+03  0.00000000000E+00 0.  1.
         -6    2    1    2    0  503 -0.15886780491E+02 -0.35362971527E+02 -0.13419716368E+03  0.22235993712E+03  0.17300905568E+03 0.  0.
        -24    2    3    3    0    0  0.40160737675E+02 -0.44008170078E+01 -0.20151861759E+02  0.91484423003E+02  0.79567896032E+02 0.  0.
          6    2    1    2  501    0  0.15886780491E+02  0.35362971527E+02  0.20046303351E+02  0.17748315556E+03  0.17203338827E+03 0.  0.
         24    2    5    5    0    0 -0.19109105360E+02  0.36706146857E+02 -0.45674413886E+02  0.10286533717E+03  0.82356702114E+02 0.  0.
          5    1    5    5  501    0  0.34995885851E+02 -0.13431753301E+01  0.65720717237E+02  0.74617818385E+02  0.47000000000E+01 0. -1.
        -13    1    6    6    0    0  0.18207848452E+02  0.26182572952E+02  0.11399385641E+02  0.33867371681E+02  0.00000000000E+00 0.  1.
         14    1    6    6    0    0 -0.37316953812E+02  0.10523573905E+02 -0.57073799526E+02  0.68997965491E+02  0.00000000000E+00 0. -1.
         -5    1    3    3    0  503 -0.56047518166E+02 -0.30962154519E+02 -0.11404530192E+03  0.13087551412E+03  0.47000000000E+01 0.  1.
         11    1    4    4    0    0  0.37809538919E+02 -0.29662159388E+02 -0.37324571423E+02  0.60848406427E+02  0.00000000000E+00 0. -1.
        -12    1    4    4    0    0  0.23511987563E+01  0.25261342380E+02  0.17172709665E+02  0.30636016576E+02  0.00000000000E+00 0.  1.
</event>
<event>
12    1  0.1594973E-001  0.2128438E+03  0.7818608E-02  0.1139445E+00
         21   -1    0    0  501  502  0.00000000000E+00  0.00000000000E+00  0.10498983509E+04  0.10498983509E+04  0.00000000000E+00 0. -1.
         21   -1    0    0  502  503 -0.00000000000E+00 -0.00000000000E+00 -0.92755876492E+02  0.92755876492E+02  0.00000000000E+00 0. -1.
         -6    2    1    2    0  503  0.26119660304E+02 -0.12338009799E+03  0.60568138862E+02  0.22129385764E+03  0.17145724466E+03 0.  0.
        -24    2    3    3    0    0  0.21938669074E+02 -0.61503999198E+02  0.10263109418E+03  0.14621047399E+03  0.81119135196E+02 0.  0.
          6    2    1    2  501    0 -0.26119660304E+02  0.12338009799E+03  0.89657433555E+03  0.92136036976E+03  0.17074690792E+03 0.  0.
         24    2    5    5    0    0 -0.74112079942E+02  0.86401263818E+02  0.74906833638E+03  0.76182724997E+03  0.79495958660E+02 0.  0.
          5    1    5    5  501    0  0.47992419639E+02  0.36978834174E+02  0.14750599917E+03  0.15953311979E+03  0.47000000000E+01 0. -1.
        -11    1    6    6    0    0 -0.26829020514E+02  0.14029350856E+02  0.58511336600E+02  0.65880160427E+02  0.00000000000E+00 0.  1.
         12    1    6    6    0    0 -0.47283059428E+02  0.72371912962E+02  0.69055699978E+03  0.69594708954E+03  0.00000000000E+00 0. -1.
         -5    1    3    3    0  503  0.41809912296E+01 -0.61876098794E+02 -0.42062955314E+02  0.75083383644E+02  0.47000000000E+01 0.  1.
         11    1    4    4    0    0  0.25282925375E+02 -0.60062063223E+02  0.27075920033E+02  0.70567578956E+02  0.00000000000E+00 0. -1.
        -12    1    4    4    0    0 -0.33442563003E+01 -0.14419359750E+01  0.75555174143E+02  0.75642895036E+02  0.00000000000E+00 0.  1.
</event>
<event>
12    1  0.1594973E-001  0.2643097E+03  0.7818608E-02  0.1104768E+00
         21   -1    0    0  503  502  0.00000000000E+00  0.00000000000E+00  0.65891663934E+02  0.65891663934E+02  0.00000000000E+00 0.  1.
         21   -1    0    0  501  503 -0.00000000000E+00 -0.00000000000E+00 -0.14140231476E+04  0.14140231476E+04  0.00000000000E+00 0. -1.
          6    2    1    2  501    0  0.88527676579E+02  0.17954935323E+03 -0.10456334201E+04  0.10782125919E+04  0.17064004331E+03 0.  0.
         24    2    3    3    0    0  0.68209767975E+02  0.20284525634E+03 -0.84857353158E+03  0.87868764066E+03  0.78842633696E+02 0.  0.
         -6    2    1    2    0  502 -0.88527676579E+02 -0.17954935323E+03 -0.30249806362E+03  0.40170221967E+03  0.17258179228E+03 0.  0.
        -24    2    5    5    0    0 -0.36111343810E+02 -0.38773432823E+02 -0.18893120827E+03  0.21332798485E+03  0.83704357228E+02 0.  0.
          5    1    3    3  501    0  0.20317908604E+02 -0.23295903107E+02 -0.19705988848E+03  0.19952495122E+03  0.47000000000E+01 0. -1.
        -11    1    4    4    0    0  0.49824232467E+01  0.56791035328E+02 -0.11892297456E+03  0.13188146236E+03  0.00000000000E+00 0.  1.
         12    1    4    4    0    0  0.63227344728E+02  0.14605422101E+03 -0.72965055702E+03  0.74680617830E+03  0.00000000000E+00 0. -1.
         -5    1    5    5    0  502 -0.52416332769E+02 -0.14077592041E+03 -0.11356685535E+03  0.18837423481E+03  0.47000000000E+01 0.  1.
         11    1    6    6    0    0  0.23199420744E+02 -0.28326727435E+02 -0.94297775005E+02  0.10115674461E+03  0.00000000000E+00 0. -1.
        -12    1    6    6    0    0 -0.59310764554E+02 -0.10446705387E+02 -0.94633433265E+02  0.11217124024E+03  0.00000000000E+00 0.  1.
</event>
<event>
12    1  0.1594973E-001  0.2097247E+03  0.7818608E-02  0.1141994E+00
         21   -1    0    0  501  502  0.00000000000E+00  0.00000000000E+00  0.19318490654E+03  0.19318490654E+03  0.00000000000E+00 0. -1.
         21   -1    0    0  502  503 -0.00000000000E+00 -0.00000000000E+00 -0.30829713552E+03  0.30829713552E+03  0.00000000000E+00 0. -1.
         -6    2    1    2    0  503  0.95071161994E+02  0.63967610056E+02 -0.18657609238E+03  0.27991593715E+03  0.17439011624E+03 0.  0.
        -24    2    3    3    0    0  0.10675572764E+03  0.83635498161E+02 -0.19876593434E+03  0.25357135243E+03  0.79992825826E+02 0.  0.
          6    2    1    2  501    0 -0.95071161994E+02 -0.63967610056E+02  0.71463863393E+02  0.22156610491E+03  0.17565327807E+03 0.  0.
         24    2    5    5    0    0 -0.13629521572E+03 -0.49794372440E+02  0.50335888804E+02  0.17289594382E+03  0.79394208434E+02 0.  0.
          5    1    5    5  501    0  0.41224053728E+02 -0.14173237616E+02  0.21127974589E+02  0.48670161090E+02  0.47000000000E+01 0. -1.
        -13    1    6    6    0    0  0.14157469525E+01 -0.25205288641E+02  0.41773831964E+01  0.25588306807E+02  0.00000000000E+00 0.  1.
         14    1    6    6    0    0 -0.13771096267E+03 -0.24589083799E+02  0.46158505608E+02  0.14730763701E+03  0.00000000000E+00 0. -1.
         -5    1    3    3    0  503 -0.11684565648E+02 -0.19667888105E+02  0.12189841957E+02  0.26344584715E+02  0.47000000000E+01 0.  1.
         11    1    4    4    0    0  0.49355926525E+02  0.33474852316E+02 -0.26631223840E+02  0.65313056152E+02  0.00000000000E+00 0. -1.
        -12    1    4    4    0    0  0.57399801117E+02  0.50160645845E+02 -0.17213471050E+03  0.18825829628E+03  0.00000000000E+00 0.  1.
</event>
<event>
12    1  0.1594973E-001  0.2096753E+03  0.7818608E-02  0.1141917E+00
         21   -1    0    0  501  502  0.00000000000E+00  0.00000000000E+00  0.54011049298E+03  0.54011049298E+03  0.00000000000E+00 0. -1.
         21   -1    0    0  502  503 -0.00000000000E+00 -0.00000000000E+00 -0.93198881252E+02  0.93198881252E+02  0.00000000000E+00 0.  1.
         -6    2    1    2    0  503 -0.99707796869E+02 -0.64496923304E+02  0.10968573099E+03  0.23621365590E+03  0.17223366041E+03 0.  0.
        -24    2    3    3    0    0 -0.79148095016E+02  0.14502899693E+02  0.10032532309E+03  0.15391310541E+03  0.84553642864E+02 0.  0.
          6    2    1    2  501    0  0.99707796869E+02  0.64496923304E+02  0.33722588073E+03  0.39709571833E+03  0.17280687778E+03 0.  0.
         24    2    5    5    0    0  0.11538110229E+03  0.76923209559E+02  0.18668819951E+03  0.24516234951E+03  0.77602286361E+02 0.  0.
          5    1    5    5  501    0 -0.15673305418E+02 -0.12426286255E+02  0.15053768123E+03  0.15193336882E+03  0.47000000000E+01 0. -1.
        -13    1    6    6    0    0  0.70977723268E+02  0.47443887097E+01  0.10923782738E+03  0.13035815799E+03  0.00000000000E+00 0.  1.
         14    1    6    6    0    0  0.44403379019E+02  0.72178820849E+02  0.77450372129E+02  0.11480419152E+03  0.00000000000E+00 0. -1.
         -5    1    3    3    0  503 -0.20559701853E+02 -0.78999822997E+02  0.93604079060E+01  0.82300550484E+02  0.47000000000E+01 0.  1.
         13    1    4    4    0    0  0.79512670159E+01 -0.10579903103E+02  0.46831394904E+02  0.48665558103E+02  0.00000000000E+00 0. -1.
        -14    1    4    4    0    0 -0.87099362032E+02  0.25082802796E+02  0.53493928183E+02  0.10524754731E+03  0.00000000000E+00 0.  1.
</event>
<event>
12    1  0.1594973E-001  0.1849359E+03  0.7818608E-02  0.1163325E+00
         21   -1    0    0  503  502  0.00000000000E+00  0.00000000000E+00  0.16941166111E+03  0.16941166111E+03  0.00000000000E+00 0.  1.
         21   -1    0    0  501  503 -0.00000000000E+00 -0.00000000000E+00 -0.20095391791E+03  0.20095391791E+03  0.00000000000E+00 0.  1.
          6    2    1    2  501    0 -0.55025584159E+02 -0.36131717670E+02 -0.19245008576E+02  0.18502131238E+03  0.17184062309E+03 0.  0.
         24    2    3    3    0    0 -0.67950658090E+02 -0.80108255384E+02 -0.35136118403E+02  0.13628107462E+03  0.79393702310E+02 0.  0.
         -6    2    1    2    0  502  0.55025584159E+02  0.36131717670E+02 -0.12297248227E+02  0.18534426665E+03  0.17282349068E+03 0.  0.
        -24    2    5    5    0    0 -0.21073646622E+00 -0.38383974301E+02 -0.22695948313E+02  0.91889130729E+02  0.80343838490E+02 0.  0.
          5    1    3    3  501    0  0.12925073932E+02  0.43976537715E+02  0.15891109827E+02  0.48740237761E+02  0.47000000000E+01 0. -1.
        -11    1    4    4    0    0 -0.26030053483E+02 -0.60738983437E+02  0.15370311740E+02  0.67845665125E+02  0.00000000000E+00 0.  1.
         12    1    4    4    0    0 -0.41920604607E+02 -0.19369271947E+02 -0.50506430143E+02  0.68435409491E+02  0.00000000000E+00 0. -1.
         -5    1    5    5    0  502  0.55236320625E+02  0.74515691971E+02  0.10398700086E+02  0.93455135919E+02  0.47000000000E+01 0.  1.
         11    1    6    6    0    0  0.36433001302E+02 -0.29094830619E+02 -0.26940929738E+02  0.53848736734E+02  0.00000000000E+00 0. -1.
        -12    1    6    6    0    0 -0.36643737769E+02 -0.92891436817E+01  0.42449814253E+01  0.38040393995E+02  0.00000000000E+00 0.  1.
</event>
<event>
12    1  0.1594973E-001  0.1898049E+03  0.7818608E-02  0.1159468E+00
         21   -1    0    0  501  502  0.00000000000E+00  0.00000000000E+00  0.34063838098E+03  0.34063838098E+03  0.00000000000E+00 0. -1.
         21   -1    0    0  502  503 -0.00000000000E+00 -0.00000000000E+00 -0.11136855494E+03  0.11136855494E+03  0.00000000000E+00 0. -1.
         -6    2    1    2    0  503 -0.73239781268E+02  0.17550840756E+02  0.17480901576E+03  0.25803894288E+03  0.17422343838E+03 0.  0.
        -24    2    3    3    0    0 -0.10647034166E+03 -0.18645950208E+02  0.15198288848E+03  0.20365512262E+03  0.81810790652E+02 0.  0.
          6    2    1    2  501    0  0.73239781268E+02 -0.17550840756E+02  0.54460810283E+02  0.19396799303E+03  0.17025129924E+03 0.  0.
         24    2    5    5    0    0  0.62935901526E+02  0.52679346069E+02  0.37428989304E+02  0.12082004702E+03  0.80377318440E+02 0.  0.
          5    1    5    5  501    0  0.10303879742E+02 -0.70230186825E+02  0.17031820979E+02  0.73147946007E+02  0.47000000000E+01 0. -1.
        -11    1    6    6    0    0  0.14925389154E+02  0.29975363710E+02 -0.22807371650E+02  0.40515007991E+02  0.00000000000E+00 0.  1.
         12    1    6    6    0    0  0.48010512372E+02  0.22703982359E+02  0.60236360954E+02  0.80305039033E+02  0.00000000000E+00 0. -1.
         -5    1    3    3    0  503  0.33230560388E+02  0.36196790964E+02  0.22826127278E+02  0.54383820262E+02  0.47000000000E+01 0.  1.
         13    1    4    4    0    0 -0.66962375575E+02  0.10256686923E+01  0.14399074017E+03  0.15880284945E+03  0.00000000000E+00 0. -1.
        -14    1    4    4    0    0 -0.39507966080E+02 -0.19671618900E+02  0.79921483120E+01  0.44852273171E+02  0.00000000000E+00 0.  1.
</event>
<event>
12    1  0.1594973E-001  0.2602148E+03  0.7818608E-02  0.1107081E+00
         21   -1    0    0  501  502  0.00000000000E+00  0.00000000000E+00  0.30608390892E+03  0.30608390892E+03  0.00000000000E+00 0.  1.
         21   -1    0    0  502  503 -0.00000000000E+00 -0.00000000000E+00 -0.22372205592E+03  0.22372205592E+03  0.00000000000E+00 0. -1.
         -6    2    1    2    0  503  0.95241129556E+02 -0.16995275825E+03  0.11155659172E+02  0.26045376722E+03  0.17250189370E+03 0.  0.
        -24    2    3    3    0    0  0.93605808842E+02 -0.54767189371E+02  0.46010347905E+02  0.14000739377E+03  0.75654647672E+02 0.  0.
          6    2    1    2  501    0 -0.95241129556E+02  0.16995275825E+03  0.71206193827E+02  0.26935219762E+03  0.17182977485E+03 0.  0.
         24    2    5    5    0    0 -0.73449597455E+02  0.37927512197E+02  0.72991643647E+02  0.13544620710E+03  0.78641944451E+02 0.  0.
          5    1    5    5  501    0 -0.21791532101E+02  0.13202524605E+03 -0.17854498199E+01  0.13390599052E+03  0.47000000000E+01 0. -1.
        -11    1    6    6    0    0 -0.88366698353E+02  0.27242167292E+02  0.47274976059E+02  0.10385438083E+03  0.00000000000E+00 0.  1.
         12    1    6    6    0    0  0.14917100898E+02  0.10685344905E+02  0.25716667588E+02  0.31591826266E+02  0.00000000000E+00 0. -1.
         -5    1    3    3    0  503  0.16353207144E+01 -0.11518556887E+03 -0.34854688732E+02  0.12044637345E+03  0.47000000000E+01 0.  1.
         13    1    4    4    0    0  0.88391422060E+01 -0.30557693858E+02 -0.12524976660E+02  0.34187397227E+02  0.00000000000E+00 0. -1.
        -14    1    4    4    0    0  0.84766666636E+02 -0.24209495513E+02  0.58535324565E+02  0.10581999654E+03  0.00000000000E+00 0.  1.
</event>
<event>
12    1  0.1594973E-001  0.2104441E+03  0.7818608E-02  0.1141413E+00
         21   -1    0    0  501  502  0.00000000000E+00  0.00000000000E+00  0.24284792111E+03  0.24284792111E+03  0.00000000000E+00 0.  1.
         21   -1    0    0  502  503 -0.00000000000E+00 -0.00000000000E+00 -0.19345041738E+03  0.19345041738E+03  0.00000000000E+00 0.  1.
         -6    2    1    2    0  503 -0.11854255644E+03 -0.15618704589E+02 -0.29469003822E+02  0.21249737728E+03  0.17317745679E+03 0.  0.
        -24    2    3    3    0    0 -0.20584915190E+02  0.51048173173E+02 -0.17973952431E+02  0.93357131023E+02  0.73231388278E+02 0.  0.
          6    2    1    2  501    0  0.11854255644E+03  0.15618704589E+02  0.78866507551E+02  0.22380096122E+03  0.17196122414E+03 0.  0.
         24    2    5    5    0    0  0.13269141117E+03  0.58620736716E+01  0.12709668687E+02  0.15528673448E+03  0.79442178483E+02 0.  0.
          5    1    5    5  501    0 -0.14148854728E+02  0.97566309170E+01  0.66156838864E+02  0.68514226737E+02  0.47000000000E+01 0. -1.
        -13    1    6    6    0    0  0.10744182918E+03  0.86572473964E+00  0.42829630855E+02  0.11566708009E+03  0.00000000000E+00 0.  1.
         14    1    6    6    0    0  0.25249581990E+02  0.49963489319E+01 -0.30119962168E+02  0.39619654395E+02  0.00000000000E+00 0. -1.
         -5    1    3    3    0  503 -0.97957641254E+02 -0.66666877762E+02 -0.11495051391E+02  0.11914024625E+03  0.47000000000E+01 0.  1.
         13    1    4    4    0    0 -0.25437167592E+02  0.68652198874E+02 -0.16410247637E+02  0.75029794967E+02  0.00000000000E+00 0. -1.
        -14    1    4    4    0    0  0.48522524018E+01 -0.17604025700E+02 -0.15637047935E+01  0.18327336056E+02  0.00000000000E+00 0.  1.
</event>
<event>
12    1  0.1594973E-001  0.3636675E+03  0.7818608E-02  0.1057352E+00
         21   -1    0    0  503  502  0.00000000000E+00  0.00000000000E+00  0.17157141533E+03  0.17157141533E+03  0.00000000000E+00 0. -1.
         21   -1    0    0  501  503 -0.00000000000E+00 -0.00000000000E+00 -0.80396087592E+03  0.80396087592E+03  0.00000000000E+00 0.  1.
          6    2    1    2  501    0 -0.17862312279E+03  0.26485891469E+03 -0.42268974519E+03  0.55760260885E+03  0.17377452066E+03 0.  0.
         24    2    3    3    0    0 -0.13129761400E+03  0.19852964013E+03 -0.40226663735E+03  0.47346896648E+03  0.75507173453E+02 0.  0.
         -6    2    1    2    0  502  0.17862312279E+03 -0.26485891469E+03 -0.20969971540E+03  0.41792968240E+03  0.16921815537E+03 0.  0.
        -24    2    5    5    0    0  0.57082718171E+02 -0.10128503430E+03 -0.12604622495E+03  0.19759248453E+03  0.98173541406E+02 0.  0.
          5    1    3    3  501    0 -0.47325508792E+02  0.66329274556E+02 -0.20423107839E+02  0.84133642375E+02  0.47000000000E+01 0. -1.
        -11    1    4    4    0    0 -0.62480842670E+02  0.55626339862E+02 -0.19728492980E+03  0.21428833126E+03  0.00000000000E+00 0.  1.
         12    1    4    4    0    0 -0.68816771326E+02  0.14290330027E+03 -0.20498170755E+03  0.25918063522E+03  0.00000000000E+00 0. -1.
         -5    1    5    5    0  502  0.12154040462E+03 -0.16357388039E+03 -0.83653490454E+02  0.22033719787E+03  0.47000000000E+01 0.  1.
         11    1    6    6    0    0 -0.15438691849E+02 -0.11019619052E+02  0.78905297225E+01  0.20543750129E+02  0.00000000000E+00 0. -1.
        -12    1    6    6    0    0  0.72521410020E+02 -0.90265415248E+02 -0.13393675467E+03  0.17704873440E+03  0.00000000000E+00 0.  1.
</event>
<event>
12    1  0.1594973E-001  0.1766684E+03  0.7818608E-02  0.1171454E+00
         21   -1    0    0  501  502  0.00000000000E+00  0.00000000000E+00  0.57659478529E+02  0.57659478529E+02  0.00000000000E+00 0. -1.
         21   -1    0    0  502  503 -0.00000000000E+00 -0.00000000000E+00 -0.66671506751E+03  0.66671506751E+03  0.00000000000E+00 0. -1.
         -6    2    1    2    0  503  0.27981667468E+02  0.57683923418E+00 -0.46564006762E+03  0.49802850336E+03  0.17443741319E+03 0.  0.
        -24    2    3    3    0    0  0.19673807351E+02 -0.42567973001E+01 -0.47604584334E+03  0.48310353267E+03  0.79775931835E+02 0.  0.
          6    2    1    2  501    0 -0.27981667468E+02 -0.57683923418E+00 -0.14341552136E+03  0.22634604268E+03  0.17286183157E+03 0.  0.
         24    2    5    5    0    0 -0.25114222454E+01  0.22144541939E+02 -0.16525918716E+03  0.18555106395E+03  0.81375121576E+02 0.  0.
          5    1    5    5  501    0 -0.25470245223E+02 -0.22721381173E+02  0.21843665805E+02  0.40794978734E+02  0.47000000000E+01 0. -1.
        -11    1    6    6    0    0  0.11139716813E+02  0.46283379476E+02 -0.59413442070E+02  0.76132789289E+02  0.00000000000E+00 0.  1.
         12    1    6    6    0    0 -0.13651139058E+02 -0.24138837537E+02 -0.10584574509E+03  0.10941827466E+03  0.00000000000E+00 0. -1.
         -5    1    3    3    0  503  0.83078601168E+01  0.48336365343E+01  0.10405775713E+02  0.14924970689E+02  0.47000000000E+01 0.  1.
         11    1    4    4    0    0 -0.21964096469E+02 -0.15676900308E+02 -0.32178362907E+03  0.32291313178E+03  0.00000000000E+00 0. -1.
        -12    1    4    4    0    0  0.41637903821E+02  0.11420103008E+02 -0.15426221427E+03  0.16019040089E+03  0.00000000000E+00 0.  1.
</event>
<event>
12    1  0.1594973E-001  0.1939834E+03  0.7818608E-02  0.1155473E+00
         21   -1    0    0  503  502  0.00000000000E+00  0.00000000000E+00  0.30271255507E+02  0.30271255507E+02  0.00000000000E+00 0. -1.
         21   -1    0    0  501  503 -0.00000000000E+00 -0.00000000000E+00 -0.14662176220E+04  0.14662176220E+04  0.00000000000E+00 0.  1.
          6    2    1    2  501    0 -0.47145641865E+02  0.70773527937E+02 -0.10241216009E+04  0.10423313400E+04  0.17435012263E+03 0.  0.
         24    2    3    3    0    0 -0.39378282605E+02  0.85411478574E+02 -0.10156839544E+04  0.10231510026E+04  0.79864315683E+02 0.  0.
         -6    2    1    2    0  502  0.47145641865E+02 -0.70773527937E+02 -0.41182476559E+03  0.45415753743E+03  0.17154540929E+03 0.  0.
        -24    2    5    5    0    0  0.34550288358E+02  0.65578519019E+01 -0.99504413995E+02  0.13212512096E+03  0.79493341464E+02 0.  0.
          5    1    3    3  501    0 -0.77673592600E+01 -0.14637950637E+02 -0.84376464330E+01  0.19180337485E+02  0.47000000000E+01 0. -1.
        -13    1    4    4    0    0  0.29513516384E+01  0.75030811246E+02 -0.49715875847E+03  0.50279733913E+03  0.00000000000E+00 0.  1.
         14    1    4    4    0    0 -0.42329634243E+02  0.10380667328E+02 -0.51852519596E+03  0.52035366342E+03  0.00000000000E+00 0. -1.
         -5    1    5    5    0  502  0.12595353507E+02 -0.77331379839E+02 -0.31232035159E+03  0.32203241647E+03  0.47000000000E+01 0.  1.
         13    1    6    6    0    0  0.55167855595E+02 -0.14817047251E+02 -0.62367705639E+02  0.84574037901E+02  0.00000000000E+00 0. -1.
        -14    1    6    6    0    0 -0.20617567237E+02  0.21374899152E+02 -0.37136708357E+02  0.47551083060E+02  0.00000000000E+00 0.  1.
</event>
<event>
12    1  0.1594973E-001  0.1785831E+03  0.7818608E-02  0.1169683E+00
         21   -1    0    0  503  502  0.00000000000E+00  0.00000000000E+00  0.89380157669E+03  0.89380157669E+03  0.00000000000E+00 0.  1.
         21   -1    0    0  501  503 -0.00000000000E+00 -0.00000000000E+00 -0.35611645379E+02  0.35611645379E+02  0.00000000000E+00 0.  1.
          6    2    1    2  501    0  0.18772570938E+02  0.50575431246E+02  0.47674121084E+03  0.50909145024E+03  0.17023994514E+03 0.  0.
         24    2    3    3    0    0 -0.47098692035E+02 -0.34634321352E+01  0.27194322387E+03  0.28722769135E+03  0.79475452262E+02 0.  0.
         -6    2    1    2    0  502 -0.18772570938E+02 -0.50575431246E+02  0.38144872046E+03  0.42032177183E+03  0.16809813166E+03 0.  0.
        -24    2    5    5    0    0 -0.18166026825E+02  0.29077826990E+02  0.13077263866E+03  0.15725220416E+03  0.80319662222E+02 0.  0.
          5    1    3    3  501    0  0.65871262973E+02  0.54038863381E+02  0.20479798697E+03  0.22186375889E+03  0.47000000000E+01 0. -1.
        -11    1    4    4    0    0 -0.91832358264E+01  0.22586302421E+02  0.20229397257E+03  0.20375800405E+03  0.00000000000E+00 0.  1.
         12    1    4    4    0    0 -0.37915456209E+02 -0.26049734556E+02  0.69649251306E+02  0.83469687297E+02  0.00000000000E+00 0. -1.
         -5    1    5    5    0  502 -0.60654411324E+00 -0.79653258235E+02  0.25067608181E+03  0.26306956767E+03  0.47000000000E+01 0.  1.
         13    1    6    6    0    0 -0.17464343273E+02 -0.61110092466E+01  0.11856401545E+03  0.11999905616E+03  0.00000000000E+00 0. -1.
        -14    1    6    6    0    0 -0.70168355194E+00  0.35188836236E+02  0.12208623209E+02  0.37253148003E+02  0.00000000000E+00 0.  1.
</event>
<event>
12    1  0.1594973E-001  0.2703987E+03  0.7818608E-02  0.1101391E+00
         21   -1    0    0  503  502  0.00000000000E+00  0.00000000000E+00  0.15742172886E+03  0.15742172886E+03  0.00000000000E+00 0.  1.
         21   -1    0    0  501  503 -0.00000000000E+00 -0.00000000000E+00 -0.59991178921E+03  0.59991178921E+03  0.00000000000E+00 0. -1.
          6    2    1    2  501    0 -0.48035028948E+02  0.20020222466E+03 -0.40459789951E+03  0.48663633341E+03  0.17529165965E+03 0.  0.
         24    2    3    3    0    0 -0.55648925441E+02  0.34869774198E+02 -0.12348055892E+03  0.16038207707E+03  0.78500051980E+02 0.  0.
         -6    2    1    2    0  502  0.48035028948E+02 -0.20020222466E+03 -0.37892160839E+02  0.27069718466E+03  0.17161834157E+03 0.  0.
        -24    2    5    5    0    0 -0.24637110675E+02 -0.95926960099E+02  0.24937109615E+02  0.12883747261E+03  0.78538309222E+02 0.  0.
          5    1    3    3  501    0  0.76138964927E+01  0.16533245046E+03 -0.28111734059E+03  0.32625425634E+03  0.47000000000E+01 0. -1.
        -13    1    4    4    0    0 -0.25808376078E+02 -0.16160505625E+02 -0.83861525796E+02  0.89218774519E+02  0.00000000000E+00 0.  1.
         14    1    4    4    0    0 -0.29840549363E+02  0.51030279823E+02 -0.39619033121E+02  0.71163302555E+02  0.00000000000E+00 0. -1.
         -5    1    5    5    0  502  0.72672139623E+02 -0.10427526456E+03 -0.62829270453E+02  0.14185971205E+03  0.47000000000E+01 0.  1.
         11    1    6    6    0    0 -0.15311937262E+02  0.36858922419E+01  0.24094943631E+02  0.28785543819E+02  0.00000000000E+00 0. -1.
        -12    1    6    6    0    0 -0.93251734128E+01 -0.99612852341E+02  0.84216598336E+00  0.10005192879E+03  0.00000000000E+00 0.  1.
</event>
<event>
12    1  0.1594973E-001  0.2351913E+03  0.7818608E-02  0.1123061E+00
         21   -1    0    0  503  502  0.00000000000E+00  0.00000000000E+00  0.53043708726E+03  0.53043708726E+03  0.00000000000E+00 0. -1.
         21   -1    0    0  501  503 -0.00000000000E+00 -0.00000000000E+00 -0.19368555873E+03  0.19368555873E+03  0.00000000000E+00 0.  1.
          6    2    1    2  501    0  0.10170497057E+03  0.12441352593E+03 -0.77717555506E+02  0.24757298556E+03  0.17155097864E+03 0.  0.
         24    2    3    3    0    0  0.94369716860E+01  0.67617914052E+02 -0.89970740396E+02  0.13843382812E+03  0.80049683984E+02 0.  0.
         -6    2    1    2    0  502 -0.10170497057E+03 -0.12441352593E+03  0.41446908403E+03  0.47654966043E+03  0.17173331292E+03 0.  0.
        -24    2    5    5    0    0 -0.11265501468E+03 -0.31568080654E+02  0.25319176045E+03  0.29007541214E+03  0.79686768785E+02 0.  0.
          5    1    3    3  501    0  0.92267998881E+02  0.56795611875E+02  0.12253184890E+02  0.10913915744E+03  0.47000000000E+01 0. -1.
        -11    1    4    4    0    0  0.18118749997E+02  0.71103812749E+02 -0.10044391747E+03  0.12439060191E+03  0.00000000000E+00 0.  1.
         12    1    4    4    0    0 -0.86817783110E+01 -0.34858986967E+01  0.10473177070E+02  0.14043226207E+02  0.00000000000E+00 0. -1.
         -5    1    5    5    0  502  0.10950044112E+02 -0.92845445273E+02  0.16127732358E+03  0.18647424829E+03  0.47000000000E+01 0.  1.
         11    1    6    6    0    0 -0.49947579805E+02  0.14696532497E+02  0.48909782972E+02  0.71434695115E+02  0.00000000000E+00 0. -1.
        -12    1    6    6    0    0 -0.62707434873E+02 -0.46264613151E+02  0.20428197748E+03  0.21864071703E+03  0.00000000000E+00 0.  1.
</event>
<event>
12    1  0.1594973E-001  0.2201144E+03  0.7818608E-02  0.1134364E+00
         21   -1    0    0  501  502  0.00000000000E+00  0.00000000000E+00  0.17488380450E+03  0.17488380450E+03  0.00000000000E+00 0.  1.
         21   -1    0    0  502  503 -0.00000000000E+00 -0.00000000000E+00 -0.29566118788E+03  0.29566118788E+03  0.00000000000E+00 0.  1.
         -6    2    1    2    0  503 -0.46901584217E+02 -0.12277277784E+03 -0.12476137296E+03  0.25039458225E+03  0.17279795443E+03 0.  0.
        -24    2    3    3    0    0  0.28309152658E+02 -0.19537550300E+02 -0.36167384384E+02  0.94878821125E+02  0.80689447941E+02 0.  0.
          6    2    1    2  501    0  0.46901584217E+02  0.12277277784E+03  0.39839895806E+01  0.22015041014E+03  0.17657128116E+03 0.  0.
         24    2    5    5    0    0  0.15114135086E+02  0.10380999866E+03  0.66321152763E+02  0.14750028398E+03  0.79704990877E+02 0.  0.
          5    1    5    5  501    0  0.31787449131E+02  0.18962779183E+02 -0.62337163182E+02  0.72650126154E+02  0.47000000000E+01 0. -1.
        -11    1    6    6    0    0  0.96279682497E+01  0.15015232756E+02  0.54998461475E+02  0.57818558889E+02  0.00000000000E+00 0.  1.
         12    1    6    6    0    0  0.54861668362E+01  0.88794765901E+02  0.11322691288E+02  0.89681725094E+02  0.00000000000E+00 0. -1.
         -5    1    3    3    0  503 -0.75210736876E+02 -0.10323522754E+03 -0.88593988574E+02  0.15551576112E+03  0.47000000000E+01 0.  1.
         13    1    4    4    0    0  0.39072399245E+02 -0.12079065448E+02 -0.57071475307E+02  0.70211890009E+02  0.00000000000E+00 0. -1.
        -14    1    4    4    0    0 -0.10763246587E+02 -0.74584848520E+01  0.20904090923E+02  0.24666931117E+02  0.00000000000E+00 0.  1.
</event>
<event>
12    1  0.1594973E-001  0.2109661E+03  0.7818608E-02  0.1140853E+00
         21   -1    0    0  501  502  0.00000000000E+00  0.00000000000E+00  0.50781258849E+02  0.50781258849E+02  0.00000000000E+00 0.  1.
         21   -1    0    0  502  503 -0.00000000000E+00 -0.00000000000E+00 -0.11031158773E+04  0.11031158773E+04  0.00000000000E+00 0.  1.
         -6    2    1    2    0  503  0.10647913936E+03 -0.57488958886E+02 -0.26427447645E+03  0.33815335878E+03  0.17281176937E+03 0.  0.
        -24    2    3    3    0    0  0.14145378645E+03 -0.31707978839E+02 -0.21790385080E+03  0.27443358325E+03  0.82565936045E+02 0.  0.
          6    2    1    2  501    0 -0.10647913936E+03  0.57488958886E+02 -0.78806014203E+03  0.81574377740E+03  0.17250024755E+03 0.  0.
         24    2    5    5    0    0 -0.14071772335E+03  0.31034710407E+02 -0.58026272533E+03  0.60343747914E+03  0.81653719508E+02 0.  0.
          5    1    5    5  501    0  0.34238583982E+02  0.26454248478E+02 -0.20779741670E+03  0.21230629827E+03  0.47000000000E+01 0. -1.
        -13    1    6    6    0    0 -0.47165179337E+02  0.80374254960E+01 -0.35815575884E+03  0.36133737966E+03  0.00000000000E+00 0.  1.
         14    1    6    6    0    0 -0.93552544008E+02  0.22997284912E+02 -0.22210696649E+03  0.24210009947E+03  0.00000000000E+00 0. -1.
         -5    1    3    3    0  503 -0.34974647084E+02 -0.25780980046E+02 -0.46370625647E+02  0.63719775531E+02  0.47000000000E+01 0.  1.
         13    1    4    4    0    0  0.40294102898E+02 -0.38949167023E+02 -0.37355555532E+02  0.67350500140E+02  0.00000000000E+00 0. -1.
        -14    1    4    4    0    0  0.10115968355E+03  0.72411881833E+01 -0.18054829527E+03  0.20708308310E+03  0.00000000000E+00 0.  1.
</event>
<event>
12    1  0.1594973E-001  0.1898826E+03  0.7818608E-02  0.1159088E+00
         21   -1    0    0  501  502  0.00000000000E+00  0.00000000000E+00  0.29478577476E+02  0.29478577476E+02  0.00000000000E+00 0.  1.
         21   -1    0    0  502  503 -0.00000000000E+00 -0.00000000000E+00 -0.14050732445E+04  0.14050732445E+04  0.00000000000E+00 0.  1.
         -6    2    1    2    0  503  0.65482199785E+02 -0.46338667565E+02 -0.95976161507E+03  0.97836483947E+03  0.17210523158E+03 0.  0.
        -24    2    3    3    0    0  0.88889766049E+02 -0.82712706862E+02 -0.68199513979E+03  0.69721134102E+03  0.79015827373E+02 0.  0.
          6    2    1    2  501    0 -0.65482199785E+02  0.46338667565E+02 -0.41583305197E+03  0.45618698253E+03  0.16957076788E+03 0.  0.
         24    2    5    5    0    0 -0.19751495257E+02 -0.38298598679E+02 -0.18307013559E+03  0.20428337117E+03  0.79750341480E+02 0.  0.
          5    1    5    5  501    0 -0.45730704528E+02  0.84637266244E+02 -0.23276291637E+03  0.25190361135E+03  0.47000000000E+01 0. -1.
        -13    1    6    6    0    0 -0.14758271963E+02 -0.47309472632E+02 -0.48573998719E+02  0.69393271602E+02  0.00000000000E+00 0.  1.
         14    1    6    6    0    0 -0.49932232934E+01  0.90108739531E+01 -0.13449613687E+03  0.13489009957E+03  0.00000000000E+00 0. -1.
         -5    1    3    3    0  503 -0.23407566264E+02  0.36374039297E+02 -0.27776647529E+03  0.28115349844E+03  0.47000000000E+01 0.  1.
         13    1    4    4    0    0  0.27500296555E+01 -0.52726926595E+02 -0.21458557600E+03  0.22098565763E+03  0.00000000000E+00 0. -1.
        -14    1    4    4    0    0  0.86139736394E+02 -0.29985780267E+02 -0.46740956378E+03  0.47622568339E+03  0.00000000000E+00 0.  1.
</event>
<event>
12    1  0.1594973E-001  0.1847106E+03  0.7818608E-02  0.1163405E+00
         21   -1    0    0  501  502  0.00000000000E+00  0.00000000000E+00  0.18665522687E+03  0.18665522687E+03  0.00000000000E+00 0.  1.
         21   -1    0    0  502  503 -0.00000000000E+00 -0.00000000000E+00 -0.26260607519E+03  0.26260607519E+03  0.00000000000E+00 0.  1.
         -6    2    1    2    0  503  0.51409682761E+01  0.64981767539E+02 -0.16212094171E+03  0.24576659134E+03  0.17282638112E+03 0.  0.
        -24    2    3    3    0    0  0.56098122414E+02  0.61561862300E+02 -0.15552395135E+03  0.19405646089E+03  0.80829130517E+02 0.  0.
          6    2    1    2  501    0 -0.51409682761E+01 -0.64981767539E+02  0.86170093388E+02  0.20349471073E+03  0.17244057711E+03 0.  0.
         24    2    5    5    0    0 -0.30224605835E+02  0.25603401925E+02  0.53013526572E+02  0.10371340124E+03  0.79855961641E+02 0.  0.
          5    1    5    5  501    0  0.25083637559E+02 -0.90585169464E+02  0.33156566817E+02  0.99781309488E+02  0.47000000000E+01 0. -1.
        -11    1    6    6    0    0  0.25925396460E+02 -0.30016573918E+01  0.16661174373E+02  0.30963379341E+02  0.00000000000E+00 0.  1.
         12    1    6    6    0    0 -0.56150002295E+02  0.28605059317E+02  0.36352352198E+02  0.72750021901E+02  0.00000000000E+00 0. -1.
         -5    1    3    3    0  503 -0.50957154138E+02  0.34199052391E+01 -0.65969903583E+01  0.51710130453E+02  0.47000000000E+01 0.  1.
         11    1    4    4    0    0  0.15798855426E+02 -0.19535789085E+02 -0.27601609564E+02  0.37324251345E+02  0.00000000000E+00 0. -1.
        -12    1    4    4    0    0  0.40299266988E+02  0.81097651385E+02 -0.12792234178E+03  0.15673220954E+03  0.00000000000E+00 0.  1.
</event>
<event>
12    1  0.1594973E-001  0.2253824E+03  0.7818608E-02  0.1130523E+00
         21   -1    0    0  501  502  0.00000000000E+00  0.00000000000E+00  0.20155133773E+03  0.20155133773E+03  0.00000000000E+00 0.  1.
         21   -1    0    0  502  503 -0.00000000000E+00 -0.00000000000E+00 -0.26521178458E+03  0.26521178458E+03  0.00000000000E+00 0. -1.
         -6    2    1    2    0  503  0.12950086856E+03 -0.55498137718E+02 -0.90336727471E+02  0.23980746751E+03  0.17174509860E+03 0.  0.
        -24    2    3    3    0    0  0.54447664135E+02  0.35543424936E+02 -0.48414268459E+02  0.11450330878E+03  0.80865215915E+02 0.  0.
          6    2    1    2  501    0 -0.12950086856E+03  0.55498137718E+02  0.26676280615E+02  0.22695565480E+03  0.17591681856E+03 0.  0.
         24    2    5    5    0    0 -0.77770997578E+02  0.13219041665E+02  0.85420752774E+02  0.13786859332E+03  0.74080853747E+02 0.  0.
          5    1    5    5  501    0 -0.51729870986E+02  0.42279096053E+02 -0.58744472158E+02  0.89087061487E+02  0.47000000000E+01 0. -1.
        -11    1    6    6    0    0 -0.56559888520E+02  0.43418416462E+02  0.57175441562E+02  0.91395902508E+02  0.00000000000E+00 0.  1.
         12    1    6    6    0    0 -0.21211109058E+02 -0.30199374796E+02  0.28245311211E+02  0.46472690808E+02  0.00000000000E+00 0. -1.
         -5    1    3    3    0  503  0.75053204429E+02 -0.91041562654E+02 -0.41922459012E+02  0.12530415873E+03  0.47000000000E+01 0.  1.
         13    1    4    4    0    0  0.70249447028E+02  0.14244725571E+02 -0.50830851627E+02  0.87873047582E+02  0.00000000000E+00 0. -1.
        -14    1    4    4    0    0 -0.15801782893E+02  0.21298699365E+02  0.24165831681E+01  0.26630261197E+02  0.00000000000E+00 0.  1.
</event>
<event>
12    1  0.1594973E-001  0.2107238E+03  0.7818608E-02  0.1141023E+00
         21   -1    0    0  501  502  0.00000000000E+00  0.00000000000E+00  0.10375168945E+03  0.10375168945E+03  0.00000000000E+00 0. -1.
         21   -1    0    0  502  503 -0.00000000000E+00 -0.00000000000E+00 -0.45984266326E+03  0.45984266326E+03  0.00000000000E+00 0. -1.
         -6    2    1    2    0  503  0.10668404362E+03  0.56897964272E+02 -0.25262007442E+03  0.32897025217E+03  0.17258522911E+03 0.  0.
        -24    2    3    3    0    0  0.74312444709E+02  0.48225508280E+02 -0.26700477550E+03  0.29219877499E+03  0.78997056129E+02 0.  0.
          6    2    1    2  501    0 -0.10668404362E+03 -0.56897964272E+02 -0.10347089939E+03  0.23462410055E+03  0.17240469262E+03 0.  0.
         24    2    5    5    0    0 -0.99497112924E+02 -0.16387953441E+02 -0.13097585241E+03  0.18491167362E+03  0.82881919808E+02 0.  0.
          5    1    5    5  501    0 -0.71869306950E+01 -0.40510010832E+02  0.27504953017E+02  0.49712426926E+02  0.47000000000E+01 0. -1.
        -11    1    6    6    0    0 -0.54913283682E+02  0.23590938090E+02 -0.10238633733E+03  0.11855362988E+03  0.00000000000E+00 0.  1.
         12    1    6    6    0    0 -0.44583829241E+02 -0.39978891530E+02 -0.28589515074E+02  0.66358043747E+02  0.00000000000E+00 0. -1.
         -5    1    3    3    0  503  0.32371598909E+02  0.86724559923E+01  0.14384701076E+02  0.36771477179E+02  0.47000000000E+01 0.  1.
         11    1    4    4    0    0  0.29949636553E+02 -0.31776634562E+01 -0.17652180146E+03  0.17907267984E+03  0.00000000000E+00 0. -1.
        -12    1    4    4    0    0  0.44362808156E+02  0.51403171736E+02 -0.90482974038E+02  0.11312609515E+03  0.00000000000E+00 0.  1.
</event>
<event>
12    1  0.1594973E-001  0.1916599E+03  0.7818608E-02  0.1157229E+00
         21   -1    0    0  503  502  0.00000000000E+00  0.00000000000E+00  0.30504791100E+03  0.30504791100E+03  0.00000000000E+00 0.  1.
         21   -1    0    0  501  503 -0.00000000000E+00 -0.00000000000E+00 -0.12269087629E+03  0.12269087629E+03  0.00000000000E+00 0.  1.
          6    2    1    2  501    0  0.19423993065E+02  0.79447632805E+02  0.12483592555E+03  0.22873023057E+03  0.17333289417E+03 0.  0.
         24    2    3    3    0    0 -0.38973393906E+02  0.11034290712E+01  0.88477957415E+02  0.12436519374E+03  0.78218984132E+02 0.  0.
         -6    2    1    2    0  502 -0.19423993065E+02 -0.79447632805E+02  0.57521109165E+02  0.19900855672E+03  0.17206542297E+03 0.  0.
        -24    2    5    5    0    0  0.34244348831E+01  0.14567665239E+01  0.79153368477E+02  0.11207400011E+03  0.79255768471E+02 0.  0.
          5    1    3    3  501    0  0.58397386971E+02  0.78344203734E+02  0.36357968137E+02  0.10436503682E+03  0.47000000000E+01 0. -1.
        -11    1    4    4    0    0 -0.59762475187E+02  0.50497346835E+01  0.83187632756E+02  0.10255357383E+03  0.00000000000E+00 0.  1.
         12    1    4    4    0    0  0.20789081281E+02 -0.39463056123E+01  0.52903246586E+01  0.21811619919E+02  0.00000000000E+00 0. -1.
         -5    1    5    5    0  502 -0.22848427948E+02 -0.80904399329E+02 -0.21632259312E+02  0.86934556613E+02  0.47000000000E+01 0.  1.
         13    1    6    6    0    0  0.30931091236E+02 -0.26042250121E+02  0.41393904350E+02  0.57865244437E+02  0.00000000000E+00 0. -1.
        -14    1    6    6    0    0 -0.27506656353E+02  0.27499016645E+02  0.37759464127E+02  0.54208755671E+02  0.00000000000E+00 0.  1.
</event>
<event>
12    1  0.1594973E-001  0.1946764E+03  0.7818608E-02  0.1154726E+00
         21   -1    0    0  501  502  0.00000000000E+00  0.00000000000E+00  0.73357707643E+02  0.73357707643E+02  0.00000000000E+00 0. -1.
         21   -1    0    0  502  503 -0.00000000000E+00 -0.00000000000E+00 -0.11211471100E+04  0.11211471100E+04  0.00000000000E+00 0.  1.
         -6    2    1    2    0  503 -0.90840491158E+02  0.31511226921E+01 -0.96310042696E+03  0.98220521917E+03  0.17000804613E+03 0.  0.
        -24    2    3    3    0    0  0.82103824490E+01  0.15303401903E+02 -0.29459338922E+03  0.30627437732E+03  0.81958066985E+02 0.  0.
          6    2    1    2  501    0  0.90840491158E+02 -0.31511226921E+01 -0.84688975409E+02  0.21229959848E+03  0.17215392111E+03 0.  0.
         24    2    5    5    0    0  0.69446312843E+02  0.62360194615E+02 -0.19651134059E+02  0.11742360379E+03  0.68487600468E+02 0.  0.
          5    1    5    5  501    0  0.21394178314E+02 -0.65511317307E+02 -0.65037841349E+02  0.94875994690E+02  0.47000000000E+01 0. -1.
        -13    1    6    6    0    0  0.41055514732E+01 -0.80734837035E+01 -0.19331916336E+02  0.21348528784E+02  0.00000000000E+00 0.  1.
         14    1    6    6    0    0  0.65340761370E+02  0.70433678318E+02 -0.31921772318E+00  0.96075075008E+02  0.00000000000E+00 0. -1.
         -5    1    3    3    0  503 -0.99050873607E+02 -0.12152279211E+02 -0.66850703774E+03  0.67593084185E+03  0.47000000000E+01 0.  1.
         13    1    4    4    0    0  0.32490382804E+02 -0.21558836594E+02 -0.15725190539E+03  0.16201410482E+03  0.00000000000E+00 0. -1.
        -14    1    4    4    0    0 -0.24280000355E+02  0.36862238497E+02 -0.13734148382E+03  0.14426027251E+03  0.00000000000E+00 0.  1.
</event>
<event>
12    1  0.1594973E-001  0.5566153E+03  0.7818608E-02  0.9999761E-01
         21   -1    0    0  501  502  0.00000000000E+00  0.00000000000E+00  0.42329232453E+03  0.42329232453E+03  0.00000000000E+00 0.  1.
         21   -1    0    0  502  503 -0.00000000000E+00 -0.00000000000E+00 -0.90398069038E+03  0.90398069038E+03  0.00000000000E+00 0.  1.
         -6    2    1    2    0  503  0.26564883185E+03 -0.45768264596E+03 -0.52990493951E+03  0.76851791914E+03  0.17256257078E+03 0.  0.
        -24    2    3    3    0    0  0.21957362153E+03 -0.45244861275E+03 -0.49375150348E+03  0.70953079302E+03  0.81982172470E+02 0.  0.
          6    2    1    2  501    0 -0.26564883185E+03  0.45768264596E+03  0.49216573667E+02  0.55875509578E+03  0.17245950150E+03 0.  0.
         24    2    5    5    0    0 -0.27668881266E+03  0.39815505198E+03  0.65963747967E+02  0.49576324338E+03  0.79660736718E+02 0.  0.
          5    1    5    5  501    0  0.11039980808E+02  0.59527593981E+02 -0.16747174299E+02  0.62991852397E+02  0.47000000000E+01 0. -1.
        -13    1    6    6    0    0 -0.21951580392E+03  0.29909510838E+03  0.17133803176E+02  0.37140091443E+03  0.00000000000E+00 0.  1.
         14    1    6    6    0    0 -0.57173008743E+02  0.99059943598E+02  0.48829944790E+02  0.12436232895E+03  0.00000000000E+00 0. -1.
         -5    1    3    3    0  503  0.46075210328E+02 -0.52340332057E+01 -0.36153436035E+02  0.58987126117E+02  0.47000000000E+01 0.  1.
         13    1    4    4    0    0  0.15172327912E+02 -0.71247508317E+02 -0.41971465747E+02  0.84071463129E+02  0.00000000000E+00 0. -1.
        -14    1    4    4    0    0  0.20440129361E+03 -0.38120110444E+03 -0.45178003773E+03  0.62545932989E+03  0.00000000000E+00 0.  1.
</event>
<event>
12    1  0.1594973E-001  0.2213947E+03  0.7818608E-02  0.1133090E+00
         21   -1    0    0  503  502  0.00000000000E+00  0.00000000000E+00  0.13452634659E+04  0.13452634659E+04  0.00000000000E+00 0.  1.
         21   -1    0    0  501  503 -0.00000000000E+00 -0.00000000000E+00 -0.11832532035E+03  0.11832532035E+03  0.00000000000E+00 0.  1.
          6    2    1    2  501    0  0.10148877927E+03 -0.93881196991E+02  0.33272152544E+01  0.22011006174E+03  0.17124169309E+03 0.  0.
         24    2    3    3    0    0  0.28073453054E+02 -0.21237259251E+02 -0.56088483690E+02  0.10086549333E+03  0.76084096866E+02 0.  0.
         -6    2    1    2    0  502 -0.10148877927E+03  0.93881196991E+02  0.12236109303E+04  0.12434787246E+04  0.17292188445E+03 0.  0.
        -24    2    5    5    0    0 -0.13710193423E+03  0.98138708694E+02  0.10786607469E+04  0.10940830457E+04  0.71278027868E+02 0.  0.
          5    1    3    3  501    0  0.73415326212E+02 -0.72643937740E+02  0.59415698944E+02  0.11924456841E+03  0.47000000000E+01 0. -1.
        -13    1    4    4    0    0 -0.22222799428E+02 -0.23275832421E+02 -0.13381831302E+02  0.34852411657E+02  0.00000000000E+00 0.  1.
         14    1    4    4    0    0  0.50296252482E+02  0.20385731703E+01 -0.42706652388E+02  0.66013081677E+02  0.00000000000E+00 0. -1.
         -5    1    5    5    0  502  0.35613154961E+02 -0.42575117034E+01  0.14495018338E+03  0.14939567890E+03  0.47000000000E+01 0.  1.
         13    1    6    6    0    0 -0.21199269939E+02 -0.77993061497E+01  0.79030467565E+02  0.82195212913E+02  0.00000000000E+00 0. -1.
        -14    1    6    6    0    0 -0.11590266429E+03  0.10593801484E+03  0.99963027938E+03  0.10118878327E+04  0.00000000000E+00 0.  1.
</event>
<event>
12    1  0.1594973E-001  0.1991912E+03  0.7818608E-02  0.1151155E+00
         21   -1    0    0  503  502  0.00000000000E+00  0.00000000000E+00  0.67425399318E+03  0.67425399318E+03  0.00000000000E+00 0. -1.
         21   -1    0    0  501  503 -0.00000000000E+00 -0.00000000000E+00 -0.60213591208E+02  0.60213591208E+02  0.00000000000E+00 0.  1.
          6    2    1    2  501    0  0.50794885563E+02  0.78191325102E+02  0.38247907765E+03  0.43123933570E+03  0.17602021502E+03 0.  0.
         24    2    3    3    0    0  0.60212517764E+02  0.53114947898E+02  0.11006411882E+03  0.15747024270E+03  0.78968488006E+02 0.  0.
         -6    2    1    2    0  502 -0.50794885563E+02 -0.78191325102E+02  0.23156132432E+03  0.30322824869E+03  0.17214157011E+03 0.  0.
        -24    2    5    5    0    0 -0.33027248003E+02  0.26265230209E+02  0.10224629579E+03  0.13598194082E+03  0.79095649672E+02 0.  0.
          5    1    3    3  501    0 -0.94176322002E+01  0.25076377205E+02  0.27241495883E+03  0.27376909300E+03  0.47000000000E+01 0. -1.
        -13    1    4    4    0    0  0.20256203190E+02  0.61973085942E+02  0.40482986259E+02  0.76745353770E+02  0.00000000000E+00 0.  1.
         14    1    4    4    0    0  0.39956314573E+02 -0.88581380440E+01  0.69581132560E+02  0.80724888927E+02  0.00000000000E+00 0. -1.
         -5    1    5    5    0  502 -0.17767637560E+02 -0.10445655531E+03  0.12931502853E+03  0.16724630787E+03  0.47000000000E+01 0.  1.
         11    1    6    6    0    0 -0.13224706945E+02  0.69267327560E+01 -0.11545314960E+02  0.18872381884E+02  0.00000000000E+00 0. -1.
        -12    1    6    6    0    0 -0.19802541059E+02  0.19338497453E+02  0.11379161075E+03  0.11710955894E+03  0.00000000000E+00 0.  1.
</event>
<event>
12    1  0.1594973E-001  0.2576075E+03  0.7818608E-02  0.1108733E+00
         21   -1    0    0  501  502  0.00000000000E+00  0.00000000000E+00  0.48354393384E+03  0.48354393384E+03  0.00000000000E+00 0. -1.
         21   -1    0    0  502  503 -0.00000000000E+00 -0.00000000000E+00 -0.13795347000E+03  0.13795347000E+03  0.00000000000E+00 0. -1.
         -6    2    1    2    0  503  0.77941706664E+02 -0.17427909726E+03  0.14395427582E+03  0.29510080154E+03  0.17295530106E+03 0.  0.
        -24    2    3    3    0    0  0.93561967964E+02 -0.36426057780E+02  0.84922030026E+02  0.14425535382E+03  0.59305618506E+02 0.  0.
          6    2    1    2  501    0 -0.77941706664E+02  0.17427909726E+03  0.20163618803E+03  0.32639660230E+03  0.17155021507E+03 0.  0.
         24    2    5    5    0    0 -0.31669508194E+01  0.21143348727E+02  0.22146448624E+02  0.78847661399E+02  0.72590755256E+02 0.  0.
          5    1    5    5  501    0 -0.74774755845E+02  0.15313574853E+03  0.17948973940E+03  0.24754894090E+03  0.47000000000E+01 0. -1.
        -11    1    6    6    0    0 -0.33492700880E+02  0.99391400217E+01 -0.66376434200E+01  0.35561296753E+02  0.00000000000E+00 0.  1.
         12    1    6    6    0    0  0.30325750061E+02  0.11204208706E+02  0.28784092044E+02  0.43286364646E+02  0.00000000000E+00 0. -1.
         -5    1    3    3    0  503 -0.15620261300E+02 -0.13785303948E+03  0.59032245791E+02  0.15084544773E+03  0.47000000000E+01 0.  1.
         13    1    4    4    0    0  0.63023309790E+02 -0.36985562884E+02  0.25416033539E+02  0.77368237666E+02  0.00000000000E+00 0. -1.
        -14    1    4    4    0    0  0.30538658174E+02  0.55950510374E+00  0.59505996486E+02  0.66887116150E+02  0.00000000000E+00 0.  1.
</event>
<event>
12    1  0.1594973E-001  0.2061255E+03  0.7818608E-02  0.1144854E+00
         21   -1    0    0  501  502  0.00000000000E+00  0.00000000000E+00  0.26849352655E+03  0.26849352655E+03  0.00000000000E+00 0. -1.
         21   -1    0    0  502  503 -0.00000000000E+00 -0.00000000000E+00 -0.16564761634E+03  0.16564761634E+03  0.00000000000E+00 0. -1.
         -6    2    1    2    0  503 -0.97234588845E+02  0.57555741582E+02  0.35498136516E+01  0.20615609318E+03  0.17239635994E+03 0.  0.
        -24    2    3    3    0    0 -0.33321148901E+01  0.53373935645E+01  0.42074028860E+02  0.91916714493E+02  0.81479247290E+02 0.  0.
          6    2    1    2  501    0  0.97234588845E+02 -0.57555741582E+02  0.99296096558E+02  0.22798504972E+03  0.17131911583E+03 0.  0.
         24    2    5    5    0    0  0.62118715259E+02 -0.67203624058E+01 -0.13318100867E+02  0.99449421140E+02  0.76216254815E+02 0.  0.
          5    1    5    5  501    0  0.35115873586E+02 -0.50835379176E+02  0.11261419742E+03  0.12853562858E+03  0.47000000000E+01 0. -1.
        -11    1    6    6    0    0  0.70282758708E+02 -0.23679540786E+02 -0.23819907606E+02  0.77895923012E+02  0.00000000000E+00 0.  1.
         12    1    6    6    0    0 -0.81640434491E+01  0.16959178380E+02  0.10501806739E+02  0.21553498128E+02  0.00000000000E+00 0. -1.
         -5    1    3    3    0  503 -0.93902473955E+02  0.52218348018E+02 -0.38524215208E+02  0.11423937868E+03  0.47000000000E+01 0.  1.
         11    1    4    4    0    0 -0.35985223006E+02 -0.17807302409E+02  0.12166397970E+02  0.41953039621E+02  0.00000000000E+00 0. -1.
        -12    1    4    4    0    0  0.32653108116E+02  0.23144695973E+02  0.29907630890E+02  0.49963674872E+02  0.00000000000E+00 0.  1.
</event>
<event>
12    1  0.1594973E-001  0.2536148E+03  0.7818608E-02  0.1111246E+00
         21   -1    0    0  501  502  0.00000000000E+00  0.00000000000E+00  0.18376095982E+03  0.18376095982E+03  0.00000000000E+00 0. -1.
         21   -1    0    0  502  503 -0.00000000000E+00 -0.00000000000E+00 -0.34880476223E+03  0.34880476223E+03  0.00000000000E+00 0. -1.
         -6    2    1    2    0  503 -0.12808284366E+03  0.13521408543E+03 -0.93720637690E+02  0.27037752464E+03  0.17214059417E+03 0.  0.
        -24    2    3    3    0    0 -0.15278843496E+03  0.78219932928E+02 -0.57062581959E+02  0.19809611132E+03  0.80766746223E+02 0.  0.
          6    2    1    2  501    0  0.12808284366E+03 -0.13521408543E+03 -0.71323164727E+02  0.26218819741E+03  0.17019868771E+03 0.  0.
         24    2    5    5    0    0  0.16996858507E+02 -0.35133920699E+02 -0.69626537299E+02  0.11258504232E+03  0.79399316588E+02 0.  0.
          5    1    5    5  501    0  0.11108598515E+03 -0.10008016473E+03 -0.16966274274E+01  0.14960315510E+03  0.47000000000E+01 0. -1.
        -13    1    6    6    0    0  0.44574236346E+02 -0.16616058664E+01 -0.41264966602E+02  0.60765293948E+02  0.00000000000E+00 0.  1.
         14    1    6    6    0    0 -0.27577377839E+02 -0.33472314832E+02 -0.28361570697E+02  0.51819748370E+02  0.00000000000E+00 0. -1.
         -5    1    3    3    0  503  0.24705591299E+02  0.56994152504E+02 -0.36658055731E+02  0.72281413317E+02  0.47000000000E+01 0.  1.
         13    1    4    4    0    0 -0.55707878413E+02  0.72851147580E+02 -0.36564106539E+02  0.98729890651E+02  0.00000000000E+00 0. -1.
        -14    1    4    4    0    0 -0.97080556545E+02  0.53687853486E+01 -0.20498475420E+02  0.99366220667E+02  0.00000000000E+00 0.  1.
</event>
<event>
12    1  0.1594973E-001  0.2676405E+03  0.7818608E-02  0.1103276E+00
         21   -1    0    0  503  502  0.00000000000E+00  0.00000000000E+00  0.43938951130E+02  0.43938951130E+02  0.00000000000E+00 0.  1.
         21   -1    0    0  501  503 -0.00000000000E+00 -0.00000000000E+00 -0.29570487779E+04  0.29570487779E+04  0.00000000000E+00 0. -1.
          6    2    1    2  501    0  0.58015807552E+01 -0.20462080373E+03 -0.24651220616E+04  0.24791405672E+04  0.16555313820E+03 0.  0.
         24    2    3    3    0    0 -0.24217635485E+02 -0.10182374199E+03 -0.91608664140E+03  0.92640066227E+03  0.89715573926E+02 0.  0.
         -6    2    1    2    0  502 -0.58015807552E+01  0.20462080373E+03 -0.44798776517E+03  0.52184716186E+03  0.17241836021E+03 0.  0.
        -24    2    5    5    0    0 -0.82287594783E+00  0.11076402837E+03 -0.12647996316E+03  0.18684979092E+03  0.81524942071E+02 0.  0.
          5    1    3    3  501    0  0.30019216240E+02 -0.10279706174E+03 -0.15490354202E+04  0.15527399049E+04  0.47000000000E+01 0. -1.
        -11    1    4    4    0    0 -0.46756405104E+01 -0.47163237455E+02 -0.72844494649E+03  0.72998511810E+03  0.00000000000E+00 0.  1.
         12    1    4    4    0    0 -0.19541994975E+02 -0.54660504531E+02 -0.18764169490E+03  0.19641554417E+03  0.00000000000E+00 0. -1.
         -5    1    5    5    0  502 -0.49787048074E+01  0.93856775354E+02 -0.32150780201E+03  0.33499737093E+03  0.47000000000E+01 0.  1.
         11    1    6    6    0    0 -0.28153158046E+02  0.56673445567E+01 -0.22232325535E+02  0.36317976279E+02  0.00000000000E+00 0. -1.
        -12    1    6    6    0    0  0.27330282098E+02  0.10509668382E+03 -0.10424763763E+03  0.15053181464E+03  0.00000000000E+00 0.  1.
</event>
<event>
12    1  0.1594973E-001  0.2948323E+03  0.7818608E-02  0.1087918E+00
         21   -1    0    0  503  502  0.00000000000E+00  0.00000000000E+00  0.18127597806E+03  0.18127597806E+03  0.00000000000E+00 0. -1.
         21   -1    0    0  501  503 -0.00000000000E+00 -0.00000000000E+00 -0.59602201693E+03  0.59602201693E+03  0.00000000000E+00 0.  1.
          6    2    1    2  501    0 -0.43564151953E+02 -0.23477126551E+03 -0.37995332715E+03  0.48092683286E+03  0.17294711708E+03 0.  0.
         24    2    3    3    0    0 -0.35294346377E+02 -0.24000066167E+03 -0.38942127989E+03  0.46652306955E+03  0.84550769962E+02 0.  0.
         -6    2    1    2    0  502  0.43564151953E+02  0.23477126551E+03 -0.34792711723E+02  0.29637116213E+03  0.17207542099E+03 0.  0.
        -24    2    5    5    0    0 -0.29376679584E+02  0.95284393977E+02 -0.51252020342E+02  0.13803622892E+03  0.80530279185E+02 0.  0.
          5    1    3    3  501    0 -0.82698055757E+01  0.52293961593E+01  0.94679527404E+01  0.14403763312E+02  0.47000000000E+01 0. -1.
        -13    1    4    4    0    0 -0.27304574168E+02 -0.64013252461E+02 -0.17923627096E+03  0.19227292344E+03  0.00000000000E+00 0.  1.
         14    1    4    4    0    0 -0.79897722097E+01 -0.17598740921E+03 -0.21018500892E+03  0.27425014610E+03  0.00000000000E+00 0. -1.
         -5    1    5    5    0  502  0.72940831537E+02  0.13948687153E+03  0.16459308619E+02  0.15833493321E+03  0.47000000000E+01 0.  1.
         11    1    6    6    0    0  0.10260808179E+01  0.43656276996E+02  0.17318730060E+02  0.46977247406E+02  0.00000000000E+00 0. -1.
        -12    1    6    6    0    0 -0.30402760402E+02  0.51628116981E+02 -0.68570750402E+02  0.91058981511E+02  0.00000000000E+00 0.  1.
</event>
<event>
12    1  0.1594973E-001  0.1878435E+03  0.7818608E-02  0.1160696E+00
         21   -1    0    0  503  502  0.00000000000E+00  0.00000000000E+00  0.21124839537E+03  0.21124839537E+03  0.00000000000E+00 0.  1.
         21   -1    0    0  501  503 -0.00000000000E+00 -0.00000000000E+00 -0.24271362295E+03  0.24271362295E+03  0.00000000000E+00 0.  1.
          6    2    1    2  501    0  0.73831187733E+02  0.13136838398E+02 -0.14333353586E+03  0.23533060520E+03  0.17091626732E+03 0.  0.
         24    2    3    3    0    0 -0.54407937896E+01 -0.10336867479E+02 -0.14608160878E+02  0.82270570938E+02  0.80116137025E+02 0.  0.
         -6    2    1    2    0  502 -0.73831187733E+02 -0.13136838398E+02  0.11186830828E+03  0.21863141312E+03  0.17222530476E+03 0.  0.
        -24    2    5    5    0    0 -0.22959409804E+02  0.27178881494E+02  0.12323298227E+03  0.15256674121E+03  0.82610026674E+02 0.  0.
          5    1    3    3  501    0  0.79271981522E+02  0.23473705877E+02 -0.12872537498E+03  0.15306003426E+03  0.47000000000E+01 0. -1.
        -11    1    4    4    0    0 -0.12127817863E+02  0.13099026185E+00 -0.46494423500E+02  0.48050312602E+02  0.00000000000E+00 0.  1.
         12    1    4    4    0    0  0.66870240731E+01 -0.10467857741E+02  0.31886262621E+02  0.34220258336E+02  0.00000000000E+00 0. -1.
         -5    1    5    5    0  502 -0.50871777929E+02 -0.40315719892E+02 -0.11364673986E+02  0.66064671912E+02  0.47000000000E+01 0.  1.
         13    1    6    6    0    0 -0.46002047723E+02  0.38557805935E+02  0.10537713048E+03  0.12127337887E+03  0.00000000000E+00 0. -1.
        -14    1    6    6    0    0  0.23042637919E+02 -0.11378924442E+02  0.17855851785E+02  0.31293362342E+02  0.00000000000E+00 0.  1.
</event>
<event>
12    1  0.1594973E-001  0.1756769E+03  0.7818608E-02  0.1172196E+00
         21   -1    0    0  503  502  0.00000000000E+00  0.00000000000E+00  0.17944331605E+03  0.17944331605E+03  0.00000000000E+00 0. -1.
         21   -1    0    0  501  503 -0.00000000000E+00 -0.00000000000E+00 -0.38170961556E+03  0.38170961556E+03  0.00000000000E+00 0. -1.
          6    2    1    2  501    0 -0.73128957080E+01 -0.34159201126E+02 -0.30945344350E+03  0.35584240334E+03  0.17216867560E+03 0.  0.
         24    2    3    3    0    0  0.29090058939E+02 -0.40611078382E+02 -0.80360387650E+02  0.12373785779E+03  0.79735652825E+02 0.  0.
         -6    2    1    2    0  502  0.73128957080E+01  0.34159201126E+02  0.10718714399E+03  0.20531052826E+03  0.17158962589E+03 0.  0.
        -24    2    5    5    0    0 -0.50870797155E+02  0.53224175397E+02  0.90465187595E+02  0.14166676042E+03  0.80404415253E+02 0.  0.
          5    1    3    3  501    0 -0.36402954647E+02  0.64518772556E+01 -0.22909305585E+03  0.23210454555E+03  0.47000000000E+01 0. -1.
        -13    1    4    4    0    0  0.20112006247E+02  0.22368776971E+02 -0.31206687378E+02  0.43344115120E+02  0.00000000000E+00 0.  1.
         14    1    4    4    0    0  0.89780526917E+01 -0.62979855353E+02 -0.49153700272E+02  0.80393742672E+02  0.00000000000E+00 0. -1.
         -5    1    5    5    0  502  0.58183692863E+02 -0.19064974271E+02  0.16721956393E+02  0.63643767839E+02  0.47000000000E+01 0.  1.
         13    1    6    6    0    0  0.10545379682E+02  0.29105019179E+02  0.16186257190E+01  0.30998824546E+02  0.00000000000E+00 0. -1.
        -14    1    6    6    0    0 -0.61416176838E+02  0.24119156218E+02  0.88846561876E+02  0.11066793588E+03  0.00000000000E+00 0.  1.
</event>
<event>
12    1  0.1594973E-001  0.1893709E+03  0.7818608E-02  0.1159230E+00
         21   -1    0    0  503  502  0.00000000000E+00  0.00000000000E+00  0.13757052791E+03  0.13757052791E+03  0.00000000000E+00 0. -1.
         21   -1    0    0  501  503 -0.00000000000E+00 -0.00000000000E+00 -0.27768697252E+03  0.27768697252E+03  0.00000000000E+00 0.  1.
          6    2    1    2  501    0  0.77398151997E+02 -0.13522105821E+02 -0.12309687661E+03  0.22512334102E+03  0.17133113074E+03 0.  0.
         24    2    3    3    0    0  0.88829430458E+02 -0.19738586142E+02 -0.24144294461E+02  0.12520826574E+03  0.82546249796E+02 0.  0.
         -6    2    1    2    0  502 -0.77398151997E+02  0.13522105821E+02 -0.17019568005E+02  0.19013415941E+03  0.17230209401E+03 0.  0.
        -24    2    5    5    0    0 -0.70428143985E+02  0.72563997714E+02 -0.67224828239E+01  0.12961436121E+03  0.80802435782E+02 0.  0.
          5    1    3    3  501    0 -0.11431278461E+02  0.62164803208E+01 -0.98952582147E+02  0.99915075281E+02  0.47000000000E+01 0. -1.
        -13    1    4    4    0    0  0.17946809226E+02 -0.80079314755E+00 -0.45397826224E+02  0.48823066853E+02  0.00000000000E+00 0.  1.
         14    1    4    4    0    0  0.70882621232E+02 -0.18937792994E+02  0.21253531762E+02  0.76385198884E+02  0.00000000000E+00 0. -1.
         -5    1    5    5    0  502 -0.69700080124E+01 -0.59041891893E+02 -0.10297085181E+02  0.60519798192E+02  0.47000000000E+01 0.  1.
         11    1    6    6    0    0 -0.60053165547E+02  0.16911860565E+02  0.21973853204E+02  0.66145626799E+02  0.00000000000E+00 0. -1.
        -12    1    6    6    0    0 -0.10374978437E+02  0.55652137149E+02 -0.28696336028E+02  0.63468734415E+02  0.00000000000E+00 0.  1.
</event>
<event>
12    1  0.1594973E-001  0.2030949E+03  0.7818608E-02  0.1147231E+00
         21   -1    0    0  503  502  0.00000000000E+00  0.00000000000E+00  0.20917286087E+03  0.20917286087E+03  0.00000000000E+00 0. -1.
         21   -1    0    0  501  503 -0.00000000000E+00 -0.00000000000E+00 -0.79155714457E+03  0.79155714457E+03  0.00000000000E+00 0. -1.
          6    2    1    2  501    0  0.68045205063E+02  0.84798904838E+02 -0.72497261984E+03  0.75288301902E+03  0.17154164687E+03 0.  0.
         24    2    3    3    0    0 -0.13109655974E+02  0.37286410019E+02 -0.18561021310E+03  0.20536366370E+03  0.78491679255E+02 0.  0.
         -6    2    1    2    0  502 -0.68045205063E+02 -0.84798904838E+02  0.14258833615E+03  0.24784698642E+03  0.17110140525E+03 0.  0.
        -24    2    5    5    0    0 -0.98451309296E+01  0.17860195920E+02  0.45000732044E+02  0.94642645514E+02  0.80723300627E+02 0.  0.
          5    1    3    3  501    0  0.81154861037E+02  0.47512494818E+02 -0.53936240674E+03  0.54751935531E+03  0.47000000000E+01 0. -1.
        -11    1    4    4    0    0 -0.30452605865E+02 -0.87845222517E+01 -0.36513255520E+02  0.48350251952E+02  0.00000000000E+00 0.  1.
         12    1    4    4    0    0  0.17342949891E+02  0.46070932271E+02 -0.14909695758E+03  0.15701341175E+03  0.00000000000E+00 0. -1.
         -5    1    5    5    0  502 -0.58200074133E+02 -0.10265910076E+03  0.97587604108E+02  0.15320434091E+03  0.47000000000E+01 0.  1.
         13    1    6    6    0    0 -0.93330583335E+01 -0.29713647484E+02  0.31953285775E+01  0.31308416590E+02  0.00000000000E+00 0. -1.
        -14    1    6    6    0    0 -0.51207259606E+00  0.47573843404E+02  0.41805403466E+02  0.63334228925E+02  0.00000000000E+00 0.  1.
</event>
<event>
12    1  0.1594973E-001  0.2118722E+03  0.7818608E-02  0.1141267E+00
         21   -1    0    0  501  502  0.00000000000E+00  0.00000000000E+00  0.50747641688E+02  0.50747641688E+02  0.00000000000E+00 0.  1.
         21   -1    0    0  502  503 -0.00000000000E+00 -0.00000000000E+00 -0.10138503709E+04  0.10138503709E+04  0.00000000000E+00 0.  1.
         -6    2    1    2    0  503  0.93090929339E+02  0.65002615799E+02 -0.69464673019E+03  0.72623958036E+03  0.17888148907E+03 0.  0.
        -24    2    3    3    0    0  0.11375492692E+03 -0.36414275338E+01 -0.49046598769E+03  0.50978895992E+03  0.79840185259E+02 0.  0.
          6    2    1    2  501    0 -0.93090929339E+02 -0.65002615799E+02 -0.26845599905E+03  0.33835843225E+03  0.17183289577E+03 0.  0.
         24    2    5    5    0    0 -0.54152501406E+02  0.29254194646E+02 -0.16391583711E+03  0.19223765022E+03  0.79363790187E+02 0.  0.
          5    1    5    5  501    0 -0.38938427933E+02 -0.94256810446E+02 -0.10454016194E+03  0.14612078204E+03  0.47000000000E+01 0. -1.
        -13    1    6    6    0    0 -0.52477353473E+02  0.43836343046E+02 -0.72527798616E+02  0.99678378655E+02  0.00000000000E+00 0.  1.
         14    1    6    6    0    0 -0.16751479330E+01 -0.14582148400E+02 -0.91388038492E+02  0.92559271561E+02  0.00000000000E+00 0. -1.
         -5    1    3    3    0  503 -0.20663997578E+02  0.68644043333E+02 -0.20418074251E+03  0.21645062045E+03  0.47000000000E+01 0.  1.
         13    1    4    4    0    0  0.67413001445E+01  0.26405491270E+02 -0.78717345131E+02  0.83301353659E+02  0.00000000000E+00 0. -1.
        -14    1    4    4    0    0  0.10701362677E+03 -0.30046918804E+02 -0.41174864256E+03  0.42648760626E+03  0.00000000000E+00 0.  1.
</event>
<event>
12    1  0.1594973E-001  0.2034069E+03  0.7818608E-02  0.1149926E+00
         21   -1    0    0  501  502  0.00000000000E+00  0.00000000000E+00  0.10869911085E+04  0.10869911085E+04  0.00000000000E+00 0.  1.
         21   -1    0    0  502  503 -0.00000000000E+00 -0.00000000000E+00 -0.11598957018E+03  0.11598957018E+03  0.00000000000E+00 0.  1.
         -6    2    1    2    0  503 -0.62715046309E+02 -0.25627415134E+02 -0.20909877792E+02  0.19042814590E+03  0.17673628468E+03 0.  0.
        -24    2    3    3    0    0 -0.82673453833E+02  0.33293259415E+02 -0.14494684988E+02  0.12771268833E+03  0.90316630673E+02 0.  0.
          6    2    1    2  501    0  0.62715046309E+02  0.25627415134E+02  0.99191141607E+03  0.10125525327E+04  0.19179268171E+03 0.  0.
         24    2    5    5    0    0 -0.53012927486E+02  0.95899979244E+01  0.41781872949E+03  0.42667313775E+03  0.67639760685E+02 0.  0.
          5    1    5    5  501    0  0.11572797380E+03  0.16037417209E+02  0.57409268658E+03  0.58587939497E+03  0.47000000000E+01 0. -1.
        -13    1    6    6    0    0 -0.63127163705E+02 -0.93007670057E+01  0.34115961196E+03  0.34707553054E+03  0.00000000000E+00 0.  1.
         14    1    6    6    0    0  0.10114236219E+02  0.18890764930E+02  0.76659117530E+02  0.79597607215E+02  0.00000000000E+00 0. -1.
         -5    1    3    3    0  503  0.19958407523E+02 -0.58920674549E+02 -0.64151928046E+01  0.62715457575E+02  0.47000000000E+01 0.  1.
         13    1    4    4    0    0 -0.14455700799E+02 -0.20922854903E+02  0.21627846161E+02  0.33384081123E+02  0.00000000000E+00 0. -1.
        -14    1    4    4    0    0 -0.68217753034E+02  0.54216114318E+02 -0.36122531149E+02  0.94328607205E+02  0.00000000000E+00 0.  1.
</event>
<event>
12    1  0.1594973E-001  0.2554059E+03  0.7818608E-02  0.1111273E+00
         21   -1    0    0  501  502  0.00000000000E+00  0.00000000000E+00  0.23377189781E+03  0.23377189781E+03  0.00000000000E+00 0. -1.
         21   -1    0    0  502  503 -0.00000000000E+00 -0.00000000000E+00 -0.27008160810E+03  0.27008160810E+03  0.00000000000E+00 0.  1.
         -6    2    1    2    0  503  0.11299593725E+03 -0.15451449040E+03 -0.94607501618E+01  0.24704024655E+03  0.15587356429E+03 0.  0.
        -24    2    3    3    0    0  0.13068940958E+03 -0.11480754241E+03  0.23854790719E+02  0.19207010970E+03  0.77854880574E+02 0.  0.
          6    2    1    2  501    0 -0.11299593725E+03  0.15451449040E+03 -0.26848960123E+02  0.25681325936E+03  0.16908392574E+03 0.  0.
         24    2    5    5    0    0 -0.98874830730E+02  0.17407198830E+03 -0.49478957840E+02  0.22340505423E+03  0.85932308944E+02 0.  0.
          5    1    5    5  501    0 -0.14121106523E+02 -0.19557497904E+02  0.22629997717E+02  0.33408205135E+02  0.47000000000E+01 0. -1.
        -13    1    6    6    0    0 -0.18467939262E+02 -0.68704196949E+01 -0.68782942474E+01  0.20870514587E+02  0.00000000000E+00 0.  1.
         14    1    6    6    0    0 -0.80406891468E+02  0.18094240800E+03 -0.42600663593E+02  0.20253453964E+03  0.00000000000E+00 0. -1.
         -5    1    3    3    0  503 -0.17693472324E+02 -0.39706947987E+02 -0.33315540880E+02  0.54970136852E+02  0.47000000000E+01 0.  1.
         13    1    4    4    0    0  0.98843367758E+02 -0.43281590443E+02  0.33968208464E+02  0.11312447395E+03  0.00000000000E+00 0. -1.
        -14    1    4    4    0    0  0.31846041819E+02 -0.71525951971E+02 -0.10113417746E+02  0.78945635746E+02  0.00000000000E+00 0.  1.
</event>
<event>
12    1  0.1594973E-001  0.2009498E+03  0.7818608E-02  0.1149484E+00
         21   -1    0    0  503  502  0.00000000000E+00  0.00000000000E+00  0.46697712088E+03  0.46697712088E+03  0.00000000000E+00 0.  1.
         21   -1    0    0  501  503 -0.00000000000E+00 -0.00000000000E+00 -0.12608828212E+03  0.12608828212E+03  0.00000000000E+00 0.  1.
          6    2    1    2  501    0  0.57448999716E+02  0.81037923252E+02  0.26744364921E+01  0.20096758970E+03  0.17468052819E+03 0.  0.
         24    2    3    3    0    0  0.81387934278E+02  0.11625706843E+02 -0.17580722067E+01  0.12725961518E+03  0.97122427547E+02 0.  0.
         -6    2    1    2    0  502 -0.57448999716E+02 -0.81037923252E+02  0.33821440227E+03  0.39209781329E+03  0.17170958247E+03 0.  0.
        -24    2    5    5    0    0 -0.98499500926E+02 -0.37735929687E+02  0.27377243690E+03  0.30414860524E+03  0.80180264356E+02 0.  0.
          5    1    3    3  501    0 -0.23938934562E+02  0.69412216409E+02  0.44325086988E+01  0.73707974522E+02  0.47000000000E+01 0. -1.
        -13    1    4    4    0    0 -0.88855112214E+01  0.31458899491E+02 -0.10713062367E+02  0.34400354244E+02  0.00000000000E+00 0.  1.
         14    1    4    4    0    0  0.90273445500E+02 -0.19833192648E+02  0.89549901606E+01  0.92859260937E+02  0.00000000000E+00 0. -1.
         -5    1    5    5    0  502  0.41050501209E+02 -0.43301993565E+02  0.64441965366E+02  0.87949208049E+02  0.47000000000E+01 0.  1.
         13    1    6    6    0    0 -0.29844794192E+02 -0.57922917858E+01  0.13826263816E+02  0.33398023229E+02  0.00000000000E+00 0. -1.
        -14    1    6    6    0    0 -0.68654706734E+02 -0.31943637901E+02  0.25994617308E+03  0.27075058201E+03  0.00000000000E+00 0.  1.
</event>
<event>
12    1  0.1594973E-001  0.1960057E+03  0.7818608E-02  0.1153486E+00
         21   -1    0    0  503  502  0.00000000000E+00  0.00000000000E+00  0.25813947165E+03  0.25813947165E+03  0.00000000000E+00 0.  1.
         21   -1    0    0  501  503 -0.00000000000E+00 -0.00000000000E+00 -0.23037433345E+03  0.23037433345E+03  0.00000000000E+00 0. -1.
          6    2    1    2  501    0  0.84194296101E+02  0.42341596259E+02 -0.13243361461E+03  0.23655211547E+03  0.17186259274E+03 0.  0.
         24    2    3    3    0    0 -0.63648978710E+01  0.65696499124E+02 -0.69238153634E+02  0.12358231690E+03  0.78244010693E+02 0.  0.
         -6    2    1    2    0  502 -0.84194296101E+02 -0.42341596259E+02  0.16019875281E+03  0.25196168963E+03  0.17011632011E+03 0.  0.
        -24    2    5    5    0    0 -0.76303530792E+02  0.76299020699E+01  0.16779755390E+03  0.20058809135E+03  0.78734484685E+02 0.  0.
          5    1    3    3  501    0  0.90559193972E+02 -0.23354902864E+02 -0.63195460977E+02  0.11296979857E+03  0.47000000000E+01 0. -1.
        -11    1    4    4    0    0 -0.28047298296E+02  0.17603399755E+02 -0.62059371382E+02  0.70341283760E+02  0.00000000000E+00 0.  1.
         12    1    4    4    0    0  0.21682400425E+02  0.48093099369E+02 -0.71787822524E+01  0.53241033139E+02  0.00000000000E+00 0. -1.
         -5    1    5    5    0  502 -0.78907653095E+01 -0.49971498329E+02 -0.75988010896E+01  0.51373598282E+02  0.47000000000E+01 0.  1.
         11    1    6    6    0    0 -0.84688211795E+02  0.29821632624E+00  0.96356021282E+02  0.12828353358E+03  0.00000000000E+00 0. -1.
        -12    1    6    6    0    0  0.83846810034E+01  0.73316857436E+01  0.71441532616E+02  0.72304557767E+02  0.00000000000E+00 0.  1.
</event>
<event>
12    1  0.1594973E-001  0.1761315E+03  0.7818608E-02  0.1171687E+00
         21   -1    0    0  501  502  0.00000000000E+00  0.00000000000E+00  0.47144075736E+03  0.47144075736E+03  0.00000000000E+00 0. -1.
         21   -1    0    0  502  503 -0.00000000000E+00 -0.00000000000E+00 -0.18211091064E+03  0.18211091064E+03  0.00000000000E+00 0. -1.
         -6    2    1    2    0  503 -0.32433554134E+02  0.89976917133E+01 -0.11657635645E+03  0.21121634239E+03  0.17288551854E+03 0.  0.
        -24    2    3    3    0    0 -0.71398642801E+02 -0.39264524442E+02 -0.84638189144E+02  0.14129026590E+03  0.78484693426E+02 0.  0.
          6    2    1    2  501    0  0.32433554134E+02 -0.89976917133E+01  0.40590620317E+03  0.44233532561E+03  0.17253347681E+03 0.  0.
         24    2    5    5    0    0  0.62065842828E+02 -0.50523099301E+02  0.19725008921E+03  0.22748212944E+03  0.80223245476E+02 0.  0.
          5    1    5    5  501    0 -0.29632288694E+02  0.41525407587E+02  0.20865611396E+03  0.21485319616E+03  0.47000000000E+01 0. -1.
        -11    1    6    6    0    0  0.11562825258E+02  0.47638035908E+01 -0.36935343498E+01  0.13039744959E+02  0.00000000000E+00 0.  1.
         12    1    6    6    0    0  0.50503017571E+02 -0.55286902891E+02  0.20094362356E+03  0.21444238448E+03  0.00000000000E+00 0. -1.
         -5    1    3    3    0  503  0.38965088667E+02  0.48262216155E+02 -0.31938167309E+02  0.69926076496E+02  0.47000000000E+01 0.  1.
         11    1    4    4    0    0 -0.31529136756E+02  0.55309958453E+01 -0.73674076979E+02  0.80327753599E+02  0.00000000000E+00 0. -1.
        -12    1    4    4    0    0 -0.39869506045E+02 -0.44795520287E+02 -0.10964112165E+02  0.60962512298E+02  0.00000000000E+00 0.  1.
</event>
<event>
12    1  0.1594973E-001  0.2101670E+03  0.7818608E-02  0.1142088E+00
         21   -1    0    0  503  502  0.00000000000E+00  0.00000000000E+00  0.20008379589E+03  0.20008379589E+03  0.00000000000E+00 0. -1.
         21   -1    0    0  501  503 -0.00000000000E+00 -0.00000000000E+00 -0.44445351859E+03  0.44445351859E+03  0.00000000000E+00 0. -1.
          6    2    1    2  501    0 -0.10525116111E+03  0.47166111587E+02 -0.35302986501E+03  0.41085306980E+03  0.17569208970E+03 0.  0.
         24    2    3    3    0    0  0.93501387203E+01 -0.12236496817E+02 -0.15292213676E+03  0.17267809062E+03  0.78710775110E+02 0.  0.
         -6    2    1    2    0  502  0.10525116111E+03 -0.47166111587E+02  0.10866014231E+03  0.23368424467E+03  0.17175229456E+03 0.  0.
        -24    2    5    5    0    0  0.19146148135E+02 -0.26477802381E+02  0.11669676896E+03  0.14464067801E+03  0.78962908006E+02 0.  0.
          5    1    3    3  501    0 -0.11460129983E+03  0.59402608404E+02 -0.20010772825E+03  0.23817497919E+03  0.47000000000E+01 0. -1.
        -13    1    4    4    0    0  0.19604284913E+01 -0.38294625776E+01 -0.15959095086E+03  0.15964892627E+03  0.00000000000E+00 0.  1.
         14    1    4    4    0    0  0.73897102290E+01 -0.84070342396E+01  0.66688140989E+01  0.13029164342E+02  0.00000000000E+00 0. -1.
         -5    1    5    5    0  502  0.86105012972E+02 -0.20688309206E+02 -0.80366266535E+01  0.89043566666E+02  0.47000000000E+01 0.  1.
         11    1    6    6    0    0 -0.24509806598E+02 -0.17876906167E+02  0.15441926883E+02  0.34040674192E+02  0.00000000000E+00 0. -1.
        -12    1    6    6    0    0  0.43655954733E+02 -0.86008962142E+01  0.10125484208E+03  0.11060000382E+03  0.00000000000E+00 0.  1.
</event>
<event>
12    1  0.1594973E-001  0.1813670E+03  0.7818608E-02  0.1166536E+00
         21   -1    0    0  503  502  0.00000000000E+00  0.00000000000E+00  0.36378877343E+02  0.36378877343E+02  0.00000000000E+00 0. -1.
         21   -1    0    0  501  503 -0.00000000000E+00 -0.00000000000E+00 -0.92439264463E+03  0.92439264463E+03  0.00000000000E+00 0. -1.
          6    2    1    2  501    0  0.25624896710E+02  0.44443127041E+02 -0.51703647501E+03  0.54792399274E+03  0.17396022091E+03 0.  0.
         24    2    3    3    0    0 -0.37247293237E+02  0.20122990194E+02 -0.15315942836E+03  0.17782538912E+03  0.79823323233E+02 0.  0.
         -6    2    1    2    0  502 -0.25624896710E+02 -0.44443127041E+02 -0.37097729227E+03  0.41284752923E+03  0.17374436432E+03 0.  0.
        -24    2    5    5    0    0 -0.68552935205E+02 -0.57069830120E+02 -0.33078543773E+03  0.35251739338E+03  0.83024312014E+02 0.  0.
          5    1    3    3  501    0  0.62872189947E+02  0.24320136847E+02 -0.36387704665E+03  0.37009860362E+03  0.47000000000E+01 0. -1.
        -11    1    4    4    0    0 -0.36274722019E+02 -0.11573512979E+01 -0.15223648476E+03  0.15650285049E+03  0.00000000000E+00 0.  1.
         12    1    4    4    0    0 -0.97257121819E+00  0.21280341492E+02 -0.92294360252E+00  0.21322538631E+02  0.00000000000E+00 0. -1.
         -5    1    5    5    0  502  0.42928038496E+02  0.12626703079E+02 -0.40191854540E+02  0.60330135845E+02  0.47000000000E+01 0.  1.
         13    1    6    6    0    0 -0.12402052581E+02  0.15467061165E+02 -0.13331559713E+03  0.13478163572E+03  0.00000000000E+00 0. -1.
        -14    1    6    6    0    0 -0.56150882624E+02 -0.72536891285E+02 -0.19746984060E+03  0.21773575766E+03  0.00000000000E+00 0.  1.
</event>
<event>
12    1  0.1594973E-001  0.1725976E+03  0.7818608E-02  0.1175239E+00
         21   -1    0    0  501  502  0.00000000000E+00  0.00000000000E+00  0.15290122034E+03  0.15290122034E+03  0.00000000000E+00 0. -1.
         21   -1    0    0  502  503 -0.00000000000E+00 -0.00000000000E+00 -0.33955357588E+03  0.33955357588E+03  0.00000000000E+00 0. -1.
         -6    2    1    2    0  503 -0.76395059690E+01  0.19336825747E+01 -0.25421056788E+03  0.30710640231E+03  0.17213142752E+03 0.  0.
        -24    2    3    3    0    0 -0.32182641932E+02  0.58598215419E+02 -0.11744266605E+03  0.15697051794E+03  0.79859191091E+02 0.  0.
          6    2    1    2  501    0  0.76395059690E+01 -0.19336825747E+01  0.67558212334E+02  0.18534839391E+03  0.17241755680E+03 0.  0.
         24    2    5    5    0    0  0.72337823727E+02 -0.18772050937E+02  0.46062727654E+02  0.11496694159E+03  0.74232554457E+02 0.  0.
          5    1    5    5  501    0 -0.64698317758E+02  0.16838368363E+02  0.21495484680E+02  0.70381452326E+02  0.47000000000E+01 0. -1.
        -13    1    6    6    0    0 -0.11994370873E+02 -0.63649962171E+01 -0.62570477711E+01  0.14950878111E+02  0.00000000000E+00 0.  1.
         14    1    6    6    0    0  0.84332194600E+02 -0.12407054720E+02  0.52319775425E+02  0.10001606348E+03  0.00000000000E+00 0. -1.
         -5    1    3    3    0  503  0.24543135963E+02 -0.56664532844E+02 -0.13676790183E+03  0.15013588437E+03  0.47000000000E+01 0.  1.
         13    1    4    4    0    0 -0.13993657855E+02  0.73748445565E+02 -0.10791144306E+03  0.13145164597E+03  0.00000000000E+00 0. -1.
        -14    1    4    4    0    0 -0.18188984077E+02 -0.15150230146E+02 -0.95312229884E+01  0.25518871975E+02  0.00000000000E+00 0.  1.
</event>
<event>
12    1  0.1594973E-001  0.1949479E+03  0.7818608E-02  0.1155628E+00
         21   -1    0    0  503  502  0.00000000000E+00  0.00000000000E+00  0.90384208930E+02  0.90384208930E+02  0.00000000000E+00 0.  1.
         21   -1    0    0  501  503 -0.00000000000E+00 -0.00000000000E+00 -0.57590999018E+03  0.57590999018E+03  0.00000000000E+00 0.  1.
          6    2    1    2  501    0 -0.74152522824E+02 -0.14552983633E+02 -0.42706863236E+03  0.46945960375E+03  0.17970619586E+03 0.  0.
         24    2    3    3    0    0 -0.91861773859E+02 -0.63426735457E+02 -0.33239862942E+03  0.36135428174E+03  0.87330016745E+02 0.  0.
         -6    2    1    2    0  502  0.74152522824E+02  0.14552983633E+02 -0.58457148890E+02  0.19683459536E+03  0.17209367711E+03 0.  0.
        -24    2    5    5    0    0  0.70941956530E+02 -0.82372796896E+01 -0.10262549216E+03  0.14680823846E+03  0.76941882393E+02 0.  0.
          5    1    3    3  501    0  0.17709251035E+02  0.48873751824E+02 -0.94670002945E+02  0.10810532201E+03  0.47000000000E+01 0. -1.
        -11    1    4    4    0    0 -0.64942141490E+01 -0.49715976280E+02 -0.78575904680E+02  0.93209580576E+02  0.00000000000E+00 0.  1.
         12    1    4    4    0    0 -0.85367559710E+02 -0.13710759177E+02 -0.25382272474E+03  0.26814470116E+03  0.00000000000E+00 0. -1.
         -5    1    5    5    0  502  0.32105662940E+01  0.22790263323E+02  0.44168343266E+02  0.50026356905E+02  0.47000000000E+01 0.  1.
         13    1    6    6    0    0  0.41130398151E+02 -0.26075520503E+02 -0.12586947105E+02  0.50299837564E+02  0.00000000000E+00 0. -1.
        -14    1    6    6    0    0  0.29811558378E+02  0.17838240813E+02 -0.90038545052E+02  0.96508400895E+02  0.00000000000E+00 0.  1.
</event>
<event>
12    1  0.1594973E-001  0.2242962E+03  0.7818608E-02  0.1130893E+00
         21   -1    0    0  501  502  0.00000000000E+00  0.00000000000E+00  0.58076288181E+03  0.58076288181E+03  0.00000000000E+00 0.  1.
         21   -1    0    0  502  503 -0.00000000000E+00 -0.00000000000E+00 -0.24427175233E+03  0.24427175233E+03  0.00000000000E+00 0.  1.
         -6    2    1    2    0  503 -0.76747819422E+01  0.14205968529E+03 -0.16366224187E+03  0.27689033662E+03  0.17217163714E+03 0.  0.
        -24    2    3    3    0    0 -0.47631177223E+02  0.15513974007E+03 -0.14066000541E+03  0.22873647656E+03  0.78727826055E+02 0.  0.
          6    2    1    2  501    0  0.76747819422E+01 -0.14205968529E+03  0.50015337135E+03  0.54814429752E+03  0.17340392028E+03 0.  0.
         24    2    5    5    0    0 -0.16700681542E+02 -0.13153975509E+03  0.23346524792E+03  0.28009676940E+03  0.79790715684E+02 0.  0.
          5    1    5    5  501    0  0.24375463484E+02 -0.10519930204E+02  0.26668812344E+03  0.26804752813E+03  0.47000000000E+01 0. -1.
        -11    1    6    6    0    0 -0.40000803348E+02 -0.91408152785E+02  0.19790051704E+03  0.22163061455E+03  0.00000000000E+00 0.  1.
         12    1    6    6    0    0  0.23300121806E+02 -0.40131602305E+02  0.35564730880E+02  0.58466154845E+02  0.00000000000E+00 0. -1.
         -5    1    3    3    0  503  0.39956395280E+02 -0.13080054772E+02 -0.23002236459E+02  0.48153860061E+02  0.47000000000E+01 0.  1.
         11    1    4    4    0    0  0.16085544780E+01  0.30939565814E+02  0.46635376411E+01  0.31330380840E+02  0.00000000000E+00 0. -1.
        -12    1    4    4    0    0 -0.49239731701E+02  0.12420017425E+03 -0.14532354305E+03  0.19740609572E+03  0.00000000000E+00 0.  1.
</event>
<event>
12    1  0.1594973E-001  0.2786452E+03  0.7818608E-02  0.1096496E+00
         21   -1    0    0  501  502  0.00000000000E+00  0.00000000000E+00  0.21368689580E+03  0.21368689580E+03  0.00000000000E+00 0. -1.
         21   -1    0    0  502  503 -0.00000000000E+00 -0.00000000000E+00 -0.63030774531E+03  0.63030774531E+03  0.00000000000E+00 0.  1.
         -6    2    1    2    0  503  0.49567977638E+02 -0.21247479815E+03 -0.48336117219E+03  0.55792577610E+03  0.17332231420E+03 0.  0.
        -24    2    3    3    0    0  0.84535886206E+02 -0.20211533056E+03 -0.33147717813E+03  0.40165386291E+03  0.58751877147E+02 0.  0.
          6    2    1    2  501    0 -0.49567977638E+02  0.21247479815E+03  0.66740322691E+02  0.28606886501E+03  0.17256477219E+03 0.  0.
         24    2    5    5    0    0 -0.32302325955E+01  0.15791691736E+03 -0.13935693672E+02  0.17811304725E+03  0.81128705474E+02 0.  0.
          5    1    5    5  501    0 -0.46337745042E+02  0.54557880786E+02  0.80676016363E+02  0.10795581776E+03  0.47000000000E+01 0. -1.
        -13    1    6    6    0    0  0.36848714261E+02  0.84666548209E+02  0.50787158289E+01  0.92477270087E+02  0.00000000000E+00 0.  1.
         14    1    6    6    0    0 -0.40078946856E+02  0.73250369153E+02 -0.19014409501E+02  0.85635777166E+02  0.00000000000E+00 0. -1.
         -5    1    3    3    0  503 -0.34967908569E+02 -0.10359467588E+02 -0.15188399407E+03  0.15627191319E+03  0.47000000000E+01 0.  1.
         13    1    4    4    0    0  0.78991778375E+02 -0.12020237256E+03 -0.19358398480E+03  0.24117021083E+03  0.00000000000E+00 0. -1.
        -14    1    4    4    0    0  0.55441078313E+01 -0.81912958002E+02 -0.13789319332E+03  0.16048365208E+03  0.00000000000E+00 0.  1.
</event>
<event>
12    1  0.1594973E-001  0.3549897E+03  0.7818608E-02  0.1060686E+00
         21   -1    0    0  501  502  0.00000000000E+00  0.00000000000E+00  0.36680174599E+03  0.36680174599E+03  0.00000000000E+00 0.  1.
         21   -1    0    0  502  503 -0.00000000000E+00 -0.00000000000E+00 -0.39426205972E+03  0.39426205972E+03  0.00000000000E+00 0. -1.
         -6    2    1    2    0  503 -0.30881571951E+03  0.92724238963E+01 -0.15149579980E+03  0.38596462889E+03  0.17482731746E+03 0.  0.
        -24    2    3    3    0    0 -0.19551963918E+03 -0.59330402999E+02 -0.70884814902E+02  0.23084348087E+03  0.80721927931E+02 0.  0.
          6    2    1    2  501    0  0.30881571951E+03 -0.92724238963E+01  0.12403548607E+03  0.37509917682E+03  0.17280469954E+03 0.  0.
         24    2    5    5    0    0  0.31832370784E+03 -0.59888687242E+00  0.91360867849E+02  0.33966821914E+03  0.75480787496E+02 0.  0.
          5    1    5    5  501    0 -0.95079883253E+01 -0.86735370238E+01  0.32674618221E+02  0.35430957683E+02  0.47000000000E+01 0. -1.
        -13    1    6    6    0    0  0.16698424451E+03  0.18371783087E+02  0.81789741756E+02  0.18684437959E+03  0.00000000000E+00 0.  1.
         14    1    6    6    0    0  0.15133946333E+03 -0.18970669960E+02  0.95711260930E+01  0.15282383954E+03  0.00000000000E+00 0. -1.
         -5    1    3    3    0  503 -0.11329608033E+03  0.68602826895E+02 -0.80610984903E+02  0.15512114802E+03  0.47000000000E+01 0.  1.
         11    1    4    4    0    0 -0.12558312244E+03 -0.29223401274E+02 -0.83569951876E+02  0.15365241515E+03  0.00000000000E+00 0. -1.
        -12    1    4    4    0    0 -0.69936516741E+02 -0.30107001725E+02  0.12685136974E+02  0.77191065719E+02  0.00000000000E+00 0.  1.
</event>
<event>
12    1  0.1594973E-001  0.1657989E+03  0.7818608E-02  0.1182570E+00
         21   -1    0    0  503  502  0.00000000000E+00  0.00000000000E+00  0.13485737383E+04  0.13485737383E+04  0.00000000000E+00 0. -1.
         21   -1    0    0  501  503 -0.00000000000E+00 -0.00000000000E+00 -0.32137650594E+02  0.32137650594E+02  0.00000000000E+00 0. -1.
          6    2    1    2  501    0 -0.60763715078E+02 -0.15219370877E+02  0.10791313213E+04  0.10917937956E+04  0.15351034243E+03 0.  0.
         24    2    3    3    0    0 -0.83032101625E+02  0.65635126841E+01  0.99984466845E+03  0.10064776871E+04  0.79815812831E+02 0.  0.
         -6    2    1    2    0  502  0.60763715078E+02  0.15219370877E+02  0.23730476639E+03  0.28891759326E+03  0.15243347802E+03 0.  0.
        -24    2    5    5    0    0  0.50396644854E+02  0.65343438435E+02  0.17283815772E+03  0.20646802123E+03  0.77113087526E+02 0.  0.
          5    1    3    3  501    0  0.22268386546E+02 -0.21782883562E+02  0.79286652847E+02  0.85316108533E+02  0.47000000000E+01 0. -1.
        -11    1    4    4    0    0 -0.36516083134E+02  0.32543780562E+02  0.24984930709E+03  0.25459221950E+03  0.00000000000E+00 0.  1.
         12    1    4    4    0    0 -0.46516018491E+02 -0.25980267878E+02  0.74999536136E+03  0.75188546758E+03  0.00000000000E+00 0. -1.
         -5    1    5    5    0  502  0.10367070225E+02 -0.50124067558E+02  0.64466608672E+02  0.82449572025E+02  0.47000000000E+01 0.  1.
         13    1    6    6    0    0  0.44337978907E+02 -0.19044548440E+01  0.55172776032E+02  0.70806204085E+02  0.00000000000E+00 0. -1.
        -14    1    6    6    0    0  0.60586659468E+01  0.67247893279E+02  0.11766538169E+03  0.13566181715E+03  0.00000000000E+00 0.  1.
</event>
<event>
12    1  0.1594973E-001  0.1866430E+03  0.7818608E-02  0.1162703E+00
         21   -1    0    0  501  502  0.00000000000E+00  0.00000000000E+00  0.11344293209E+03  0.11344293209E+03  0.00000000000E+00 0.  1.
         21   -1    0    0  502  503 -0.00000000000E+00 -0.00000000000E+00 -0.29885690989E+03  0.29885690989E+03  0.00000000000E+00 0.  1.
         -6    2    1    2    0  503 -0.52697897934E+02  0.24685849817E+02 -0.90915006449E+02  0.20309741767E+03  0.17203651658E+03 0.  0.
        -24    2    3    3    0    0 -0.96865378275E+02  0.29751963604E+02 -0.87066255054E+02  0.15822721914E+03  0.84777587021E+02 0.  0.
          6    2    1    2  501    0  0.52697897934E+02 -0.24685849817E+02 -0.94498971349E+02  0.20920242431E+03  0.17733905132E+03 0.  0.
         24    2    5    5    0    0  0.34588552670E+02  0.84742650910E+01 -0.12995888139E+03  0.15717323225E+03  0.80906939981E+02 0.  0.
          5    1    5    5  501    0  0.18109345264E+02 -0.33160114908E+02  0.35459910044E+02  0.52029192066E+02  0.47000000000E+01 0. -1.
        -11    1    6    6    0    0  0.34668149387E+02 -0.44467138466E+01 -0.97702541264E+01  0.36292033722E+02  0.00000000000E+00 0.  1.
         12    1    6    6    0    0 -0.79596717190E-01  0.12920978938E+02 -0.12018862727E+03  0.12088119852E+03  0.00000000000E+00 0. -1.
         -5    1    3    3    0  503  0.44167480340E+02 -0.50661137863E+01 -0.38487513943E+01  0.44870198527E+02  0.47000000000E+01 0.  1.
         13    1    4    4    0    0 -0.22990746815E+02 -0.26692352377E+02 -0.78669285306E+01  0.36096325008E+02  0.00000000000E+00 0. -1.
        -14    1    4    4    0    0 -0.73874631460E+02  0.56444315981E+02 -0.79199326524E+02  0.12213089413E+03  0.00000000000E+00 0.  1.
</event>
