<event>
12    1  0.8494789E-002  0.1906719E+03  0.7818608E-02  0.1158898E+00
         21   -1    0    0  503  502  0.00000000000E+00  0.00000000000E+00  0.58865456284E+03  0.58865456284E+03  0.00000000000E+00 0.  1.
         21   -1    0    0  501  503 -0.00000000000E+00 -0.00000000000E+00 -0.98288148558E+02  0.98288148558E+02  0.00000000000E+00 0.  1.
          6    2    1    2  501    0  0.72275012002E+02 -0.18724011701E+02  0.29791626211E+02  0.18846008600E+03  0.17045643740E+03 0.  0.
         24    2    3    3    0    0  0.73336648678E+02 -0.47047483031E+02  0.71188115805E+02  0.13807054888E+03  0.80024989459E+02 0.  0.
         -6    2    1    2    0  502 -0.72275012002E+02  0.18724011701E+02  0.46057478807E+03  0.49848262539E+03  0.17544664841E+03 0.  0.
        -24    2    5    5    0    0 -0.51577855713E+02  0.48397348809E+02  0.44715158472E+03  0.45960909196E+03  0.79330946810E+02 0.  0.
          5    1    3    3  501    0 -0.10616366767E+01  0.28323471330E+02 -0.41396489594E+02  0.50389537122E+02  0.47000000000E+01 0. -1.
        -11    1    4    4    0    0  0.19097870668E+02 -0.94640086523E+01 -0.17464279283E+02  0.27555347479E+02  0.00000000000E+00 0.  1.
         12    1    4    4    0    0  0.54238778011E+02 -0.37583474378E+02  0.88652395088E+02  0.11051520140E+03  0.00000000000E+00 0. -1.
         -5    1    5    5    0  502 -0.20697156288E+02 -0.29673337108E+02  0.13423203351E+02  0.38873533435E+02  0.47000000000E+01 0.  1.
         13    1    6    6    0    0  0.29653923701E+01  0.41645117805E+02  0.10371904154E+03  0.11180674831E+03  0.00000000000E+00 0. -1.
        -14    1    6    6    0    0 -0.54543248083E+02  0.67522310037E+01  0.34343254317E+03  0.34780234365E+03  0.00000000000E+00 0.  1.
</event>
<event>
12    1  0.8494789E-002  0.3143429E+03  0.7818608E-02  0.1078395E+00
         21   -1    0    0  503  502  0.00000000000E+00  0.00000000000E+00  0.95863066517E+02  0.95863066517E+02  0.00000000000E+00 0.  1.
         21   -1    0    0  501  503 -0.00000000000E+00 -0.00000000000E+00 -0.11432497127E+04  0.11432497127E+04  0.00000000000E+00 0. -1.
          6    2    1    2  501    0 -0.95679275372E+01 -0.26194935713E+03 -0.71999606707E+03  0.78524491548E+03  0.17177377493E+03 0.  0.
         24    2    3    3    0    0 -0.73957391650E+02 -0.17812100296E+03 -0.44673167286E+03  0.49221127373E+03  0.74202176384E+02 0.  0.
         -6    2    1    2    0  502  0.95679275372E+01  0.26194935713E+03 -0.32739057915E+03  0.45386786377E+03  0.17350053462E+03 0.  0.
        -24    2    5    5    0    0 -0.16426227137E+02  0.22941313391E+03 -0.33333968585E+03  0.41153839686E+03  0.73132065326E+02 0.  0.
          5    1    3    3  501    0  0.64389464113E+02 -0.83828354168E+02 -0.27326439421E+03  0.29303364175E+03  0.47000000000E+01 0. -1.
        -11    1    4    4    0    0 -0.32014426136E+02 -0.11259265400E+02 -0.89139926346E+02  0.95381450016E+02  0.00000000000E+00 0.  1.
         12    1    4    4    0    0 -0.41942965514E+02 -0.16686173756E+03 -0.35759174651E+03  0.39682982372E+03  0.00000000000E+00 0. -1.
         -5    1    5    5    0  502  0.25994154674E+02  0.32536223221E+02  0.59491067007E+01  0.42329466914E+02  0.47000000000E+01 0.  1.
         11    1    6    6    0    0  0.76181228519E+01  0.17413328380E+03 -0.28583907424E+03  0.33479010243E+03  0.00000000000E+00 0. -1.
        -12    1    6    6    0    0 -0.24044349989E+02  0.55279850112E+02 -0.47500611613E+02  0.76748294433E+02  0.00000000000E+00 0.  1.
</event>
<event>
12    1  0.8494789E-002  0.3484156E+03  0.7818608E-02  0.1063552E+00
         21   -1    0    0  503  502  0.00000000000E+00  0.00000000000E+00  0.10349756648E+04  0.10349756648E+04  0.00000000000E+00 0.  1.
         21   -1    0    0  501  503 -0.00000000000E+00 -0.00000000000E+00 -0.11750969038E+03  0.11750969038E+03  0.00000000000E+00 0. -1.
          6    2    1    2  501    0  0.17479071584E+02  0.30018785986E+03  0.51729707862E+03  0.62369038917E+03  0.17599762739E+03 0.  0.
         24    2    3    3    0    0  0.15550354971E+01  0.15467785560E+03  0.39963406837E+03  0.43582498457E+03  0.79425256867E+02 0.  0.
         -6    2    1    2    0  502 -0.17479071584E+02 -0.30018785986E+03  0.40016889575E+03  0.52879496595E+03  0.17050132474E+03 0.  0.
        -24    2    5    5    0    0 -0.52023794198E+02 -0.18960415012E+03  0.17382144901E+03  0.27447754349E+03  0.80422738328E+02 0.  0.
          5    1    3    3  501    0  0.15924036087E+02  0.14551000425E+03  0.11766301025E+03  0.18786540460E+03  0.47000000000E+01 0. -1.
        -13    1    4    4    0    0 -0.24845713786E+02  0.56126075399E+02  0.22836261034E+03  0.23646760378E+03  0.00000000000E+00 0.  1.
         14    1    4    4    0    0  0.26400749283E+02  0.98551780203E+02  0.17127145803E+03  0.19935738080E+03  0.00000000000E+00 0. -1.
         -5    1    5    5    0  502  0.34544722615E+02 -0.11058370974E+03  0.22634744675E+03  0.25431742247E+03  0.47000000000E+01 0.  1.
         11    1    6    6    0    0  0.79845560846E+01 -0.98880198020E+02  0.55167726263E+02  0.11351002034E+03  0.00000000000E+00 0. -1.
        -12    1    6    6    0    0 -0.60008350283E+02 -0.90723952096E+02  0.11865372274E+03  0.16096752315E+03  0.00000000000E+00 0.  1.
</event>
<event>
12    1  0.8494789E-002  0.1901402E+03  0.7818608E-02  0.1158779E+00
         21   -1    0    0  501  502  0.00000000000E+00  0.00000000000E+00  0.80797999378E+03  0.80797999378E+03  0.00000000000E+00 0. -1.
         21   -1    0    0  502  503 -0.00000000000E+00 -0.00000000000E+00 -0.71005862656E+02  0.71005862656E+02  0.00000000000E+00 0.  1.
         -6    2    1    2    0  503  0.55034880709E+02 -0.54024435233E+02  0.10007480014E+03  0.21486803748E+03  0.17379824571E+03 0.  0.
        -24    2    3    3    0    0  0.91786662012E+02 -0.22006319317E+02  0.10949320517E+03  0.16500172091E+03  0.79547071042E+02 0.  0.
          6    2    1    2  501    0 -0.55034880709E+02  0.54024435233E+02  0.63689933098E+03  0.66411781895E+03  0.17165151310E+03 0.  0.
         24    2    5    5    0    0 -0.71193695969E+01  0.69018844737E+02  0.22395352038E+03  0.24810452468E+03  0.81156574115E+02 0.  0.
          5    1    5    5  501    0 -0.47915511112E+02 -0.14994409504E+02  0.41294581060E+03  0.41601329427E+03  0.47000000000E+01 0. -1.
        -13    1    6    6    0    0 -0.14241748335E+01  0.72325470046E+02  0.22877700791E+03  0.23994149545E+03  0.00000000000E+00 0.  1.
         14    1    6    6    0    0 -0.56951947634E+01 -0.33066253090E+01 -0.48234875239E+01  0.81630292306E+01  0.00000000000E+00 0. -1.
         -5    1    3    3    0  503 -0.36751781303E+02 -0.32018115916E+02 -0.94184050230E+01  0.49866316577E+02  0.47000000000E+01 0.  1.
         13    1    4    4    0    0  0.83006273554E+01 -0.24731634313E+02  0.65694906416E+02  0.70685039996E+02  0.00000000000E+00 0. -1.
        -14    1    4    4    0    0  0.83486034656E+02  0.27253149961E+01  0.43798298750E+02  0.94316680910E+02  0.00000000000E+00 0.  1.
</event>
<event>
12    1  0.8494789E-002  0.1748712E+03  0.7818608E-02  0.1172867E+00
         21   -1    0    0  501  502  0.00000000000E+00  0.00000000000E+00  0.73129823210E+03  0.73129823210E+03  0.00000000000E+00 0.  1.
         21   -1    0    0  502  503 -0.00000000000E+00 -0.00000000000E+00 -0.46802673959E+02  0.46802673959E+02  0.00000000000E+00 0.  1.
         -6    2    1    2    0  503  0.19745562976E+02  0.27637709068E+02  0.21516274330E+03  0.27724839794E+03  0.17151658181E+03 0.  0.
        -24    2    3    3    0    0 -0.43875809114E+02 -0.38487391545E+01  0.96628395863E+02  0.13900384314E+03  0.89694604650E+02 0.  0.
          6    2    1    2  501    0 -0.19745562976E+02 -0.27637709068E+02  0.46933281485E+03  0.50085250813E+03  0.17154070533E+03 0.  0.
         24    2    5    5    0    0 -0.34532511337E+02 -0.21925850308E+02  0.47511023479E+03  0.48333829237E+03  0.78822156902E+02 0.  0.
          5    1    5    5  501    0  0.14786948360E+02 -0.57118587590E+01 -0.57774199437E+01  0.17514215755E+02  0.47000000000E+01 0. -1.
        -13    1    6    6    0    0 -0.42483696454E+02  0.68512462585E+01  0.12996060324E+03  0.13689982628E+03  0.00000000000E+00 0.  1.
         14    1    6    6    0    0  0.79511851174E+01 -0.28777096567E+02  0.34514963155E+03  0.34643846609E+03  0.00000000000E+00 0. -1.
         -5    1    3    3    0  503  0.63621372090E+02  0.31486448222E+02  0.11853434743E+03  0.13824455479E+03  0.47000000000E+01 0.  1.
         11    1    4    4    0    0  0.28812651807E+01 -0.33686096325E+02  0.84794536245E+01  0.34856217644E+02  0.00000000000E+00 0. -1.
        -12    1    4    4    0    0 -0.46757074294E+02  0.29837357171E+02  0.88148942238E+02  0.10414762550E+03  0.00000000000E+00 0.  1.
</event>
<event>
12    1  0.8494789E-002  0.3889016E+03  0.7818608E-02  0.1047763E+00
         21   -1    0    0  501  502  0.00000000000E+00  0.00000000000E+00  0.33892010229E+03  0.33892010229E+03  0.00000000000E+00 0.  1.
         21   -1    0    0  502  503 -0.00000000000E+00 -0.00000000000E+00 -0.55496578929E+03  0.55496578929E+03  0.00000000000E+00 0. -1.
         -6    2    1    2    0  503  0.25198207639E+03  0.24133800063E+03 -0.30657193365E+03  0.49458715249E+03  0.16997383194E+03 0.  0.
        -24    2    3    3    0    0  0.39283966319E+02  0.66119185954E+02 -0.92066281668E+02  0.14533526091E+03  0.82043653519E+02 0.  0.
          6    2    1    2  501    0 -0.25198207639E+03 -0.24133800063E+03  0.90526246648E+02  0.39929873909E+03  0.17177160515E+03 0.  0.
         24    2    5    5    0    0 -0.89627474017E+02 -0.12100499855E+03  0.99836555276E+02  0.19694306176E+03  0.78383276488E+02 0.  0.
          5    1    5    5  501    0 -0.16235460237E+03 -0.12033300208E+03 -0.93103086286E+01  0.20235567733E+03  0.47000000000E+01 0. -1.
        -11    1    6    6    0    0 -0.59252593451E+02 -0.18373229369E+02  0.28163645072E+02  0.68129555201E+02  0.00000000000E+00 0.  1.
         12    1    6    6    0    0 -0.30374880565E+02 -0.10263176918E+03  0.71672910205E+02  0.12881350656E+03  0.00000000000E+00 0. -1.
         -5    1    3    3    0  503  0.21269811007E+03  0.17521881468E+03 -0.21450565198E+03  0.34925189158E+03  0.47000000000E+01 0.  1.
         11    1    4    4    0    0  0.33085713798E+02  0.50990023251E+02 -0.10708571421E+03  0.12313406156E+03  0.00000000000E+00 0. -1.
        -12    1    4    4    0    0  0.61982525215E+01  0.15129162703E+02  0.15019432546E+02  0.22201199346E+02  0.00000000000E+00 0.  1.
</event>
<event>
12    1  0.8494789E-002  0.2575249E+03  0.7818608E-02  0.1108913E+00
         21   -1    0    0  503  502  0.00000000000E+00  0.00000000000E+00  0.12205213710E+04  0.12205213710E+04  0.00000000000E+00 0.  1.
         21   -1    0    0  501  503 -0.00000000000E+00 -0.00000000000E+00 -0.65345691610E+02  0.65345691610E+02  0.00000000000E+00 0.  1.
          6    2    1    2  501    0 -0.46533228267E+02  0.18527691057E+03  0.84763565281E+03  0.88589236626E+03  0.17270266287E+03 0.  0.
         24    2    3    3    0    0 -0.96375917120E+02  0.15211669922E+03  0.61837461144E+03  0.64889741202E+03  0.79075177273E+02 0.  0.
         -6    2    1    2    0  502  0.46533228267E+02 -0.18527691057E+03  0.30754002663E+03  0.39997469639E+03  0.17001768983E+03 0.  0.
        -24    2    5    5    0    0 -0.20377676119E+02 -0.98942250211E+02  0.23705009705E+03  0.26989140432E+03  0.80273302244E+02 0.  0.
          5    1    3    3  501    0  0.49842688854E+02  0.33160211349E+02  0.22926104137E+03  0.23699495424E+03  0.47000000000E+01 0. -1.
        -13    1    4    4    0    0 -0.92436627551E+01  0.57273211033E+02  0.29818416067E+03  0.30377534409E+03  0.00000000000E+00 0.  1.
         14    1    4    4    0    0 -0.87132254365E+02  0.94843488190E+02  0.32019045077E+03  0.34512206793E+03  0.00000000000E+00 0. -1.
         -5    1    5    5    0  502  0.66910904386E+02 -0.86334660361E+02  0.70489929574E+02  0.13008329207E+03  0.47000000000E+01 0.  1.
         11    1    6    6    0    0  0.27859853206E+02 -0.62613353029E+02  0.12043278234E+03  0.13856644060E+03  0.00000000000E+00 0. -1.
        -12    1    6    6    0    0 -0.48237529325E+02 -0.36328897182E+02  0.11661731472E+03  0.13132496372E+03  0.00000000000E+00 0.  1.
</event>
<event>
12    1  0.8494789E-002  0.1788820E+03  0.7818608E-02  0.1169182E+00
         21   -1    0    0  501  502  0.00000000000E+00  0.00000000000E+00  0.24047695733E+03  0.24047695733E+03  0.00000000000E+00 0. -1.
         21   -1    0    0  502  503 -0.00000000000E+00 -0.00000000000E+00 -0.14328301263E+03  0.14328301263E+03  0.00000000000E+00 0. -1.
         -6    2    1    2    0  503  0.17339531700E+02  0.41824603711E+02 -0.49748680501E+01  0.17775694166E+03  0.17182207122E+03 0.  0.
        -24    2    3    3    0    0  0.55559320706E+02  0.23638255950E+02  0.47448295118E+02  0.11021603884E+03  0.79060921109E+02 0.  0.
          6    2    1    2  501    0 -0.17339531700E+02 -0.41824603711E+02  0.10216881274E+03  0.20600302830E+03  0.17305728686E+03 0.  0.
         24    2    5    5    0    0  0.30539676460E+02  0.21590672812E+02  0.18835047244E+02  0.90761879648E+02  0.80524100751E+02 0.  0.
          5    1    5    5  501    0 -0.47879208161E+02 -0.63415276523E+02  0.83333765500E+02  0.11524114865E+03  0.47000000000E+01 0. -1.
        -13    1    6    6    0    0 -0.40903951638E+01 -0.52102689587E+01 -0.26746294774E+02  0.27554355723E+02  0.00000000000E+00 0.  1.
         14    1    6    6    0    0  0.34630071624E+02  0.26800941771E+02  0.45581342018E+02  0.63207523924E+02  0.00000000000E+00 0. -1.
         -5    1    3    3    0  503 -0.38219789006E+02  0.18186347761E+02 -0.52423163168E+02  0.67540902815E+02  0.47000000000E+01 0.  1.
         13    1    4    4    0    0  0.10322089854E+02  0.24316726026E+02 -0.17043341961E+02  0.31437624095E+02  0.00000000000E+00 0. -1.
        -14    1    4    4    0    0  0.45237230853E+02 -0.67847007627E+00  0.64491637079E+02  0.78778414746E+02  0.00000000000E+00 0.  1.
</event>
<event>
12    1  0.8494789E-002  0.4491646E+03  0.7818608E-02  0.1028028E+00
         21   -1    0    0  501  502  0.00000000000E+00  0.00000000000E+00  0.29241569861E+03  0.29241569861E+03  0.00000000000E+00 0.  1.
         21   -1    0    0  502  503 -0.00000000000E+00 -0.00000000000E+00 -0.76790539463E+03  0.76790539463E+03  0.00000000000E+00 0. -1.
         -6    2    1    2    0  503  0.53795857507E+02 -0.41071632188E+03 -0.67742836983E+02  0.45424438015E+03  0.17368642317E+03 0.  0.
        -24    2    3    3    0    0  0.61170962026E+02 -0.18185214063E+03  0.80354732915E+01  0.21300249338E+03  0.92159675062E+02 0.  0.
          6    2    1    2  501    0 -0.53795857507E+02  0.41071632188E+03 -0.40774685904E+03  0.60607671309E+03  0.17172533229E+03 0.  0.
         24    2    5    5    0    0 -0.80626147707E+02  0.40390897199E+03 -0.38842814751E+03  0.57199582255E+03  0.81607364170E+02 0.  0.
          5    1    5    5  501    0  0.26830290200E+02  0.68073498859E+01 -0.19318711526E+02  0.34080890536E+02  0.47000000000E+01 0. -1.
        -11    1    6    6    0    0 -0.26913032244E+02  0.42659569409E+02 -0.76858450918E+02  0.91931342012E+02  0.00000000000E+00 0.  1.
         12    1    6    6    0    0 -0.53713115464E+02  0.36124940258E+03 -0.31156969659E+03  0.48006448054E+03  0.00000000000E+00 0. -1.
         -5    1    3    3    0  503 -0.73751045186E+01 -0.22886418125E+03 -0.75778310275E+02  0.24124188677E+03  0.47000000000E+01 0.  1.
         11    1    4    4    0    0  0.22582778303E+02 -0.59175726094E+01  0.22348474195E+02  0.32318011083E+02  0.00000000000E+00 0. -1.
        -12    1    4    4    0    0  0.38588183723E+02 -0.17593456802E+03 -0.14313000904E+02  0.18068448229E+03  0.00000000000E+00 0.  1.
</event>
<event>
12    1  0.8494789E-002  0.1806365E+03  0.7818608E-02  0.1167913E+00
         21   -1    0    0  501  502  0.00000000000E+00  0.00000000000E+00  0.13200670720E+03  0.13200670720E+03  0.00000000000E+00 0.  1.
         21   -1    0    0  502  503 -0.00000000000E+00 -0.00000000000E+00 -0.31759005687E+03  0.31759005687E+03  0.00000000000E+00 0.  1.
         -6    2    1    2    0  503  0.51387177448E+02 -0.24299812147E+02 -0.20223833853E+03  0.27116396869E+03  0.17145970217E+03 0.  0.
        -24    2    3    3    0    0 -0.31556422829E+02 -0.18648740740E+02 -0.14604913453E+03  0.17071053629E+03  0.80424835407E+02 0.  0.
          6    2    1    2  501    0 -0.51387177448E+02  0.24299812147E+02  0.16654988863E+02  0.17843279539E+03  0.16831444067E+03 0.  0.
         24    2    5    5    0    0 -0.97728652957E+02  0.31595231267E+02  0.45424743734E+01  0.12975468429E+03  0.79161201197E+02 0.  0.
          5    1    5    5  501    0  0.46341475509E+02 -0.72954191201E+01  0.12112514489E+02  0.48678111095E+02  0.47000000000E+01 0. -1.
        -13    1    6    6    0    0 -0.96611531430E+02  0.11597039019E+02 -0.18686223797E+02  0.99083067570E+02  0.00000000000E+00 0.  1.
         14    1    6    6    0    0 -0.11171215263E+01  0.19998192248E+02  0.23228698170E+02  0.30671616722E+02  0.00000000000E+00 0. -1.
         -5    1    3    3    0  503  0.82943600277E+02 -0.56510714070E+01 -0.56189204005E+02  0.10045343240E+03  0.47000000000E+01 0.  1.
         13    1    4    4    0    0  0.25469911480E+01 -0.20156234908E+02  0.41509164678E+00  0.20320759598E+02  0.00000000000E+00 0. -1.
        -14    1    4    4    0    0 -0.34103413977E+02  0.15074941686E+01 -0.14646422617E+03  0.15038977669E+03  0.00000000000E+00 0.  1.
</event>
<event>
12    1  0.8494789E-002  0.1850016E+03  0.7818608E-02  0.1163504E+00
         21   -1    0    0  503  502  0.00000000000E+00  0.00000000000E+00  0.14540441269E+04  0.14540441269E+04  0.00000000000E+00 0.  1.
         21   -1    0    0  501  503 -0.00000000000E+00 -0.00000000000E+00 -0.25914566346E+02  0.25914566346E+02  0.00000000000E+00 0.  1.
          6    2    1    2  501    0 -0.22869590710E+02  0.61670362282E+02  0.94608723336E+03  0.96363476015E+03  0.17083514298E+03 0.  0.
         24    2    3    3    0    0 -0.76648321149E+02  0.50492680462E+02  0.75643823235E+03  0.76613558040E+03  0.79626956958E+02 0.  0.
         -6    2    1    2    0  502  0.22869590710E+02 -0.61670362282E+02  0.48204232723E+03  0.51632393314E+03  0.17291427623E+03 0.  0.
        -24    2    5    5    0    0 -0.11368304285E+02  0.28447602982E+02  0.27414769285E+03  0.28711714850E+03  0.79629109072E+02 0.  0.
          5    1    3    3  501    0  0.53778730439E+02  0.11177681820E+02  0.18964900101E+03  0.19749917975E+03  0.47000000000E+01 0. -1.
        -11    1    4    4    0    0 -0.29392359404E+02  0.64282701647E+02  0.38313175444E+03  0.38959737907E+03  0.00000000000E+00 0.  1.
         12    1    4    4    0    0 -0.47255961745E+02 -0.13790021185E+02  0.37330647791E+03  0.37653820132E+03  0.00000000000E+00 0. -1.
         -5    1    5    5    0  502  0.34237894996E+02 -0.90117965265E+02  0.20789463439E+03  0.22920678464E+03  0.47000000000E+01 0.  1.
         13    1    6    6    0    0 -0.14735710663E+02 -0.22950663002E+02  0.15395864281E+03  0.15635580513E+03  0.00000000000E+00 0. -1.
        -14    1    6    6    0    0  0.33674063779E+01  0.51398265984E+02  0.12018905004E+03  0.13076134337E+03  0.00000000000E+00 0.  1.
</event>
<event>
12    1  0.8494789E-002  0.2189292E+03  0.7818608E-02  0.1134886E+00
         21   -1    0    0  501  502  0.00000000000E+00  0.00000000000E+00  0.80584266127E+02  0.80584266127E+02  0.00000000000E+00 0. -1.
         21   -1    0    0  502  503 -0.00000000000E+00 -0.00000000000E+00 -0.59561876061E+03  0.59561876061E+03  0.00000000000E+00 0.  1.
         -6    2    1    2    0  503  0.24144889477E+02 -0.13374817561E+03 -0.28498504298E+03  0.35936956009E+03  0.17163465801E+03 0.  0.
        -24    2    3    3    0    0  0.38950071715E+02 -0.13705672844E+02 -0.75701464638E+02  0.11760293283E+03  0.79967396530E+02 0.  0.
          6    2    1    2  501    0 -0.24144889477E+02  0.13374817561E+03 -0.23004945151E+03  0.31683346665E+03  0.17026199013E+03 0.  0.
         24    2    5    5    0    0  0.96954588785E+01 -0.22584656269E+00 -0.10202501769E+03  0.12840163959E+03  0.77355180083E+02 0.  0.
          5    1    5    5  501    0 -0.33840348355E+02  0.13397402217E+03 -0.12802443382E+03  0.18843182706E+03  0.47000000000E+01 0. -1.
        -13    1    6    6    0    0 -0.56955066294E+01  0.93746602721E+01 -0.10856588763E+03  0.10911862815E+03  0.00000000000E+00 0.  1.
         14    1    6    6    0    0  0.15390965508E+02 -0.96005068348E+01  0.65408699441E+01  0.19283011445E+02  0.00000000000E+00 0. -1.
         -5    1    3    3    0  503 -0.14805182239E+02 -0.12004250277E+03 -0.20928357834E+03  0.24176662725E+03  0.47000000000E+01 0.  1.
         13    1    4    4    0    0  0.44657814236E+02 -0.31876705149E+02 -0.80999560511E+02  0.97833396682E+02  0.00000000000E+00 0. -1.
        -14    1    4    4    0    0 -0.57077425204E+01  0.18171032306E+02  0.52980958723E+01  0.19769536150E+02  0.00000000000E+00 0.  1.
</event>
<event>
12    1  0.8494789E-002  0.1919608E+03  0.7818608E-02  0.1158104E+00
         21   -1    0    0  503  502  0.00000000000E+00  0.00000000000E+00  0.49640988436E+03  0.49640988436E+03  0.00000000000E+00 0.  1.
         21   -1    0    0  501  503 -0.00000000000E+00 -0.00000000000E+00 -0.71912581079E+02  0.71912581079E+02  0.00000000000E+00 0. -1.
          6    2    1    2  501    0  0.72775406050E+02  0.21735065720E+02  0.20113870443E+03  0.27380930242E+03  0.16954669818E+03 0.  0.
         24    2    3    3    0    0  0.54538057015E+02 -0.46342229223E+02  0.16115159248E+03  0.19264170969E+03  0.77582154405E+02 0.  0.
         -6    2    1    2    0  502 -0.72775406050E+02 -0.21735065720E+02  0.22335859885E+03  0.29451316302E+03  0.17629596338E+03 0.  0.
        -24    2    5    5    0    0 -0.17571766862E+02 -0.77828777422E+02  0.14978790962E+03  0.18667679352E+03  0.77754239673E+02 0.  0.
          5    1    3    3  501    0  0.18237349035E+02  0.68077294943E+02  0.39987111948E+02  0.81167592723E+02  0.47000000000E+01 0. -1.
        -11    1    4    4    0    0  0.65699569191E+02 -0.50981001104E+02  0.98845489776E+02  0.12917401718E+03  0.00000000000E+00 0.  1.
         12    1    4    4    0    0 -0.11161512176E+02  0.46387718814E+01  0.62306102705E+02  0.63467692513E+02  0.00000000000E+00 0. -1.
         -5    1    5    5    0  502 -0.55203639187E+02  0.56093711702E+02  0.73570689233E+02  0.10783636950E+03  0.47000000000E+01 0.  1.
         11    1    6    6    0    0  0.17123884261E+02  0.62384665033E+01  0.12887890388E+02  0.22321370817E+02  0.00000000000E+00 0. -1.
        -12    1    6    6    0    0 -0.34695651124E+02 -0.84067243925E+02  0.13690001923E+03  0.16435542271E+03  0.00000000000E+00 0.  1.
</event>
<event>
12    1  0.8494789E-002  0.1917569E+03  0.7818608E-02  0.1156958E+00
         21   -1    0    0  503  502  0.00000000000E+00  0.00000000000E+00  0.54726846350E+03  0.54726846350E+03  0.00000000000E+00 0. -1.
         21   -1    0    0  501  503 -0.00000000000E+00 -0.00000000000E+00 -0.11335748067E+03  0.11335748067E+03  0.00000000000E+00 0.  1.
          6    2    1    2  501    0  0.85701603234E+02 -0.70090781800E+01  0.60057850937E+01  0.19185096939E+03  0.17139671242E+03 0.  0.
         24    2    3    3    0    0  0.10810762700E+03 -0.51380649359E+02  0.21772458420E+02  0.13949121178E+03  0.68238757851E+02 0.  0.
         -6    2    1    2    0  502 -0.85701603234E+02  0.70090781800E+01  0.42790519773E+03  0.46877497478E+03  0.17103574702E+03 0.  0.
        -24    2    5    5    0    0 -0.62420515975E+02 -0.25861134123E+02  0.40927851833E+03  0.42414871495E+03  0.88476594393E+02 0.  0.
          5    1    3    3  501    0 -0.22406023766E+02  0.44371571179E+02 -0.15766673326E+02  0.52359757616E+02  0.47000000000E+01 0. -1.
        -11    1    4    4    0    0  0.89057363451E+02 -0.53476972221E+02 -0.78867158096E+01  0.10417869662E+03  0.00000000000E+00 0.  1.
         12    1    4    4    0    0  0.19050263549E+02  0.20963228621E+01  0.29659174229E+02  0.35312515158E+02  0.00000000000E+00 0. -1.
         -5    1    5    5    0  502 -0.23281087259E+02  0.32870212303E+02  0.18626679406E+02  0.44626259830E+02  0.47000000000E+01 0.  1.
         13    1    6    6    0    0 -0.81308327897E+01  0.60896774247E+01  0.28152875459E+03  0.28171197041E+03  0.00000000000E+00 0. -1.
        -14    1    6    6    0    0 -0.54289683186E+02 -0.31950811547E+02  0.12774976374E+03  0.14243674454E+03  0.00000000000E+00 0.  1.
</event>
<event>
12    1  0.8494789E-002  0.2065581E+03  0.7818608E-02  0.1144885E+00
         21   -1    0    0  501  502  0.00000000000E+00  0.00000000000E+00  0.27951893041E+03  0.27951893041E+03  0.00000000000E+00 0. -1.
         21   -1    0    0  502  503 -0.00000000000E+00 -0.00000000000E+00 -0.15885917578E+03  0.15885917578E+03  0.00000000000E+00 0. -1.
         -6    2    1    2    0  503  0.11399431650E+03 -0.11002685698E+02  0.99726240166E+01  0.20403245024E+03  0.16856459959E+03 0.  0.
        -24    2    3    3    0    0  0.14042086410E+03 -0.40617373637E+02 -0.43824248460E+00  0.16273029168E+03  0.71506402923E+02 0.  0.
          6    2    1    2  501    0 -0.11399431650E+03  0.11002685698E+02  0.11068713061E+03  0.23434565595E+03  0.17190253718E+03 0.  0.
         24    2    5    5    0    0 -0.89481409018E+02  0.28535574285E+02  0.37932272406E+01  0.12318504514E+03  0.79617618744E+02 0.  0.
          5    1    5    5  501    0 -0.24512907479E+02 -0.17532888587E+02  0.10689390337E+03  0.11116061080E+03  0.47000000000E+01 0. -1.
        -11    1    6    6    0    0 -0.89998675815E+01 -0.21973249905E+02  0.14090141184E+02  0.27610748024E+02  0.00000000000E+00 0.  1.
         12    1    6    6    0    0 -0.80481541436E+02  0.50508824190E+02 -0.10296913943E+02  0.95574297119E+02  0.00000000000E+00 0. -1.
         -5    1    3    3    0  503 -0.26426547604E+02  0.29614687939E+02  0.10410866501E+02  0.41302158555E+02  0.47000000000E+01 0.  1.
         13    1    4    4    0    0  0.16710804809E+02 -0.28678810637E+02  0.16891561241E+02  0.37243120413E+02  0.00000000000E+00 0. -1.
        -14    1    4    4    0    0  0.12371005929E+03 -0.11938563000E+02 -0.17329803726E+02  0.12548717127E+03  0.00000000000E+00 0.  1.
</event>
<event>
12    1  0.8494789E-002  0.1729890E+03  0.7818608E-02  0.1174942E+00
         21   -1    0    0  501  502  0.00000000000E+00  0.00000000000E+00  0.21452109466E+03  0.21452109466E+03  0.00000000000E+00 0.  1.
         21   -1    0    0  502  503 -0.00000000000E+00 -0.00000000000E+00 -0.15399105365E+03  0.15399105365E+03  0.00000000000E+00 0.  1.
         -6    2    1    2    0  503 -0.62046089327E+01  0.17810693776E+02  0.87917790369E+02  0.19404831052E+03  0.17195781741E+03 0.  0.
        -24    2    3    3    0    0  0.11634951751E+02  0.75594119437E+02  0.42815346812E+02  0.11846064869E+03  0.79686437802E+02 0.  0.
          6    2    1    2  501    0  0.62046089327E+01 -0.17810693776E+02 -0.27387749358E+02  0.17446383778E+03  0.17126536104E+03 0.  0.
         24    2    5    5    0    0  0.17470174048E+02 -0.20952224626E+02 -0.73688690738E+02  0.12647790915E+03  0.99108201796E+02 0.  0.
          5    1    5    5  501    0 -0.11265565116E+02  0.31415308497E+01  0.46300941380E+02  0.47985928626E+02  0.47000000000E+01 0. -1.
        -13    1    6    6    0    0 -0.36169665680E+01  0.27536249135E+02  0.82391018552E+01  0.28969126030E+02  0.00000000000E+00 0.  1.
         14    1    6    6    0    0  0.21087140616E+02 -0.48488473761E+02 -0.81927792593E+02  0.97508783124E+02  0.00000000000E+00 0. -1.
         -5    1    3    3    0  503 -0.17839560684E+02 -0.57783425660E+02  0.45102443557E+02  0.75587661832E+02  0.47000000000E+01 0.  1.
         11    1    4    4    0    0  0.18071126326E+02  0.68983072549E+01  0.45469635259E+02  0.49412953568E+02  0.00000000000E+00 0. -1.
        -12    1    4    4    0    0 -0.64361745752E+01  0.68695812182E+02 -0.26542884471E+01  0.69047695122E+02  0.00000000000E+00 0.  1.
</event>
<event>
12    1  0.8494789E-002  0.2011982E+03  0.7818608E-02  0.1150474E+00
         21   -1    0    0  501  502  0.00000000000E+00  0.00000000000E+00  0.24240803099E+03  0.24240803099E+03  0.00000000000E+00 0. -1.
         21   -1    0    0  502  503 -0.00000000000E+00 -0.00000000000E+00 -0.21009201061E+03  0.21009201061E+03  0.00000000000E+00 0. -1.
         -6    2    1    2    0  503  0.79914906302E+02 -0.35505227661E+02 -0.93708727694E+02  0.22195050067E+03  0.18120067787E+03 0.  0.
        -24    2    3    3    0    0  0.20038052789E+02  0.42384093309E+02 -0.80136636980E+02  0.12266165158E+03  0.80162742318E+02 0.  0.
          6    2    1    2  501    0 -0.79914906302E+02  0.35505227661E+02  0.12602474808E+03  0.23054954093E+03  0.17211577573E+03 0.  0.
         24    2    5    5    0    0 -0.56431421082E+02 -0.44718945164E+02  0.56576927748E+02  0.12177232948E+03  0.80269932918E+02 0.  0.
          5    1    5    5  501    0 -0.23483485220E+02  0.80224172825E+02  0.69447820331E+02  0.10877721146E+03  0.47000000000E+01 0. -1.
        -11    1    6    6    0    0 -0.16806533581E+02  0.19629913223E+02 -0.23422304521E+01  0.25947622389E+02  0.00000000000E+00 0.  1.
         12    1    6    6    0    0 -0.39624887501E+02 -0.64348858387E+02  0.58919158200E+02  0.95824707086E+02  0.00000000000E+00 0. -1.
         -5    1    3    3    0  503  0.59876853513E+02 -0.77889320970E+02 -0.13572090714E+02  0.99288849093E+02  0.47000000000E+01 0.  1.
         11    1    4    4    0    0  0.49800452043E+02  0.38283592813E+02 -0.53502581813E+02  0.82512088587E+02  0.00000000000E+00 0. -1.
        -12    1    4    4    0    0 -0.29762399254E+02  0.41005004959E+01 -0.26634055167E+02  0.40149562990E+02  0.00000000000E+00 0.  1.
</event>
<event>
12    1  0.8494789E-002  0.2000196E+03  0.7818608E-02  0.1152837E+00
         21   -1    0    0  501  502  0.00000000000E+00  0.00000000000E+00  0.78829656482E+03  0.78829656482E+03  0.00000000000E+00 0. -1.
         21   -1    0    0  502  503 -0.00000000000E+00 -0.00000000000E+00 -0.62066512580E+02  0.62066512580E+02  0.00000000000E+00 0. -1.
         -6    2    1    2    0  503 -0.19052367677E+02 -0.99475261462E+02  0.16539090529E+03  0.25954188283E+03  0.17248048305E+03 0.  0.
        -24    2    3    3    0    0 -0.41262528945E+02 -0.49542766654E+01  0.12485579129E+03  0.15422002708E+03  0.80422055326E+02 0.  0.
          6    2    1    2  501    0  0.19052367677E+02  0.99475261462E+02  0.56083914695E+03  0.59082119458E+03  0.15579093314E+03 0.  0.
         24    2    5    5    0    0  0.36953718683E+02 -0.10276253610E+02  0.27334124381E+03  0.28253076699E+03  0.60307711087E+02 0.  0.
          5    1    5    5  501    0 -0.17901351006E+02  0.10975151507E+03  0.28749790315E+03  0.30829042759E+03  0.47000000000E+01 0. -1.
        -13    1    6    6    0    0  0.90148358774E+01  0.21330131178E+02  0.15858016735E+03  0.16026200810E+03  0.00000000000E+00 0.  1.
         14    1    6    6    0    0  0.27938882806E+02 -0.31606384788E+02  0.11476107646E+03  0.12226875889E+03  0.00000000000E+00 0. -1.
         -5    1    3    3    0  503  0.22210161268E+02 -0.94520984796E+02  0.40535113999E+02  0.10532185574E+03  0.47000000000E+01 0.  1.
         13    1    4    4    0    0  0.23061327455E+02  0.88577451170E+01  0.35914076746E+02  0.43590198222E+02  0.00000000000E+00 0. -1.
        -14    1    4    4    0    0 -0.64323856400E+02 -0.13812021782E+02  0.88941714544E+02  0.11062982886E+03  0.00000000000E+00 0.  1.
</event>
<event>
12    1  0.8494789E-002  0.1823453E+03  0.7818608E-02  0.1165688E+00
         21   -1    0    0  501  502  0.00000000000E+00  0.00000000000E+00  0.30483520703E+02  0.30483520703E+02  0.00000000000E+00 0.  1.
         21   -1    0    0  502  503 -0.00000000000E+00 -0.00000000000E+00 -0.11368229177E+04  0.11368229177E+04  0.00000000000E+00 0. -1.
         -6    2    1    2    0  503  0.35318016353E+02  0.46311191196E+02 -0.67411373976E+03  0.69819149280E+03  0.17219157290E+03 0.  0.
        -24    2    3    3    0    0 -0.19388078901E+02  0.78661455767E+02 -0.49992701407E+03  0.51271264796E+03  0.79898171177E+02 0.  0.
          6    2    1    2  501    0 -0.35318016353E+02 -0.46311191196E+02 -0.43222565723E+03  0.46911494560E+03  0.17279387924E+03 0.  0.
         24    2    5    5    0    0  0.37207416444E+02  0.84861359672E+01 -0.18886457891E+03  0.20928925420E+03  0.81705302250E+02 0.  0.
          5    1    5    5  501    0 -0.72525432797E+02 -0.54797327163E+02 -0.24336107832E+03  0.25982569139E+03  0.47000000000E+01 0. -1.
        -11    1    6    6    0    0 -0.20605826073E+02 -0.14613264634E+02 -0.33827326174E+02  0.42218900596E+02  0.00000000000E+00 0.  1.
         12    1    6    6    0    0  0.57813242517E+02  0.23099400601E+02 -0.15503725273E+03  0.16707035361E+03  0.00000000000E+00 0. -1.
         -5    1    3    3    0  503  0.54706095254E+02 -0.32350264572E+02 -0.17418672569E+03  0.18547884484E+03  0.47000000000E+01 0.  1.
         13    1    4    4    0    0 -0.23803105565E+02 -0.77173730263E+01 -0.16051554801E+03  0.16245426074E+03  0.00000000000E+00 0. -1.
        -14    1    4    4    0    0  0.44150266633E+01  0.86378828794E+02 -0.33941146606E+03  0.35025838722E+03  0.00000000000E+00 0.  1.
</event>
<event>
12    1  0.8494789E-002  0.1739309E+03  0.7818608E-02  0.1173882E+00
         21   -1    0    0  501  502  0.00000000000E+00  0.00000000000E+00  0.18682740857E+03  0.18682740857E+03  0.00000000000E+00 0.  1.
         21   -1    0    0  502  503 -0.00000000000E+00 -0.00000000000E+00 -0.25137076212E+03  0.25137076212E+03  0.00000000000E+00 0.  1.
         -6    2    1    2    0  503 -0.90720590509E+01 -0.26273501405E+02 -0.16318006245E+03  0.23849464734E+03  0.17169555876E+03 0.  0.
        -24    2    3    3    0    0 -0.69465934731E+02  0.48774452893E+01 -0.11187614136E+03  0.15321871862E+03  0.78169042275E+02 0.  0.
          6    2    1    2  501    0  0.90720590509E+01  0.26273501405E+02  0.98636708901E+02  0.19970352335E+03  0.17140506925E+03 0.  0.
         24    2    5    5    0    0  0.39039892284E+02 -0.25399366352E+02  0.63879703924E+02  0.13043379196E+03  0.10374544092E+03 0.  0.
          5    1    5    5  501    0 -0.29967833233E+02  0.51672867758E+02  0.34757004976E+02  0.69269731383E+02  0.47000000000E+01 0. -1.
        -11    1    6    6    0    0  0.43124571793E+02 -0.32066133990E+02  0.89087618859E+02  0.10404119124E+03  0.00000000000E+00 0.  1.
         12    1    6    6    0    0 -0.40846795094E+01  0.66667676380E+01 -0.25207914935E+02  0.26392600721E+02  0.00000000000E+00 0. -1.
         -5    1    3    3    0  503  0.60393875680E+02 -0.31150946695E+02 -0.51303921094E+02  0.85275928721E+02  0.47000000000E+01 0.  1.
         13    1    4    4    0    0 -0.52422029826E+02 -0.85685287365E+01 -0.16823077636E+02  0.55718083572E+02  0.00000000000E+00 0. -1.
        -14    1    4    4    0    0 -0.17043904905E+02  0.13445974026E+02 -0.95053063725E+02  0.97500635051E+02  0.00000000000E+00 0.  1.
</event>
<event>
12    1  0.8494789E-002  0.2795173E+03  0.7818608E-02  0.1097317E+00
         21   -1    0    0  501  502  0.00000000000E+00  0.00000000000E+00  0.48706062793E+03  0.48706062793E+03  0.00000000000E+00 0. -1.
         21   -1    0    0  502  503 -0.00000000000E+00 -0.00000000000E+00 -0.19104783441E+03  0.19104783441E+03  0.00000000000E+00 0.  1.
         -6    2    1    2    0  503  0.12189711957E+03  0.16711417630E+03 -0.16994778925E+01  0.26974279239E+03  0.17312489752E+03 0.  0.
        -24    2    3    3    0    0  0.41420574965E+02  0.97463186689E+02 -0.64408646271E+02  0.14612133639E+03  0.77383683317E+02 0.  0.
          6    2    1    2  501    0 -0.12189711957E+03 -0.16711417630E+03  0.29771227141E+03  0.40836566994E+03  0.18799964936E+03 0.  0.
         24    2    5    5    0    0 -0.33957085888E+02  0.24963102282E+01  0.75786336259E+02  0.11549304002E+03  0.80223177969E+02 0.  0.
          5    1    5    5  501    0 -0.87940033687E+02 -0.16961048653E+03  0.22192593515E+03  0.29287262992E+03  0.47000000000E+01 0. -1.
        -11    1    6    6    0    0 -0.45898975312E+02  0.50087366497E+01  0.87273092156E+02  0.98733965747E+02  0.00000000000E+00 0.  1.
         12    1    6    6    0    0  0.11941889424E+02 -0.25124264215E+01 -0.11486755898E+02  0.16759074276E+02  0.00000000000E+00 0. -1.
         -5    1    3    3    0  503  0.80476544610E+02  0.69650989610E+02  0.62709168379E+02  0.12362145600E+03  0.47000000000E+01 0.  1.
         11    1    4    4    0    0 -0.48412496710E+01  0.72030388547E+02 -0.14833262383E+02  0.73701019298E+02  0.00000000000E+00 0. -1.
        -12    1    4    4    0    0  0.46261824636E+02  0.25432798142E+02 -0.49575383888E+02  0.72420317092E+02  0.00000000000E+00 0.  1.
</event>
<event>
12    1  0.8494789E-002  0.3469587E+03  0.7818608E-02  0.1063963E+00
         21   -1    0    0  501  502  0.00000000000E+00  0.00000000000E+00  0.24350903722E+03  0.24350903722E+03  0.00000000000E+00 0.  1.
         21   -1    0    0  502  503 -0.00000000000E+00 -0.00000000000E+00 -0.10660306911E+04  0.10660306911E+04  0.00000000000E+00 0. -1.
         -6    2    1    2    0  503 -0.19589533086E+03 -0.22789556482E+03 -0.89103519601E+03  0.95588107925E+03  0.17162036017E+03 0.  0.
        -24    2    3    3    0    0 -0.19835124528E+03 -0.16499027468E+03 -0.80567592866E+03  0.84971422206E+03  0.79596167658E+02 0.  0.
          6    2    1    2  501    0  0.19589533086E+03  0.22789556482E+03  0.68513542104E+02  0.35365864909E+03  0.17340405274E+03 0.  0.
         24    2    5    5    0    0  0.18589213262E+03  0.24915307889E+03  0.57427894759E+02  0.32725926545E+03  0.84661219224E+02 0.  0.
          5    1    5    5  501    0  0.10003198242E+02 -0.21257514067E+02  0.11085647345E+02  0.26399383637E+02  0.47000000000E+01 0. -1.
        -11    1    6    6    0    0  0.12479099787E+03  0.96510616976E+02  0.27018628126E+02  0.16005342422E+03  0.00000000000E+00 0.  1.
         12    1    6    6    0    0  0.61101134750E+02  0.15264246191E+03  0.30409266632E+02  0.16720584123E+03  0.00000000000E+00 0. -1.
         -5    1    3    3    0  503  0.24559144157E+01 -0.62905290142E+02 -0.85359267351E+02  0.10616685719E+03  0.47000000000E+01 0.  1.
         13    1    4    4    0    0 -0.58064385729E+02 -0.27523593140E+02 -0.11591831444E+03  0.13253707667E+03  0.00000000000E+00 0. -1.
        -14    1    4    4    0    0 -0.14028685955E+03 -0.13746668154E+03 -0.68975761422E+03  0.71717714539E+03  0.00000000000E+00 0.  1.
</event>
<event>
12    1  0.8494789E-002  0.2433197E+03  0.7818608E-02  0.1117604E+00
         21   -1    0    0  501  502  0.00000000000E+00  0.00000000000E+00  0.47136635992E+03  0.47136635992E+03  0.00000000000E+00 0. -1.
         21   -1    0    0  502  503 -0.00000000000E+00 -0.00000000000E+00 -0.30892870824E+03  0.30892870824E+03  0.00000000000E+00 0.  1.
         -6    2    1    2    0  503 -0.72819885535E+02 -0.15576996265E+03 -0.21933806093E+03  0.32757313086E+03  0.17212772610E+03 0.  0.
        -24    2    3    3    0    0  0.19472819416E+02 -0.10529687645E+03 -0.15738079290E+03  0.20540002056E+03  0.77161075583E+02 0.  0.
          6    2    1    2  501    0  0.72819885535E+02  0.15576996265E+03  0.38177571260E+03  0.45272193731E+03  0.17215528104E+03 0.  0.
         24    2    5    5    0    0  0.17139140000E+02  0.66990499244E+02  0.79543861804E+02  0.13280269721E+03  0.80795131825E+02 0.  0.
          5    1    5    5  501    0  0.55680745535E+02  0.88779463411E+02  0.30223185080E+03  0.31991924010E+03  0.47000000000E+01 0. -1.
        -13    1    6    6    0    0 -0.91729821400E+01 -0.14674199763E+02  0.27381582076E+02  0.32391770205E+02  0.00000000000E+00 0.  1.
         14    1    6    6    0    0  0.26312122139E+02  0.81664699008E+02  0.52162279728E+02  0.10041092700E+03  0.00000000000E+00 0. -1.
         -5    1    3    3    0  503 -0.92292704951E+02 -0.50473086203E+02 -0.61957268025E+02  0.12217311029E+03  0.47000000000E+01 0.  1.
         11    1    4    4    0    0  0.21824155688E+02 -0.10036476081E+03 -0.86423404828E+02  0.13423257386E+03  0.00000000000E+00 0. -1.
        -12    1    4    4    0    0 -0.23513362715E+01 -0.49321156412E+01 -0.70957388075E+02  0.71167446697E+02  0.00000000000E+00 0.  1.
</event>
<event>
12    1  0.8494789E-002  0.2206046E+03  0.7818608E-02  0.1133536E+00
         21   -1    0    0  503  502  0.00000000000E+00  0.00000000000E+00  0.17656636400E+03  0.17656636400E+03  0.00000000000E+00 0. -1.
         21   -1    0    0  501  503 -0.00000000000E+00 -0.00000000000E+00 -0.28063357539E+03  0.28063357539E+03  0.00000000000E+00 0. -1.
          6    2    1    2  501    0  0.12552206904E+03 -0.57096809497E+02 -0.19387028022E+02  0.22090113789E+03  0.17148067061E+03 0.  0.
         24    2    3    3    0    0  0.37803332632E+02 -0.87170676564E+02  0.51317038426E+01  0.12486847465E+03  0.80857793473E+02 0.  0.
         -6    2    1    2    0  502 -0.12552206904E+03  0.57096809497E+02 -0.84680183367E+02  0.23629880149E+03  0.17219336416E+03 0.  0.
        -24    2    5    5    0    0 -0.12176526749E+03  0.99879204099E+02 -0.73206758019E+02  0.19159783579E+03  0.80918882098E+02 0.  0.
          5    1    3    3  501    0  0.87718736407E+02  0.30073867067E+02 -0.24518731865E+02  0.96032663243E+02  0.47000000000E+01 0. -1.
        -13    1    4    4    0    0 -0.11730757809E+02 -0.25788609443E+02 -0.27524176715E+02  0.39499915944E+02  0.00000000000E+00 0.  1.
         14    1    4    4    0    0  0.49534090441E+02 -0.61382067122E+02  0.32655880557E+02  0.85368558702E+02  0.00000000000E+00 0. -1.
         -5    1    5    5    0  502 -0.37568015465E+01 -0.42782394602E+02 -0.11473425348E+02  0.44700965705E+02  0.47000000000E+01 0.  1.
         11    1    6    6    0    0 -0.10123841377E+03  0.36803823601E+02 -0.62112375351E+02  0.12434502413E+03  0.00000000000E+00 0. -1.
        -12    1    6    6    0    0 -0.20526853719E+02  0.63075380498E+02 -0.11094382668E+02  0.67252811654E+02  0.00000000000E+00 0.  1.
</event>
<event>
12    1  0.8494789E-002  0.2212078E+03  0.7818608E-02  0.1133084E+00
         21   -1    0    0  501  502  0.00000000000E+00  0.00000000000E+00  0.17414332150E+03  0.17414332150E+03  0.00000000000E+00 0. -1.
         21   -1    0    0  502  503 -0.00000000000E+00 -0.00000000000E+00 -0.30748593417E+03  0.30748593417E+03  0.00000000000E+00 0. -1.
         -6    2    1    2    0  503  0.12869773987E+03 -0.52981396949E+02  0.49849123885E+01  0.22073194047E+03  0.17125303946E+03 0.  0.
        -24    2    3    3    0    0  0.37210375893E+02 -0.46300736438E+02 -0.46913834834E+02  0.11523246675E+03  0.86886381132E+02 0.  0.
          6    2    1    2  501    0 -0.12869773987E+03  0.52981396949E+02 -0.13832752506E+03  0.26089731519E+03  0.17193826863E+03 0.  0.
         24    2    5    5    0    0 -0.14560737684E+03  0.46642854632E+01 -0.12561098210E+03  0.20794186647E+03  0.78983778440E+02 0.  0.
          5    1    5    5  501    0  0.16909636976E+02  0.48317111485E+02 -0.12716542956E+02  0.52955448725E+02  0.47000000000E+01 0. -1.
        -13    1    6    6    0    0 -0.66383306496E+02  0.13749349423E+02 -0.11549135524E+02  0.68768964819E+02  0.00000000000E+00 0.  1.
         14    1    6    6    0    0 -0.79224070346E+02 -0.90850639601E+01 -0.11406184658E+03  0.13917290165E+03  0.00000000000E+00 0. -1.
         -5    1    3    3    0  503  0.91487363972E+02 -0.66806605102E+01  0.51898747222E+02  0.10549947372E+03  0.47000000000E+01 0.  1.
         13    1    4    4    0    0  0.70363558903E+01 -0.42763307094E+02  0.15330242975E+02  0.45969849766E+02  0.00000000000E+00 0. -1.
        -14    1    4    4    0    0  0.30174020003E+02 -0.35374293444E+01 -0.62244077809E+02  0.69262616986E+02  0.00000000000E+00 0.  1.
</event>
<event>
12    1  0.8494789E-002  0.1878628E+03  0.7818608E-02  0.1160576E+00
         21   -1    0    0  503  502  0.00000000000E+00  0.00000000000E+00  0.72742706552E+03  0.72742706552E+03  0.00000000000E+00 0. -1.
         21   -1    0    0  501  503 -0.00000000000E+00 -0.00000000000E+00 -0.52871249659E+02  0.52871249659E+02  0.00000000000E+00 0.  1.
          6    2    1    2  501    0 -0.12810597398E+02 -0.74057539988E+02  0.22221883636E+03  0.29050125783E+03  0.17135092335E+03 0.  0.
         24    2    3    3    0    0 -0.72773577913E+02 -0.38916140979E+02  0.11772884261E+03  0.16491970763E+03  0.80795853304E+02 0.  0.
         -6    2    1    2    0  502  0.12810597398E+02  0.74057539988E+02  0.45233697950E+03  0.48979705735E+03  0.17217370221E+03 0.  0.
        -24    2    5    5    0    0 -0.48868843639E+02  0.47793681912E+02  0.36537980009E+03  0.37989808220E+03  0.78407618490E+02 0.  0.
          5    1    3    3  501    0  0.59962980515E+02 -0.35141399009E+02  0.10448999375E+03  0.12558155020E+03  0.47000000000E+01 0. -1.
        -13    1    4    4    0    0 -0.27177044754E+02 -0.49096781178E+02  0.25722237443E+02  0.61731022855E+02  0.00000000000E+00 0.  1.
         14    1    4    4    0    0 -0.45596533159E+02  0.10180640199E+02  0.92006605169E+02  0.10318868478E+03  0.00000000000E+00 0. -1.
         -5    1    5    5    0  502  0.61679441037E+02  0.26263858077E+02  0.86957179408E+02  0.10989897515E+03  0.47000000000E+01 0.  1.
         13    1    6    6    0    0 -0.27456520874E+02  0.68731774609E+02  0.26582521291E+03  0.27593651660E+03  0.00000000000E+00 0. -1.
        -14    1    6    6    0    0 -0.21412322765E+02 -0.20938092697E+02  0.99554587185E+02  0.10396156560E+03  0.00000000000E+00 0.  1.
</event>
<event>
12    1  0.8494789E-002  0.2035549E+03  0.7818608E-02  0.1146778E+00
         21   -1    0    0  501  502  0.00000000000E+00  0.00000000000E+00  0.62541752279E+03  0.62541752279E+03  0.00000000000E+00 0.  1.
         21   -1    0    0  502  503 -0.00000000000E+00 -0.00000000000E+00 -0.66920518598E+02  0.66920518598E+02  0.00000000000E+00 0.  1.
         -6    2    1    2    0  503 -0.73264178977E+02  0.81439027345E+02  0.24447724446E+03  0.31812534264E+03  0.17156530965E+03 0.  0.
        -24    2    3    3    0    0 -0.44649828387E+02 -0.14615988916E+01  0.24088246484E+02  0.80881385248E+02  0.62974688682E+02 0.  0.
          6    2    1    2  501    0  0.73264178977E+02 -0.81439027345E+02  0.31401975973E+03  0.37421269875E+03  0.17154235426E+03 0.  0.
         24    2    5    5    0    0 -0.23793734372E+02 -0.49546569309E+02  0.14395265190E+03  0.17576301095E+03  0.84553330517E+02 0.  0.
          5    1    5    5  501    0  0.97057913349E+02 -0.31892458036E+02  0.17006710783E+03  0.19844968781E+03  0.47000000000E+01 0. -1.
        -11    1    6    6    0    0 -0.39053190244E+02 -0.51291025664E+02  0.14662704089E+03  0.16017306297E+03  0.00000000000E+00 0.  1.
         12    1    6    6    0    0  0.15259455872E+02  0.17444563556E+01 -0.26743889839E+01  0.15589947977E+02  0.00000000000E+00 0. -1.
         -5    1    3    3    0  503 -0.28614350590E+02  0.82900626236E+02  0.22038899797E+03  0.23724395739E+03  0.47000000000E+01 0.  1.
         11    1    4    4    0    0 -0.33532593675E+02  0.21630790959E+02 -0.70819738196E+01  0.40527525328E+02  0.00000000000E+00 0. -1.
        -12    1    4    4    0    0 -0.11117234712E+02 -0.23092389850E+02  0.31170220304E+02  0.40353859920E+02  0.00000000000E+00 0.  1.
</event>
<event>
12    1  0.8494789E-002  0.1895527E+03  0.7818608E-02  0.1158930E+00
         21   -1    0    0  501  502  0.00000000000E+00  0.00000000000E+00  0.50923147603E+03  0.50923147603E+03  0.00000000000E+00 0.  1.
         21   -1    0    0  502  503 -0.00000000000E+00 -0.00000000000E+00 -0.13553714597E+03  0.13553714597E+03  0.00000000000E+00 0.  1.
         -6    2    1    2    0  503 -0.78395570505E+02 -0.12895837560E+02 -0.36482322127E+02  0.19303159227E+03  0.17209900547E+03 0.  0.
        -24    2    3    3    0    0  0.15674804291E+02 -0.38020423010E+02 -0.31800205139E+02  0.95438086193E+02  0.80037011400E+02 0.  0.
          6    2    1    2  501    0  0.78395570505E+02  0.12895837560E+02  0.41017665218E+03  0.45173702973E+03  0.17178268228E+03 0.  0.
         24    2    5    5    0    0  0.42319884225E+02  0.60562937727E+02  0.32914568159E+03  0.35093169369E+03  0.96733302944E+02 0.  0.
          5    1    5    5  501    0  0.36075686280E+02 -0.47667100167E+02  0.81030970596E+02  0.10080533604E+03  0.47000000000E+01 0. -1.
        -13    1    6    6    0    0  0.16373922080E+02 -0.14914810109E+02  0.18366655159E+03  0.18499718662E+03  0.00000000000E+00 0.  1.
         14    1    6    6    0    0  0.25945962145E+02  0.75477747836E+02  0.14547913000E+03  0.16593450707E+03  0.00000000000E+00 0. -1.
         -5    1    3    3    0  503 -0.94070374796E+02  0.25124585451E+02 -0.46821169884E+01  0.97593506074E+02  0.47000000000E+01 0.  1.
         11    1    4    4    0    0 -0.31711746898E+02 -0.12000723095E+02 -0.26259202514E+01  0.34008053506E+02  0.00000000000E+00 0. -1.
        -12    1    4    4    0    0  0.47386551188E+02 -0.26019699915E+02 -0.29174284887E+02  0.61430032687E+02  0.00000000000E+00 0.  1.
</event>
<event>
12    1  0.8494789E-002  0.1886745E+03  0.7818608E-02  0.1162668E+00
         21   -1    0    0  503  502  0.00000000000E+00  0.00000000000E+00  0.18393623807E+03  0.18393623807E+03  0.00000000000E+00 0.  1.
         21   -1    0    0  501  503 -0.00000000000E+00 -0.00000000000E+00 -0.18202714461E+03  0.18202714461E+03  0.00000000000E+00 0.  1.
          6    2    1    2  501    0 -0.31326803940E+02 -0.21638511026E+02  0.16515683519E+02  0.17672431030E+03  0.17178218838E+03 0.  0.
         24    2    3    3    0    0  0.48627432082E+02  0.45242447995E+00  0.21660297539E+02  0.93482215523E+02  0.76843505196E+02 0.  0.
         -6    2    1    2    0  502  0.31326803940E+02  0.21638511026E+02 -0.14606590061E+02  0.18923907237E+03  0.18479307410E+03 0.  0.
        -24    2    5    5    0    0  0.63337583263E+02 -0.64512845719E+01  0.47814964919E+02  0.11352733527E+03  0.80925375848E+02 0.  0.
          5    1    3    3  501    0 -0.79954236022E+02 -0.22090935506E+02 -0.51446140200E+01  0.83242094777E+02  0.47000000000E+01 0. -1.
        -13    1    4    4    0    0  0.43431756221E+02 -0.22548886994E+02 -0.13847242224E+02  0.50857800486E+02  0.00000000000E+00 0.  1.
         14    1    4    4    0    0  0.51956758611E+01  0.23001311474E+02  0.35507539763E+02  0.42624415037E+02  0.00000000000E+00 0. -1.
         -5    1    5    5    0  502 -0.32010779323E+02  0.28089795598E+02 -0.62421554980E+02  0.75711737107E+02  0.47000000000E+01 0.  1.
         13    1    6    6    0    0  0.34353513132E+02  0.36929777707E+02  0.18788055671E+02  0.53823446395E+02  0.00000000000E+00 0. -1.
        -14    1    6    6    0    0  0.28984070132E+02 -0.43381062279E+02  0.29026909248E+02  0.59703888871E+02  0.00000000000E+00 0.  1.
</event>
<event>
12    1  0.8494789E-002  0.2730264E+03  0.7818608E-02  0.1099584E+00
         21   -1    0    0  503  502  0.00000000000E+00  0.00000000000E+00  0.16141122156E+03  0.16141122156E+03  0.00000000000E+00 0.  1.
         21   -1    0    0  501  503 -0.00000000000E+00 -0.00000000000E+00 -0.46795600869E+03  0.46795600869E+03  0.00000000000E+00 0. -1.
          6    2    1    2  501    0  0.10714199021E+03  0.18333917340E+03 -0.11645514827E+03  0.29682525372E+03  0.17161226973E+03 0.  0.
         24    2    3    3    0    0  0.80567929578E+02  0.30912993248E+02 -0.51543387321E+02  0.12896951863E+03  0.80806011726E+02 0.  0.
         -6    2    1    2    0  502 -0.10714199021E+03 -0.18333917340E+03 -0.19008963886E+03  0.33254197653E+03  0.17134012018E+03 0.  0.
        -24    2    5    5    0    0 -0.10514599801E+03 -0.12679176846E+03 -0.20444939485E+03  0.27397675151E+03  0.78306269648E+02 0.  0.
          5    1    3    3  501    0  0.26574060629E+02  0.15242618015E+03 -0.64911760946E+02  0.16785573509E+03  0.47000000000E+01 0. -1.
        -11    1    4    4    0    0  0.59098778857E+02  0.12616417373E+02  0.10016175256E+02  0.61254905244E+02  0.00000000000E+00 0.  1.
         12    1    4    4    0    0  0.21469150721E+02  0.18296575875E+02 -0.61559562576E+02  0.67714613386E+02  0.00000000000E+00 0. -1.
         -5    1    5    5    0  502 -0.19959922016E+01 -0.56547404936E+02  0.14359755986E+02  0.58565225022E+02  0.47000000000E+01 0.  1.
         13    1    6    6    0    0 -0.56380267645E+02 -0.61065723208E+02 -0.16130811206E+03  0.18146091630E+03  0.00000000000E+00 0. -1.
        -14    1    6    6    0    0 -0.48765730361E+02 -0.65726045256E+02 -0.43141282792E+02  0.92515835204E+02  0.00000000000E+00 0.  1.
</event>
<event>
12    1  0.8494789E-002  0.1964897E+03  0.7818608E-02  0.1155936E+00
         21   -1    0    0  501  502  0.00000000000E+00  0.00000000000E+00  0.90777587121E+02  0.90777587121E+02  0.00000000000E+00 0.  1.
         21   -1    0    0  502  503 -0.00000000000E+00 -0.00000000000E+00 -0.57604379351E+03  0.57604379351E+03  0.00000000000E+00 0.  1.
         -6    2    1    2    0  503  0.64435904760E+01  0.59653934710E+02 -0.43570013916E+03  0.47795690278E+03  0.18710445710E+03 0.  0.
        -24    2    3    3    0    0  0.28776714123E+01 -0.39077618918E+02 -0.27912169655E+03  0.29275556868E+03  0.79130020960E+02 0.  0.
          6    2    1    2  501    0 -0.64435904760E+01 -0.59653934710E+02 -0.49566067234E+02  0.18886447786E+03  0.17208394519E+03 0.  0.
         24    2    5    5    0    0  0.61812611022E+01  0.24765804576E+02 -0.48782538475E+02  0.10337305621E+03  0.87491140263E+02 0.  0.
          5    1    5    5  501    0 -0.12624851578E+02 -0.84419739286E+02 -0.78352875893E+00  0.85491421650E+02  0.47000000000E+01 0. -1.
        -13    1    6    6    0    0  0.32182911540E+02  0.84279529992E+01 -0.61669080351E+02  0.70070290839E+02  0.00000000000E+00 0.  1.
         14    1    6    6    0    0 -0.26001650438E+02  0.16337851577E+02  0.12886541876E+02  0.33302765368E+02  0.00000000000E+00 0. -1.
         -5    1    3    3    0  503  0.35659190637E+01  0.98731553628E+02 -0.15657844261E+03  0.18520133410E+03  0.47000000000E+01 0.  1.
         11    1    4    4    0    0  0.22000032928E+02 -0.38349410901E+01 -0.22111411627E+03  0.22223897191E+03  0.00000000000E+00 0. -1.
        -12    1    4    4    0    0 -0.19122361516E+02 -0.35242677828E+02 -0.58007580275E+02  0.70516596769E+02  0.00000000000E+00 0.  1.
</event>
<event>
12    1  0.8494789E-002  0.2424485E+03  0.7818608E-02  0.1118315E+00
         21   -1    0    0  503  502  0.00000000000E+00  0.00000000000E+00  0.81763932490E+03  0.81763932490E+03  0.00000000000E+00 0.  1.
         21   -1    0    0  501  503 -0.00000000000E+00 -0.00000000000E+00 -0.75674504324E+02  0.75674504324E+02  0.00000000000E+00 0. -1.
          6    2    1    2  501    0 -0.16157365449E+03 -0.53575323014E+02  0.26841533237E+03  0.36170162391E+03  0.17264099464E+03 0.  0.
         24    2    3    3    0    0 -0.14062528495E+03  0.17054694551E+02  0.14574351341E+03  0.21853075141E+03  0.80300586780E+02 0.  0.
         -6    2    1    2    0  502  0.16157365449E+03  0.53575323014E+02  0.47354948820E+03  0.53161220531E+03  0.17142362146E+03 0.  0.
        -24    2    5    5    0    0  0.58114868218E+02  0.26372206602E+02  0.34349939129E+03  0.36315197942E+03  0.99069153374E+02 0.  0.
          5    1    3    3  501    0 -0.20948369541E+02 -0.70630017565E+02  0.12267181896E+03  0.14317087251E+03  0.47000000000E+01 0. -1.
        -11    1    4    4    0    0 -0.37507473809E+02 -0.25716566166E+02  0.70532779864E+02  0.83922734716E+02  0.00000000000E+00 0.  1.
         12    1    4    4    0    0 -0.10311781114E+03  0.42771260717E+02  0.75210733546E+02  0.13460801669E+03  0.00000000000E+00 0. -1.
         -5    1    5    5    0  502  0.10345878627E+03  0.27203116412E+02  0.13005009691E+03  0.16846022589E+03  0.47000000000E+01 0.  1.
         11    1    6    6    0    0  0.16036198758E+02  0.19673654178E+02  0.10548911219E+02  0.27486212311E+02  0.00000000000E+00 0. -1.
        -12    1    6    6    0    0  0.42078669460E+02  0.66985524242E+01  0.33295048007E+03  0.33566576711E+03  0.00000000000E+00 0.  1.
</event>
<event>
12    1  0.8494789E-002  0.2201714E+03  0.7818608E-02  0.1133805E+00
         21   -1    0    0  501  502  0.00000000000E+00  0.00000000000E+00  0.60021892715E+02  0.60021892715E+02  0.00000000000E+00 0.  1.
         21   -1    0    0  502  503 -0.00000000000E+00 -0.00000000000E+00 -0.81323722462E+03  0.81323722462E+03  0.00000000000E+00 0. -1.
         -6    2    1    2    0  503 -0.13609600771E+03 -0.21919120841E+01 -0.41569559760E+03  0.47027648450E+03  0.17271425599E+03 0.  0.
        -24    2    3    3    0    0 -0.14097828321E+03  0.36657478015E+02 -0.38112177538E+03  0.41783078965E+03  0.90056171834E+02 0.  0.
          6    2    1    2  501    0  0.13609600771E+03  0.21919120841E+01 -0.33751973430E+03  0.40298263283E+03  0.17305635939E+03 0.  0.
         24    2    5    5    0    0  0.29168189052E+01 -0.16721436460E+02 -0.95471762702E+02  0.12602826540E+03  0.80499390902E+02 0.  0.
          5    1    5    5  501    0  0.13317918880E+03  0.18913348544E+02 -0.24204797160E+03  0.27695436743E+03  0.47000000000E+01 0. -1.
        -13    1    6    6    0    0 -0.30337247442E+01  0.30731736696E+02 -0.20378529756E+02  0.36999021625E+02  0.00000000000E+00 0.  1.
         14    1    6    6    0    0  0.59505436494E+01 -0.47453173156E+02 -0.75093232945E+02  0.89029243771E+02  0.00000000000E+00 0. -1.
         -5    1    3    3    0  503  0.48822755014E+01 -0.38849390099E+02 -0.34573822223E+02  0.52445694850E+02  0.47000000000E+01 0.  1.
         11    1    4    4    0    0 -0.12176520976E+03  0.24596964015E+02 -0.20102433187E+03  0.23631030225E+03  0.00000000000E+00 0. -1.
        -12    1    4    4    0    0 -0.19213073453E+02  0.12060514000E+02 -0.18009744351E+03  0.18152048740E+03  0.00000000000E+00 0.  1.
</event>
<event>
12    1  0.8494789E-002  0.1940123E+03  0.7818608E-02  0.1154962E+00
         21   -1    0    0  501  502  0.00000000000E+00  0.00000000000E+00  0.11124910132E+03  0.11124910132E+03  0.00000000000E+00 0. -1.
         21   -1    0    0  502  503 -0.00000000000E+00 -0.00000000000E+00 -0.77815661501E+03  0.77815661501E+03  0.00000000000E+00 0. -1.
         -6    2    1    2    0  503  0.58941759972E+02 -0.69440147727E+02 -0.66811140747E+03  0.69571086389E+03  0.17130291346E+03 0.  0.
        -24    2    3    3    0    0 -0.32076251371E+02 -0.21685441188E+02 -0.35991065752E+03  0.37078843830E+03  0.80307162297E+02 0.  0.
          6    2    1    2  501    0 -0.58941759972E+02  0.69440147727E+02  0.12038937862E+01  0.19369485244E+03  0.17093911582E+03 0.  0.
         24    2    5    5    0    0 -0.71469131043E+01  0.83127506463E+02  0.45110466604E+02  0.12426915772E+03  0.80290775715E+02 0.  0.
          5    1    5    5  501    0 -0.51794846868E+02 -0.13687358736E+02 -0.43906572818E+02  0.69425694724E+02  0.47000000000E+01 0. -1.
        -13    1    6    6    0    0  0.15706963925E+02 -0.83603827502E+01 -0.35669833446E+01  0.18147398867E+02  0.00000000000E+00 0.  1.
         14    1    6    6    0    0 -0.22853877029E+02  0.91487889213E+02  0.48677449948E+02  0.10612175885E+03  0.00000000000E+00 0. -1.
         -5    1    3    3    0  503  0.91018011343E+02 -0.47754706538E+02 -0.30820074994E+03  0.32492242559E+03  0.47000000000E+01 0.  1.
         13    1    4    4    0    0 -0.14409430141E+02 -0.46474793965E+02 -0.29630871617E+03  0.30027719432E+03  0.00000000000E+00 0. -1.
        -14    1    4    4    0    0 -0.17666821230E+02  0.24789352777E+02 -0.63601941354E+02  0.70511243979E+02  0.00000000000E+00 0.  1.
</event>
<event>
12    1  0.8494789E-002  0.2199102E+03  0.7818608E-02  0.1134040E+00
         21   -1    0    0  503  502  0.00000000000E+00  0.00000000000E+00  0.87519619024E+03  0.87519619024E+03  0.00000000000E+00 0. -1.
         21   -1    0    0  501  503 -0.00000000000E+00 -0.00000000000E+00 -0.20095622387E+03  0.20095622387E+03  0.00000000000E+00 0. -1.
          6    2    1    2  501    0  0.13628918707E+03  0.12419228716E+02 -0.12113412722E+03  0.25106564186E+03  0.17213802599E+03 0.  0.
         24    2    3    3    0    0  0.40282194884E+02 -0.33156284149E+02 -0.10758804618E+03  0.14382732673E+03  0.79931957494E+02 0.  0.
         -6    2    1    2    0  502 -0.13628918707E+03 -0.12419228716E+02  0.79537409359E+03  0.82508677225E+03  0.17152041641E+03 0.  0.
        -24    2    5    5    0    0 -0.49223181117E+02 -0.87226856926E+01  0.63975911211E+03  0.64667078003E+03  0.79952294572E+02 0.  0.
          5    1    3    3  501    0  0.96006992181E+02  0.45575512865E+02 -0.13546081039E+02  0.10723831513E+03  0.47000000000E+01 0. -1.
        -11    1    4    4    0    0 -0.13570052286E+02  0.12677906141E+02 -0.47599929547E+02  0.51094313931E+02  0.00000000000E+00 0.  1.
         12    1    4    4    0    0  0.53852247170E+02 -0.45834190290E+02 -0.59988116636E+02  0.92733012797E+02  0.00000000000E+00 0. -1.
         -5    1    5    5    0  502 -0.87066005949E+02 -0.36965430229E+01  0.15561498148E+03  0.17841599223E+03  0.47000000000E+01 0.  1.
         11    1    6    6    0    0 -0.54857635934E+02 -0.92074178598E+01  0.22164300435E+03  0.22851642860E+03  0.00000000000E+00 0. -1.
        -12    1    6    6    0    0  0.56344548178E+01  0.48473216717E+00  0.41811610776E+03  0.41815435142E+03  0.00000000000E+00 0.  1.
</event>
<event>
12    1  0.8494789E-002  0.2568389E+03  0.7818608E-02  0.1109102E+00
         21   -1    0    0  501  502  0.00000000000E+00  0.00000000000E+00  0.28079220396E+03  0.28079220396E+03  0.00000000000E+00 0. -1.
         21   -1    0    0  502  503 -0.00000000000E+00 -0.00000000000E+00 -0.29846016201E+03  0.29846016201E+03  0.00000000000E+00 0. -1.
         -6    2    1    2    0  503  0.18428275923E+03  0.51921284955E+02 -0.14274626713E+03  0.29384132860E+03  0.17120243700E+03 0.  0.
        -24    2    3    3    0    0  0.49261414431E+02  0.60175115666E+02 -0.10826401308E+03  0.15416310869E+03  0.77443114966E+02 0.  0.
          6    2    1    2  501    0 -0.18428275923E+03 -0.51921284955E+02  0.12507830907E+03  0.28541103736E+03  0.17075983622E+03 0.  0.
         24    2    5    5    0    0 -0.14220560680E+03 -0.86200393253E+02  0.47355358274E+02  0.19049796606E+03  0.79962508183E+02 0.  0.
          5    1    5    5  501    0 -0.42077152433E+02  0.34279108299E+02  0.77722950800E+02  0.94913071300E+02  0.47000000000E+01 0. -1.
        -11    1    6    6    0    0 -0.22906977178E+01  0.12846306799E+02  0.44327497611E+01  0.13781297647E+02  0.00000000000E+00 0.  1.
         12    1    6    6    0    0 -0.13991490908E+03 -0.99046700052E+02  0.42922608513E+02  0.17671666842E+03  0.00000000000E+00 0. -1.
         -5    1    3    3    0  503  0.13502134480E+03 -0.82538307117E+01 -0.34482254046E+02  0.13967821991E+03  0.47000000000E+01 0.  1.
         13    1    4    4    0    0 -0.92988438947E+00  0.35068092612E+02 -0.87592966596E+02  0.94356576885E+02  0.00000000000E+00 0. -1.
        -14    1    4    4    0    0  0.50191298821E+02  0.25107023055E+02 -0.20671046487E+02  0.59806531808E+02  0.00000000000E+00 0.  1.
</event>
<event>
12    1  0.8494789E-002  0.1900759E+03  0.7818608E-02  0.1158479E+00
         21   -1    0    0  503  502  0.00000000000E+00  0.00000000000E+00  0.89273187774E+02  0.89273187774E+02  0.00000000000E+00 0.  1.
         21   -1    0    0  501  503 -0.00000000000E+00 -0.00000000000E+00 -0.41322959413E+03  0.41322959413E+03  0.00000000000E+00 0.  1.
          6    2    1    2  501    0  0.62050643707E+02  0.49757422430E+02 -0.19960366731E+03  0.27536304079E+03  0.17221235948E+03 0.  0.
         24    2    3    3    0    0  0.85359709749E+02  0.34995957739E+02 -0.69167232968E+02  0.14195776802E+03  0.82806428965E+02 0.  0.
         -6    2    1    2    0  502 -0.62050643707E+02 -0.49757422430E+02 -0.12435273905E+03  0.22713974112E+03  0.17263480186E+03 0.  0.
        -24    2    5    5    0    0 -0.38575515228E+02  0.40989082529E+02 -0.64913133917E+02  0.11604893827E+03  0.78009395949E+02 0.  0.
          5    1    3    3  501    0 -0.23309066042E+02  0.14761464691E+02 -0.13043643434E+03  0.13340527277E+03  0.47000000000E+01 0. -1.
        -11    1    4    4    0    0  0.39199444727E+02  0.59628461385E+02 -0.44649076355E+02  0.84176540042E+02  0.00000000000E+00 0.  1.
         12    1    4    4    0    0  0.46160265023E+02 -0.24632503647E+02 -0.24518156614E+02  0.57781227978E+02  0.00000000000E+00 0. -1.
         -5    1    5    5    0  502 -0.23475128478E+02 -0.90746504959E+02 -0.59439605132E+02  0.11109080285E+03  0.47000000000E+01 0.  1.
         13    1    6    6    0    0  0.20216332929E+02  0.92915838192E+01  0.91699930926E+00  0.22268240494E+02  0.00000000000E+00 0. -1.
        -14    1    6    6    0    0 -0.58791848157E+02  0.31697498710E+02 -0.65830133227E+02  0.93780697773E+02  0.00000000000E+00 0.  1.
</event>
<event>
12    1  0.8494789E-002  0.1778554E+03  0.7818608E-02  0.1170415E+00
         21   -1    0    0  503  502  0.00000000000E+00  0.00000000000E+00  0.98650174733E+02  0.98650174733E+02  0.00000000000E+00 0.  1.
         21   -1    0    0  501  503 -0.00000000000E+00 -0.00000000000E+00 -0.14200591080E+04  0.14200591080E+04  0.00000000000E+00 0.  1.
          6    2    1    2  501    0  0.37077243186E+02 -0.70286325536E+01 -0.13308722976E+04  0.13427038404E+04  0.17380565821E+03 0.  0.
         24    2    3    3    0    0 -0.27113972090E+02  0.16015083532E+02 -0.38580159050E+03  0.39516373232E+03  0.79497532832E+02 0.  0.
         -6    2    1    2    0  502 -0.37077243186E+02  0.70286325536E+01  0.94633642748E+01  0.17600544241E+03  0.17165149826E+03 0.  0.
        -24    2    5    5    0    0 -0.47528301734E+02  0.39416595473E+02  0.57979155066E+02  0.11655734132E+03  0.80071367723E+02 0.  0.
          5    1    3    3  501    0  0.64191215275E+02 -0.23043716086E+02 -0.94507070707E+03  0.94754010803E+03  0.47000000000E+01 0. -1.
        -13    1    4    4    0    0 -0.91867967931E+01  0.38750926186E+02 -0.32906805291E+03  0.33146917649E+03  0.00000000000E+00 0.  1.
         14    1    4    4    0    0 -0.17927175296E+02 -0.22735842654E+02 -0.56733537592E+02  0.63694555835E+02  0.00000000000E+00 0. -1.
         -5    1    5    5    0  502  0.10451058549E+02 -0.32387962920E+02 -0.48515790791E+02  0.59448101088E+02  0.47000000000E+01 0.  1.
         13    1    6    6    0    0  0.45887494341E+01  0.45887250745E+02  0.14395321533E+02  0.48310678782E+02  0.00000000000E+00 0. -1.
        -14    1    6    6    0    0 -0.52117051168E+02 -0.64706552722E+01  0.43583833533E+02  0.68246662538E+02  0.00000000000E+00 0.  1.
</event>
<event>
12    1  0.8494789E-002  0.2492318E+03  0.7818608E-02  0.1113852E+00
         21   -1    0    0  503  502  0.00000000000E+00  0.00000000000E+00  0.19195850709E+03  0.19195850709E+03  0.00000000000E+00 0.  1.
         21   -1    0    0  501  503 -0.00000000000E+00 -0.00000000000E+00 -0.38883553556E+03  0.38883553556E+03  0.00000000000E+00 0.  1.
          6    2    1    2  501    0  0.16790096733E+03  0.66141891721E+02 -0.21790357991E+03  0.33105658434E+03  0.17190406402E+03 0.  0.
         24    2    3    3    0    0  0.48366060040E+02  0.18512653090E+02 -0.16814050873E+03  0.19301459187E+03  0.79381407833E+02 0.  0.
         -6    2    1    2    0  502 -0.16790096733E+03 -0.66141891721E+02  0.21026551445E+02  0.24973745830E+03  0.17135109438E+03 0.  0.
        -24    2    5    5    0    0 -0.16185507354E+03 -0.98915416946E+01 -0.18291827044E+02  0.18068183147E+03  0.77565622928E+02 0.  0.
          5    1    3    3  501    0  0.11953490729E+03  0.47629238631E+02 -0.49763071183E+02  0.13804199247E+03  0.47000000000E+01 0. -1.
        -11    1    4    4    0    0 -0.74590508709E+01  0.35421148710E+02 -0.57637098127E+02  0.68061224617E+02  0.00000000000E+00 0.  1.
         12    1    4    4    0    0  0.55825110911E+02 -0.16908495621E+02 -0.11050341060E+03  0.12495336725E+03  0.00000000000E+00 0. -1.
         -5    1    5    5    0  502 -0.60458937863E+01 -0.56250350026E+02  0.39318378489E+02  0.69055626829E+02  0.47000000000E+01 0.  1.
         13    1    6    6    0    0 -0.48994523740E+02 -0.88489157595E+00 -0.42544089490E+02  0.64894113293E+02  0.00000000000E+00 0. -1.
        -14    1    6    6    0    0 -0.11286054980E+03 -0.90066501186E+01  0.24252262446E+02  0.11578771818E+03  0.00000000000E+00 0.  1.
</event>
<event>
12    1  0.8494789E-002  0.2382881E+03  0.7818608E-02  0.1121086E+00
         21   -1    0    0  503  502  0.00000000000E+00  0.00000000000E+00  0.50190239803E+02  0.50190239803E+02  0.00000000000E+00 0.  1.
         21   -1    0    0  501  503 -0.00000000000E+00 -0.00000000000E+00 -0.12772282007E+04  0.12772282007E+04  0.00000000000E+00 0.  1.
          6    2    1    2  501    0 -0.16174328673E+03  0.14877025213E+02 -0.84002370798E+03  0.87292835852E+03  0.17315274312E+03 0.  0.
         24    2    3    3    0    0 -0.53805721355E+02  0.66441276279E+02 -0.38581104498E+03  0.40320437229E+03  0.80088104980E+02 0.  0.
         -6    2    1    2    0  502  0.16174328673E+03 -0.14877025213E+02 -0.38701425296E+03  0.45449008203E+03  0.17435304984E+03 0.  0.
        -24    2    5    5    0    0  0.11079833647E+03  0.27588811986E+02 -0.13363992830E+03  0.19253708303E+03  0.78571521531E+02 0.  0.
          5    1    3    3  501    0 -0.10793756538E+03 -0.51564251066E+02 -0.45421266300E+03  0.46972398623E+03  0.47000000000E+01 0. -1.
        -11    1    4    4    0    0 -0.53192600699E+02  0.62085433190E+01 -0.23006467617E+03  0.23621548214E+03  0.00000000000E+00 0.  1.
         12    1    4    4    0    0 -0.61312065613E+00  0.60232732960E+02 -0.15574636880E+03  0.16698889015E+03  0.00000000000E+00 0. -1.
         -5    1    5    5    0  502  0.50944950260E+02 -0.42465837199E+02 -0.25337432466E+03  0.26195299900E+03  0.47000000000E+01 0.  1.
         11    1    6    6    0    0  0.39484694412E+02 -0.10083044423E+02 -0.54902567817E+01  0.41119968350E+02  0.00000000000E+00 0. -1.
        -12    1    6    6    0    0  0.71313642061E+02  0.37671856409E+02 -0.12814967152E+03  0.15141711468E+03  0.00000000000E+00 0.  1.
</event>
<event>
12    1  0.8494789E-002  0.2248260E+03  0.7818608E-02  0.1130615E+00
         21   -1    0    0  503  502  0.00000000000E+00  0.00000000000E+00  0.26247620486E+03  0.26247620486E+03  0.00000000000E+00 0. -1.
         21   -1    0    0  501  503 -0.00000000000E+00 -0.00000000000E+00 -0.21416241968E+03  0.21416241968E+03  0.00000000000E+00 0.  1.
          6    2    1    2  501    0  0.94854362943E+02 -0.10847423090E+03  0.10216103388E+03  0.24694855616E+03  0.17257666009E+03 0.  0.
         24    2    3    3    0    0  0.22836464685E+02 -0.43473917945E+02 -0.16696962216E+02  0.93452850714E+02  0.77737771376E+02 0.  0.
         -6    2    1    2    0  502 -0.94854362943E+02  0.10847423090E+03 -0.53847248703E+02  0.22969006839E+03  0.17056961155E+03 0.  0.
        -24    2    5    5    0    0 -0.12684564677E+03  0.60208693651E+02 -0.55178592350E+02  0.17157925353E+03  0.81730400059E+02 0.  0.
          5    1    3    3  501    0  0.72017898258E+02 -0.65000312954E+02  0.11885799609E+03  0.15349570544E+03  0.47000000000E+01 0. -1.
        -11    1    4    4    0    0  0.50683983081E+02 -0.22955537383E+02 -0.18977445608E+02  0.58787467026E+02  0.00000000000E+00 0.  1.
         12    1    4    4    0    0 -0.27847518397E+02 -0.20518380562E+02  0.22804833921E+01  0.34665383688E+02  0.00000000000E+00 0. -1.
         -5    1    5    5    0  502  0.31991283828E+02  0.48265537247E+02  0.13313436473E+01  0.58110814851E+02  0.47000000000E+01 0.  1.
         11    1    6    6    0    0 -0.90260818771E+02  0.18776382577E+01 -0.48281865532E+02  0.10238007360E+03  0.00000000000E+00 0. -1.
        -12    1    6    6    0    0 -0.36584828000E+02  0.58331055394E+02 -0.68967268174E+01  0.69199179937E+02  0.00000000000E+00 0.  1.
</event>
<event>
12    1  0.8494789E-002  0.1759666E+03  0.7818608E-02  0.1171790E+00
         21   -1    0    0  501  502  0.00000000000E+00  0.00000000000E+00  0.19510571362E+03  0.19510571362E+03  0.00000000000E+00 0. -1.
         21   -1    0    0  502  503 -0.00000000000E+00 -0.00000000000E+00 -0.16217434512E+03  0.16217434512E+03  0.00000000000E+00 0. -1.
         -6    2    1    2    0  503 -0.28088697327E+02  0.20916409647E+02  0.42939029671E+02  0.18102906631E+03  0.17234062629E+03 0.  0.
        -24    2    3    3    0    0 -0.10051980537E+02  0.52212790764E+02 -0.30220144237E+02  0.99303052393E+02  0.78234399498E+02 0.  0.
          6    2    1    2  501    0  0.28088697327E+02 -0.20916409647E+02 -0.10007661169E+02  0.17625099243E+03  0.17244647848E+03 0.  0.
         24    2    5    5    0    0 -0.11719053174E+02 -0.29642206178E+02  0.55468368591E+02  0.98985236764E+02  0.75533704985E+02 0.  0.
          5    1    5    5  501    0  0.39807750501E+02  0.87257965304E+01 -0.65476029760E+02  0.77265755663E+02  0.47000000000E+01 0. -1.
        -13    1    6    6    0    0  0.17624065454E+02 -0.12325078262E+02  0.60806461595E+02  0.64497604677E+02  0.00000000000E+00 0.  1.
         14    1    6    6    0    0 -0.29343118628E+02 -0.17317127916E+02 -0.53380930041E+01  0.34487632088E+02  0.00000000000E+00 0. -1.
         -5    1    3    3    0  503 -0.18036716789E+02 -0.31296381117E+02  0.73159173908E+02  0.81726013915E+02  0.47000000000E+01 0.  1.
         11    1    4    4    0    0 -0.34909035282E+02  0.39454803460E+02  0.65881669504E+01  0.53091677353E+02  0.00000000000E+00 0. -1.
        -12    1    4    4    0    0  0.24857054745E+02  0.12757987304E+02 -0.36808311187E+02  0.46211375040E+02  0.00000000000E+00 0.  1.
</event>
<event>
12    1  0.8494789E-002  0.3245125E+03  0.7818608E-02  0.1073622E+00
         21   -1    0    0  503  502  0.00000000000E+00  0.00000000000E+00  0.27803868871E+03  0.27803868871E+03  0.00000000000E+00 0. -1.
         21   -1    0    0  501  503 -0.00000000000E+00 -0.00000000000E+00 -0.39125729489E+03  0.39125729489E+03  0.00000000000E+00 0.  1.
          6    2    1    2  501    0 -0.27421766719E+03  0.17924212413E+02 -0.11717132844E+03  0.34475940539E+03  0.17208521437E+03 0.  0.
         24    2    3    3    0    0 -0.26499669034E+03  0.41974983771E+02 -0.13696154676E+03  0.31193854681E+03  0.81006459859E+02 0.  0.
         -6    2    1    2    0  502  0.27421766719E+03 -0.17924212413E+02  0.39527222602E+01  0.32453657821E+03  0.17260289740E+03 0.  0.
        -24    2    5    5    0    0  0.98554712158E+02 -0.20536924136E+02 -0.54127058860E+02  0.13944295052E+03  0.79873659042E+02 0.  0.
          5    1    3    3  501    0 -0.92209768501E+01 -0.24050771358E+02  0.19790218320E+02  0.32820858584E+02  0.47000000000E+01 0. -1.
        -11    1    4    4    0    0 -0.98905829751E+02  0.37631799870E+02 -0.17400828950E+02  0.10724413442E+03  0.00000000000E+00 0.  1.
         12    1    4    4    0    0 -0.16609086059E+03  0.43431839012E+01 -0.11956071781E+03  0.20469441238E+03  0.00000000000E+00 0. -1.
         -5    1    5    5    0  502  0.17566295503E+03  0.26127117235E+01  0.58079781120E+02  0.18509362768E+03  0.47000000000E+01 0.  1.
         13    1    6    6    0    0  0.15830249991E+02  0.13184416445E+02  0.15826941088E+02  0.25979178509E+02  0.00000000000E+00 0. -1.
        -14    1    6    6    0    0  0.82724462167E+02 -0.33721340581E+02 -0.69953999948E+02  0.11346377202E+03  0.00000000000E+00 0.  1.
</event>
<event>
12    1  0.8494789E-002  0.2137420E+03  0.7818608E-02  0.1139003E+00
         21   -1    0    0  503  502  0.00000000000E+00  0.00000000000E+00  0.10090880778E+03  0.10090880778E+03  0.00000000000E+00 0. -1.
         21   -1    0    0  501  503 -0.00000000000E+00 -0.00000000000E+00 -0.45804835199E+03  0.45804835199E+03  0.00000000000E+00 0.  1.
          6    2    1    2  501    0  0.91474828852E+02  0.86789526823E+02 -0.21913919155E+03  0.30611701675E+03  0.17258498310E+03 0.  0.
         24    2    3    3    0    0  0.10351312324E+03  0.55482719898E+01 -0.12181339950E+03  0.17868286977E+03  0.79644922295E+02 0.  0.
         -6    2    1    2    0  502 -0.91474828852E+02 -0.86789526823E+02 -0.13800035267E+03  0.25284014302E+03  0.17024680410E+03 0.  0.
        -24    2    5    5    0    0  0.15509382436E+01 -0.84966985019E+02 -0.59479092354E+02  0.13100093207E+03  0.80010548205E+02 0.  0.
          5    1    3    3  501    0 -0.12038294385E+02  0.81241254833E+02 -0.97325792044E+02  0.12743414698E+03  0.47000000000E+01 0. -1.
        -11    1    4    4    0    0  0.29534716501E+02  0.12401196406E+02 -0.94074053805E+02  0.99378150267E+02  0.00000000000E+00 0.  1.
         12    1    4    4    0    0  0.73978406736E+02 -0.68529244164E+01 -0.27739345699E+02  0.79304719506E+02  0.00000000000E+00 0. -1.
         -5    1    5    5    0  502 -0.93025767095E+02 -0.18225418035E+01 -0.78521260313E+02  0.12183921094E+03  0.47000000000E+01 0.  1.
         13    1    6    6    0    0 -0.90466991444E+01 -0.98533918061E+02 -0.45907254486E+02  0.10907910794E+03  0.00000000000E+00 0. -1.
        -14    1    6    6    0    0  0.10597637388E+02  0.13566933042E+02 -0.13571837868E+02  0.21921824136E+02  0.00000000000E+00 0.  1.
</event>
<event>
12    1  0.8494789E-002  0.1764364E+03  0.7818608E-02  0.1171565E+00
         21   -1    0    0  501  502  0.00000000000E+00  0.00000000000E+00  0.79759080777E+03  0.79759080777E+03  0.00000000000E+00 0.  1.
         21   -1    0    0  502  503 -0.00000000000E+00 -0.00000000000E+00 -0.62788785478E+02  0.62788785478E+02  0.00000000000E+00 0.  1.
         -6    2    1    2    0  503  0.36183537900E+02 -0.34736972540E+00  0.10076582906E+03  0.20225218343E+03  0.17158911480E+03 0.  0.
        -24    2    3    3    0    0 -0.43886870347E+02  0.10499674049E+01  0.36935011060E+02  0.99735423073E+02  0.81583084969E+02 0.  0.
          6    2    1    2  501    0 -0.36183537900E+02  0.34736972540E+00  0.63403619323E+03  0.65812740982E+03  0.17268591183E+03 0.  0.
         24    2    5    5    0    0  0.36248704435E+02  0.36434236053E+02  0.36159903211E+03  0.37388668717E+03  0.79974825355E+02 0.  0.
          5    1    5    5  501    0 -0.72432242334E+02 -0.36086866328E+02  0.27243716112E+03  0.28424072264E+03  0.47000000000E+01 0. -1.
        -13    1    6    6    0    0 -0.13687403645E+02  0.42475139430E+02  0.18011194806E+03  0.18555806726E+03  0.00000000000E+00 0.  1.
         14    1    6    6    0    0  0.49936108079E+02 -0.60409033765E+01  0.18148708405E+03  0.18832861992E+03  0.00000000000E+00 0. -1.
         -5    1    3    3    0  503  0.80070408247E+02 -0.13973371303E+01  0.63830818003E+02  0.10251676036E+03  0.47000000000E+01 0.  1.
         13    1    4    4    0    0 -0.18308832283E+02 -0.32513470183E+02  0.43189055129E+02  0.57075682789E+02  0.00000000000E+00 0. -1.
        -14    1    4    4    0    0 -0.25578038065E+02  0.33563437588E+02 -0.62540440682E+01  0.42659740284E+02  0.00000000000E+00 0.  1.
</event>
<event>
12    1  0.8494789E-002  0.2065979E+03  0.7818608E-02  0.1144546E+00
         21   -1    0    0  501  502  0.00000000000E+00  0.00000000000E+00  0.16542149334E+03  0.16542149334E+03  0.00000000000E+00 0. -1.
         21   -1    0    0  502  503 -0.00000000000E+00 -0.00000000000E+00 -0.33986517962E+03  0.33986517962E+03  0.00000000000E+00 0. -1.
         -6    2    1    2    0  503  0.10786307045E+03 -0.30421441968E+02 -0.21218822451E+03  0.29526917995E+03  0.17204691193E+03 0.  0.
        -24    2    3    3    0    0 -0.13893833695E+02 -0.11748483322E+02 -0.10832478135E+03  0.13407635158E+03  0.76883966622E+02 0.  0.
          6    2    1    2  501    0 -0.10786307045E+03  0.30421441968E+02  0.37744538227E+02  0.21001749302E+03  0.17355918618E+03 0.  0.
         24    2    5    5    0    0 -0.37507855773E+02  0.46826529523E+02 -0.35916029535E+02  0.10673655396E+03  0.80642220094E+02 0.  0.
          5    1    5    5  501    0 -0.70355214672E+02 -0.16405087555E+02  0.73660567762E+02  0.10328093906E+03  0.47000000000E+01 0. -1.
        -13    1    6    6    0    0 -0.53876621639E+02  0.53662195988E+02 -0.12034846147E+02  0.76988045560E+02  0.00000000000E+00 0.  1.
         14    1    6    6    0    0  0.16368765865E+02 -0.68356664652E+01 -0.23881183388E+02  0.29748508399E+02  0.00000000000E+00 0. -1.
         -5    1    3    3    0  503  0.12175690414E+03 -0.18672958646E+02 -0.10386344317E+03  0.16119282837E+03  0.47000000000E+01 0.  1.
         11    1    4    4    0    0  0.20477102979E+01 -0.42165158287E+02 -0.42904230877E+02  0.60190254344E+02  0.00000000000E+00 0. -1.
        -12    1    4    4    0    0 -0.15941543993E+02  0.30416674965E+02 -0.65420550469E+02  0.73886097234E+02  0.00000000000E+00 0.  1.
</event>
<event>
12    1  0.8494789E-002  0.2327893E+03  0.7818608E-02  0.1125105E+00
         21   -1    0    0  501  502  0.00000000000E+00  0.00000000000E+00  0.38649259024E+03  0.38649259024E+03  0.00000000000E+00 0. -1.
         21   -1    0    0  502  503 -0.00000000000E+00 -0.00000000000E+00 -0.15093032779E+03  0.15093032779E+03  0.00000000000E+00 0. -1.
         -6    2    1    2    0  503 -0.15615570317E+03  0.96566692907E+01  0.41001335030E+02  0.23403404107E+03  0.16915368164E+03 0.  0.
        -24    2    3    3    0    0 -0.56270512766E+02  0.53759751489E+02 -0.16329732463E+01  0.11672288490E+03  0.86977490018E+02 0.  0.
          6    2    1    2  501    0  0.15615570317E+03 -0.96566692907E+01  0.19456092743E+03  0.30338887696E+03  0.17237459583E+03 0.  0.
         24    2    5    5    0    0  0.15159055453E+03  0.64388529464E+01  0.68223955059E+02  0.17586230324E+03  0.57025315478E+02 0.  0.
          5    1    5    5  501    0  0.45651486361E+01 -0.16095522237E+02  0.12633697237E+03  0.12752657372E+03  0.47000000000E+01 0. -1.
        -13    1    6    6    0    0  0.58144310542E+02  0.12720717772E+02 -0.78877209576E+00  0.59524781985E+02  0.00000000000E+00 0.  1.
         14    1    6    6    0    0  0.93446243989E+02 -0.62818648252E+01  0.69012727155E+02  0.11633752125E+03  0.00000000000E+00 0. -1.
         -5    1    3    3    0  503 -0.99885190401E+02 -0.44103082199E+02  0.42634308276E+02  0.11731115617E+03  0.47000000000E+01 0.  1.
         11    1    4    4    0    0 -0.96557494675E+00 -0.15454837498E+02 -0.20943686878E+02  0.26046542134E+02  0.00000000000E+00 0. -1.
        -12    1    4    4    0    0 -0.55304937819E+02  0.69214588987E+02  0.19310713632E+02  0.90676342763E+02  0.00000000000E+00 0.  1.
</event>
<event>
12    1  0.8494789E-002  0.1907210E+03  0.7818608E-02  0.1158002E+00
         21   -1    0    0  501  502  0.00000000000E+00  0.00000000000E+00  0.52767304417E+03  0.52767304417E+03  0.00000000000E+00 0. -1.
         21   -1    0    0  502  503 -0.00000000000E+00 -0.00000000000E+00 -0.14576699166E+03  0.14576699166E+03  0.00000000000E+00 0. -1.
         -6    2    1    2    0  503  0.70453018879E+02  0.38704399158E+02 -0.53793604972E+02  0.19816218373E+03  0.17295329064E+03 0.  0.
        -24    2    3    3    0    0  0.46971911609E+02  0.54822227137E+02 -0.98153969409E+02  0.14523696564E+03  0.79042630328E+02 0.  0.
          6    2    1    2  501    0 -0.70453018879E+02 -0.38704399158E+02  0.43569965748E+03  0.47527785210E+03  0.17202670370E+03 0.  0.
         24    2    5    5    0    0 -0.46981321909E+02  0.14877438227E+02  0.38948955900E+03  0.40058249041E+03  0.79596685107E+02 0.  0.
          5    1    5    5  501    0 -0.23471696970E+02 -0.53581837384E+02  0.46210098478E+02  0.74695361687E+02  0.47000000000E+01 0. -1.
        -13    1    6    6    0    0 -0.57184267002E+02  0.22003085466E+02  0.16938202044E+03  0.18012341606E+03  0.00000000000E+00 0.  1.
         14    1    6    6    0    0  0.10202945092E+02 -0.71256472390E+01  0.22010753856E+03  0.22045907436E+03  0.00000000000E+00 0. -1.
         -5    1    3    3    0  503  0.23481107271E+02 -0.16117827980E+02  0.44360364437E+02  0.52925218095E+02  0.47000000000E+01 0.  1.
         13    1    4    4    0    0  0.28047682488E+02  0.56338396594E+02 -0.21869392043E+02  0.66625503616E+02  0.00000000000E+00 0. -1.
        -14    1    4    4    0    0  0.18924229121E+02 -0.15161694570E+01 -0.76284577366E+02  0.78611462024E+02  0.00000000000E+00 0.  1.
</event>
<event>
12    1  0.8494789E-002  0.1885721E+03  0.7818608E-02  0.1159757E+00
         21   -1    0    0  503  502  0.00000000000E+00  0.00000000000E+00  0.21471681991E+03  0.21471681991E+03  0.00000000000E+00 0.  1.
         21   -1    0    0  501  503 -0.00000000000E+00 -0.00000000000E+00 -0.25003253194E+03  0.25003253194E+03  0.00000000000E+00 0.  1.
          6    2    1    2  501    0 -0.38474971038E+02  0.65750764070E+02 -0.15268781983E+03  0.24263760114E+03  0.17249912693E+03 0.  0.
         24    2    3    3    0    0 -0.33277790029E+02  0.91130316216E+02 -0.16970095330E+03  0.21129004832E+03  0.80205518049E+02 0.  0.
         -6    2    1    2    0  502  0.38474971038E+02 -0.65750764070E+02  0.11737210780E+03  0.22211175071E+03  0.17249328028E+03 0.  0.
        -24    2    5    5    0    0  0.61202042493E+02 -0.41912516316E+02  0.98753095012E+01  0.10958427195E+03  0.80055242744E+02 0.  0.
          5    1    3    3  501    0 -0.51971810092E+01 -0.25379552146E+02  0.17013133466E+02  0.31347552822E+02  0.47000000000E+01 0. -1.
        -11    1    4    4    0    0 -0.26090009134E+02  0.41659069146E+02 -0.14949754711E+03  0.15737116385E+03  0.00000000000E+00 0.  1.
         12    1    4    4    0    0 -0.71877808945E+01  0.49471247070E+02 -0.20203406184E+02  0.53918884468E+02  0.00000000000E+00 0. -1.
         -5    1    5    5    0  502 -0.22727071454E+02 -0.23838247754E+02  0.10749679830E+03  0.11252747877E+03  0.47000000000E+01 0.  1.
         11    1    6    6    0    0  0.79879307428E+01  0.23334173487E+02  0.55351762202E+01  0.25277042265E+02  0.00000000000E+00 0. -1.
        -12    1    6    6    0    0  0.53214111750E+02 -0.65246689803E+02  0.43401332810E+01  0.84307229681E+02  0.00000000000E+00 0.  1.
</event>
<event>
12    1  0.8494789E-002  0.2388694E+03  0.7818608E-02  0.1120928E+00
         21   -1    0    0  501  502  0.00000000000E+00  0.00000000000E+00  0.79330569981E+03  0.79330569981E+03  0.00000000000E+00 0. -1.
         21   -1    0    0  502  503 -0.00000000000E+00 -0.00000000000E+00 -0.85346564040E+02  0.85346564040E+02  0.00000000000E+00 0. -1.
         -6    2    1    2    0  503 -0.98282291530E+01 -0.16397189822E+03  0.53394001159E+03  0.58493636055E+03  0.17342212205E+03 0.  0.
        -24    2    3    3    0    0  0.22099591547E+02 -0.22865600552E+02  0.13335467709E+03  0.15900083350E+03  0.80539229687E+02 0.  0.
          6    2    1    2  501    0  0.98282291530E+01  0.16397189822E+03  0.17401912417E+03  0.29371590330E+03  0.17030266815E+03 0.  0.
         24    2    5    5    0    0 -0.65496264643E+01  0.22768126192E+02  0.11336861936E+03  0.13909600444E+03  0.77032262197E+02 0.  0.
          5    1    5    5  501    0  0.16377855617E+02  0.14120377203E+03  0.60650504815E+02  0.15461989886E+03  0.47000000000E+01 0. -1.
        -13    1    6    6    0    0  0.14874758709E+02  0.31196908887E+02  0.14326628015E+02  0.37413337743E+02  0.00000000000E+00 0.  1.
         14    1    6    6    0    0 -0.21424385173E+02 -0.84287826952E+01  0.99041991342E+02  0.10168266670E+03  0.00000000000E+00 0. -1.
         -5    1    3    3    0  503 -0.31927820700E+02 -0.14110629766E+03  0.40058533451E+03  0.42593552705E+03  0.47000000000E+01 0.  1.
         13    1    4    4    0    0  0.48957206690E+02 -0.14208205090E+02  0.11372107931E+03  0.12462409502E+03  0.00000000000E+00 0. -1.
        -14    1    4    4    0    0 -0.26857615143E+02 -0.86573954624E+01  0.19633597773E+02  0.34376738485E+02  0.00000000000E+00 0.  1.
</event>
<event>
12    1  0.8494789E-002  0.2740596E+03  0.7818608E-02  0.1099201E+00
         21   -1    0    0  501  502  0.00000000000E+00  0.00000000000E+00  0.52097813232E+03  0.52097813232E+03  0.00000000000E+00 0. -1.
         21   -1    0    0  502  503 -0.00000000000E+00 -0.00000000000E+00 -0.30266252834E+03  0.30266252834E+03  0.00000000000E+00 0.  1.
         -6    2    1    2    0  503  0.10634418930E+03 -0.18460773545E+03 -0.18978251548E+03  0.33205880306E+03  0.16987213697E+03 0.  0.
        -24    2    3    3    0    0  0.12012429783E+03 -0.81645309280E+02 -0.94013381318E+02  0.19069059711E+03  0.80178454102E+02 0.  0.
          6    2    1    2  501    0 -0.10634418930E+03  0.18460773545E+03  0.40809811945E+03  0.49158185760E+03  0.17239357597E+03 0.  0.
         24    2    5    5    0    0 -0.14552125791E+02  0.14312365954E+03  0.30840267081E+03  0.34977923436E+03  0.80852700298E+02 0.  0.
          5    1    5    5  501    0 -0.91792063506E+02  0.41484075918E+02  0.99695448650E+02  0.14180262324E+03  0.47000000000E+01 0. -1.
        -11    1    6    6    0    0  0.29208473889E+02  0.93599582836E+02  0.16615139099E+03  0.19292563744E+03  0.00000000000E+00 0.  1.
         12    1    6    6    0    0 -0.43760599680E+02  0.49524076700E+02  0.14225127982E+03  0.15685359692E+03  0.00000000000E+00 0. -1.
         -5    1    3    3    0  503 -0.13780108531E+02 -0.10296242618E+03 -0.95769134165E+02  0.14136820595E+03  0.47000000000E+01 0.  1.
         13    1    4    4    0    0 -0.54166757614E+01 -0.10965387315E+02  0.75926824464E+01  0.14395447961E+02  0.00000000000E+00 0. -1.
        -14    1    4    4    0    0  0.12554097359E+03 -0.70679921965E+02 -0.10160606376E+03  0.17629514915E+03  0.00000000000E+00 0.  1.
</event>
<event>
12    1  0.8494789E-002  0.2545611E+03  0.7818608E-02  0.1110548E+00
         21   -1    0    0  501  502  0.00000000000E+00  0.00000000000E+00  0.19836149792E+03  0.19836149792E+03  0.00000000000E+00 0.  1.
         21   -1    0    0  502  503 -0.00000000000E+00 -0.00000000000E+00 -0.53804662401E+03  0.53804662401E+03  0.00000000000E+00 0. -1.
         -6    2    1    2    0  503 -0.10426137410E+03 -0.15471966518E+03 -0.40115716735E+03  0.47510887914E+03  0.17318419442E+03 0.  0.
        -24    2    3    3    0    0 -0.10037122129E+03 -0.39937697917E+02 -0.17471340896E+03  0.22116223315E+03  0.81966800109E+02 0.  0.
          6    2    1    2  501    0  0.10426137410E+03  0.15471966518E+03  0.61472041265E+02  0.26129924278E+03  0.17230749693E+03 0.  0.
         24    2    5    5    0    0  0.10919179113E+03  0.16530854837E+03  0.88514829384E+02  0.23146912632E+03  0.80581126843E+02 0.  0.
          5    1    5    5  501    0 -0.49304170303E+01 -0.10588883185E+02 -0.27042788119E+02  0.29830116467E+02  0.47000000000E+01 0. -1.
        -11    1    6    6    0    0  0.36605209092E+01  0.73810173961E+02  0.36511819150E+02  0.82428478884E+02  0.00000000000E+00 0.  1.
         12    1    6    6    0    0  0.10553127022E+03  0.91498374404E+02  0.52003010235E+02  0.14904064743E+03  0.00000000000E+00 0. -1.
         -5    1    3    3    0  503 -0.38901528112E+01 -0.11478196726E+03 -0.22644375839E+03  0.25394664599E+03  0.47000000000E+01 0.  1.
         11    1    4    4    0    0 -0.18866288859E+02 -0.11492315837E+02 -0.11276575644E+03  0.11490920766E+03  0.00000000000E+00 0. -1.
        -12    1    4    4    0    0 -0.81504932433E+02 -0.28445382080E+02 -0.61947652522E+02  0.10625302549E+03  0.00000000000E+00 0.  1.
</event>
<event>
12    1  0.8494789E-002  0.1968148E+03  0.7818608E-02  0.1152521E+00
         21   -1    0    0  501  502  0.00000000000E+00  0.00000000000E+00  0.66097834583E+02  0.66097834583E+02  0.00000000000E+00 0.  1.
         21   -1    0    0  502  503 -0.00000000000E+00 -0.00000000000E+00 -0.10400499607E+04  0.10400499607E+04  0.00000000000E+00 0.  1.
         -6    2    1    2    0  503  0.65687893440E+02 -0.68801611970E+02 -0.85254661287E+03  0.87490036945E+03  0.17194873714E+03 0.  0.
        -24    2    3    3    0    0  0.15912178732E+02 -0.62204610556E+02 -0.77861769230E+03  0.78540893132E+03  0.80616794988E+02 0.  0.
          6    2    1    2  501    0 -0.65687893440E+02  0.68801611970E+02 -0.12140551325E+03  0.23124742583E+03  0.17230064466E+03 0.  0.
         24    2    5    5    0    0  0.57108609253E+01  0.50212688650E+02 -0.12510012378E+03  0.15722668319E+03  0.80723360317E+02 0.  0.
          5    1    5    5  501    0 -0.71398754365E+02  0.18588923320E+02  0.36946105314E+01  0.74020742647E+02  0.47000000000E+01 0. -1.
        -13    1    6    6    0    0 -0.37553834015E+02  0.23184447075E+02 -0.61448247755E+02  0.75655113426E+02  0.00000000000E+00 0.  1.
         14    1    6    6    0    0  0.43264694941E+02  0.27028241575E+02 -0.63651876029E+02  0.81571569759E+02  0.00000000000E+00 0. -1.
         -5    1    3    3    0  503  0.49775714708E+02 -0.65970014142E+01 -0.73928920566E+02  0.89491438129E+02  0.47000000000E+01 0.  1.
         11    1    4    4    0    0 -0.32137455364E+02 -0.30752414523E+02 -0.39905015142E+03  0.40152154411E+03  0.00000000000E+00 0. -1.
        -12    1    4    4    0    0  0.48049634095E+02 -0.31452196033E+02 -0.37956754088E+03  0.38388738721E+03  0.00000000000E+00 0.  1.
</event>
<event>
12    1  0.8494789E-002  0.1836867E+03  0.7818608E-02  0.1164474E+00
         21   -1    0    0  501  502  0.00000000000E+00  0.00000000000E+00  0.16106483381E+03  0.16106483381E+03  0.00000000000E+00 0. -1.
         21   -1    0    0  502  503 -0.00000000000E+00 -0.00000000000E+00 -0.58135417223E+03  0.58135417223E+03  0.00000000000E+00 0. -1.
         -6    2    1    2    0  503  0.56036509794E+02 -0.23497766491E+02 -0.50756983812E+03  0.53978508490E+03  0.17334521007E+03 0.  0.
        -24    2    3    3    0    0  0.13612386573E+02  0.22816544796E+02 -0.43732243147E+03  0.44543674204E+03  0.80356022185E+02 0.  0.
          6    2    1    2  501    0 -0.56036509794E+02  0.23497766491E+02  0.87280499709E+02  0.20263392114E+03  0.17248299889E+03 0.  0.
         24    2    5    5    0    0 -0.71246805658E+02  0.70772498781E+02  0.49280079511E+02  0.13992526664E+03  0.84057718909E+02 0.  0.
          5    1    5    5  501    0  0.15210295864E+02 -0.47274732290E+02  0.38000420198E+02  0.62708654496E+02  0.47000000000E+01 0. -1.
        -13    1    6    6    0    0 -0.33864453119E+02  0.70859200831E+02  0.58733005844E+00  0.78537713769E+02  0.00000000000E+00 0.  1.
         14    1    6    6    0    0 -0.37382352538E+02 -0.86702049834E-01  0.48692749452E+02  0.61387552873E+02  0.00000000000E+00 0. -1.
         -5    1    3    3    0  503  0.42424123221E+02 -0.46314311286E+02 -0.70247406646E+02  0.94348342866E+02  0.47000000000E+01 0.  1.
         11    1    4    4    0    0 -0.65651171246E+01 -0.13614179521E+02 -0.32957218467E+03  0.32991858322E+03  0.00000000000E+00 0. -1.
        -12    1    4    4    0    0  0.20177503697E+02  0.36430724317E+02 -0.10775024680E+03  0.11551815881E+03  0.00000000000E+00 0.  1.
</event>
<event>
12    1  0.8494789E-002  0.1968953E+03  0.7818608E-02  0.1153556E+00
         21   -1    0    0  503  502  0.00000000000E+00  0.00000000000E+00  0.13290529018E+03  0.13290529018E+03  0.00000000000E+00 0. -1.
         21   -1    0    0  501  503 -0.00000000000E+00 -0.00000000000E+00 -0.10405998266E+04  0.10405998266E+04  0.00000000000E+00 0. -1.
          6    2    1    2  501    0 -0.71940400997E+02  0.57000674039E+02 -0.95250738127E+03  0.97157454984E+03  0.16811393870E+03 0.  0.
         24    2    3    3    0    0 -0.60093254502E+02  0.66235268072E+02 -0.94764041018E+03  0.95510002361E+03  0.78710851296E+02 0.  0.
         -6    2    1    2    0  502  0.71940400997E+02 -0.57000674039E+02  0.44812844889E+02  0.20193056691E+03  0.17419318198E+03 0.  0.
        -24    2    5    5    0    0  0.91589629564E+02  0.12049672709E+02  0.11974844855E+02  0.12284537982E+03  0.80085801357E+02 0.  0.
          5    1    3    3  501    0 -0.11847146495E+02 -0.92345940333E+01 -0.48669710898E+01  0.16474526234E+02  0.47000000000E+01 0. -1.
        -11    1    4    4    0    0 -0.23272824176E+02 -0.99555531465E+01 -0.41578432845E+03  0.41655413234E+03  0.00000000000E+00 0.  1.
         12    1    4    4    0    0 -0.36820430326E+02  0.76190821219E+02 -0.53185608173E+03  0.53854589127E+03  0.00000000000E+00 0. -1.
         -5    1    5    5    0  502 -0.19649228567E+02 -0.69050346748E+02  0.32838000034E+02  0.79085187080E+02  0.47000000000E+01 0.  1.
         11    1    6    6    0    0  0.82271777730E+02 -0.11492211159E+02 -0.16551701303E+02  0.84703454145E+02  0.00000000000E+00 0. -1.
        -12    1    6    6    0    0  0.93178518339E+01  0.23541883868E+02  0.28526546158E+02  0.38141925680E+02  0.00000000000E+00 0.  1.
</event>
<event>
12    1  0.8494789E-002  0.1786808E+03  0.7818608E-02  0.1169222E+00
         21   -1    0    0  501  502  0.00000000000E+00  0.00000000000E+00  0.45493591134E+02  0.45493591134E+02  0.00000000000E+00 0. -1.
         21   -1    0    0  502  503 -0.00000000000E+00 -0.00000000000E+00 -0.10909113337E+04  0.10909113337E+04  0.00000000000E+00 0. -1.
         -6    2    1    2    0  503 -0.42953234525E+02 -0.16583202516E+02 -0.86249099626E+03  0.88069214436E+03  0.17206961253E+03 0.  0.
        -24    2    3    3    0    0 -0.71452462160E+02  0.26667004917E+02 -0.71463910116E+03  0.72395969940E+03  0.87132186677E+02 0.  0.
          6    2    1    2  501    0  0.42953234525E+02  0.16583202516E+02 -0.18292674635E+03  0.25571278051E+03  0.17264660039E+03 0.  0.
         24    2    5    5    0    0 -0.40749507332E+02  0.78708619490E+01 -0.12290401804E+03  0.15223876548E+03  0.79679177015E+02 0.  0.
          5    1    5    5  501    0  0.83702741857E+02  0.87123405674E+01 -0.60022728313E+02  0.10347401503E+03  0.47000000000E+01 0. -1.
        -13    1    6    6    0    0  0.89431228967E+01  0.90979362946E+01 -0.93746248486E+02  0.94610311262E+02  0.00000000000E+00 0.  1.
         14    1    6    6    0    0 -0.49692630228E+02 -0.12270743455E+01 -0.29157769553E+02  0.57628454220E+02  0.00000000000E+00 0. -1.
         -5    1    3    3    0  503  0.28499227635E+02 -0.43250207434E+02 -0.14785189510E+03  0.15673244496E+03  0.47000000000E+01 0.  1.
         11    1    4    4    0    0 -0.29535178919E+02 -0.27666542501E+02 -0.39319519011E+03  0.39527233889E+03  0.00000000000E+00 0. -1.
        -12    1    4    4    0    0 -0.41917283241E+02  0.54333547419E+02 -0.32144391105E+03  0.32868736051E+03  0.00000000000E+00 0.  1.
</event>
<event>
12    1  0.8494789E-002  0.2850644E+03  0.7818608E-02  0.1093083E+00
         21   -1    0    0  503  502  0.00000000000E+00  0.00000000000E+00  0.14476008530E+04  0.14476008530E+04  0.00000000000E+00 0. -1.
         21   -1    0    0  501  503 -0.00000000000E+00 -0.00000000000E+00 -0.98067154629E+02  0.98067154629E+02  0.00000000000E+00 0.  1.
          6    2    1    2  501    0 -0.12871544903E+02 -0.22624962277E+03  0.16892604871E+03  0.33135739442E+03  0.17293682208E+03 0.  0.
         24    2    3    3    0    0 -0.63569779007E+02 -0.16879797246E+03  0.85814269584E+02  0.21821738870E+03  0.87868467364E+02 0.  0.
         -6    2    1    2    0  502  0.12871544903E+02  0.22624962277E+03  0.11806076496E+04  0.12143106132E+04  0.17135131877E+03 0.  0.
        -24    2    5    5    0    0 -0.63243379257E+01  0.18708859288E+03  0.11251025381E+04  0.11435647611E+04  0.82719422027E+02 0.  0.
          5    1    3    3  501    0  0.50698234104E+02 -0.57451650311E+02  0.83111779125E+02  0.11314000572E+03  0.47000000000E+01 0. -1.
        -11    1    4    4    0    0 -0.15234516007E+02 -0.12617233055E+03  0.86561340468E+02  0.15376739946E+03  0.00000000000E+00 0.  1.
         12    1    4    4    0    0 -0.48335263001E+02 -0.42625641911E+02 -0.74707088328E+00  0.64449989236E+02  0.00000000000E+00 0. -1.
         -5    1    5    5    0  502  0.19195882829E+02  0.39161029888E+02  0.55505111551E+02  0.70745852089E+02  0.47000000000E+01 0.  1.
         13    1    6    6    0    0 -0.32754553585E+02  0.15059828718E+03  0.74307732264E+03  0.75889169999E+03  0.00000000000E+00 0. -1.
        -14    1    6    6    0    0  0.26430215659E+02  0.36490305697E+02  0.38202521545E+03  0.38467306112E+03  0.00000000000E+00 0.  1.
</event>
<event>
12    1  0.8494789E-002  0.2504099E+03  0.7818608E-02  0.1113095E+00
         21   -1    0    0  503  502  0.00000000000E+00  0.00000000000E+00  0.14162695114E+03  0.14162695114E+03  0.00000000000E+00 0.  1.
         21   -1    0    0  501  503 -0.00000000000E+00 -0.00000000000E+00 -0.51821933512E+03  0.51821933512E+03  0.00000000000E+00 0.  1.
          6    2    1    2  501    0  0.14735278349E+03  0.10555637273E+03 -0.31476360968E+03  0.40222036722E+03  0.17277182408E+03 0.  0.
         24    2    3    3    0    0  0.80023000454E+01  0.29998577555E+02 -0.93386731630E+02  0.12990189597E+03  0.84790739291E+02 0.  0.
         -6    2    1    2    0  502 -0.14735278349E+03 -0.10555637273E+03 -0.61828774297E+02  0.25762591904E+03  0.17231751566E+03 0.  0.
        -24    2    5    5    0    0 -0.67042724878E+02 -0.87869643989E+02  0.23841034798E+02  0.13878176866E+03  0.80474735657E+02 0.  0.
          5    1    3    3  501    0  0.13935048345E+03  0.75557795171E+02 -0.22137687805E+03  0.27231847125E+03  0.47000000000E+01 0. -1.
        -11    1    4    4    0    0  0.21940010070E+02  0.54215363163E+02 -0.79511023729E+02  0.98704977277E+02  0.00000000000E+00 0.  1.
         12    1    4    4    0    0 -0.13937710024E+02 -0.24216785608E+02 -0.13875707900E+02  0.31196918688E+02  0.00000000000E+00 0. -1.
         -5    1    5    5    0  502 -0.80310058614E+02 -0.17686728736E+02 -0.85669809095E+02  0.11884415037E+03  0.47000000000E+01 0.  1.
         13    1    6    6    0    0 -0.46026435862E+01  0.67014614324E+01 -0.16578601948E+02  0.18464667770E+02  0.00000000000E+00 0. -1.
        -14    1    6    6    0    0 -0.62440081292E+02 -0.94571105422E+02  0.40419636746E+02  0.12031710089E+03  0.00000000000E+00 0.  1.
</event>
<event>
12    1  0.8494789E-002  0.1848380E+03  0.7818608E-02  0.1163822E+00
         21   -1    0    0  501  502  0.00000000000E+00  0.00000000000E+00  0.34018007652E+03  0.34018007652E+03  0.00000000000E+00 0.  1.
         21   -1    0    0  502  503 -0.00000000000E+00 -0.00000000000E+00 -0.13181815854E+03  0.13181815854E+03  0.00000000000E+00 0. -1.
         -6    2    1    2    0  503  0.46659420382E+01 -0.57054576308E+02 -0.14122490414E+02  0.18275026713E+03  0.17297751215E+03 0.  0.
        -24    2    3    3    0    0 -0.20987854968E-01 -0.70360905142E+02 -0.68349549345E+02  0.12652136336E+03  0.79908304188E+02 0.  0.
          6    2    1    2  501    0 -0.46659420382E+01  0.57054576308E+02  0.22248440840E+03  0.28924796793E+03  0.17575004774E+03 0.  0.
         24    2    5    5    0    0 -0.22190636263E+02 -0.17088780170E+02  0.45536353509E+02  0.96538195617E+02  0.80384158742E+02 0.  0.
          5    1    5    5  501    0  0.17524694225E+02  0.74143356478E+02  0.17694805489E+03  0.19270977232E+03  0.47000000000E+01 0. -1.
        -13    1    6    6    0    0  0.23075966305E+02 -0.26401060641E+02  0.57012577155E+01  0.35524928760E+02  0.00000000000E+00 0.  1.
         14    1    6    6    0    0 -0.45266602569E+02  0.93122804707E+01  0.39835095793E+02  0.61013266857E+02  0.00000000000E+00 0. -1.
         -5    1    3    3    0  503  0.46869298932E+01  0.13306328834E+02  0.54227058931E+02  0.56228903770E+02  0.47000000000E+01 0.  1.
         11    1    4    4    0    0  0.21219761925E+02 -0.28102359690E+02 -0.70892500068E+02  0.79156601002E+02  0.00000000000E+00 0. -1.
        -12    1    4    4    0    0 -0.21240749780E+02 -0.42258545452E+02  0.25429507229E+01  0.47364762359E+02  0.00000000000E+00 0.  1.
</event>
<event>
12    1  0.8494789E-002  0.1891575E+03  0.7818608E-02  0.1159446E+00
         21   -1    0    0  503  502  0.00000000000E+00  0.00000000000E+00  0.64292456775E+03  0.64292456775E+03  0.00000000000E+00 0. -1.
         21   -1    0    0  501  503 -0.00000000000E+00 -0.00000000000E+00 -0.60387097428E+02  0.60387097428E+02  0.00000000000E+00 0. -1.
          6    2    1    2  501    0 -0.56937324999E+02 -0.52468821678E+02  0.18916260339E+03  0.26682069774E+03  0.17151081014E+03 0.  0.
         24    2    3    3    0    0  0.89428141487E+00  0.30172304995E+02  0.12640539623E+03  0.14793164203E+03  0.70670211471E+02 0.  0.
         -6    2    1    2    0  502  0.56937324999E+02  0.52468821678E+02  0.39337486693E+03  0.43649096743E+03  0.17258546432E+03 0.  0.
        -24    2    5    5    0    0  0.35678152674E+02  0.77090324396E+02  0.14524681602E+03  0.18619556106E+03  0.79726411565E+02 0.  0.
          5    1    3    3  501    0 -0.57831606414E+02 -0.82641126673E+02  0.62757207166E+02  0.11888905572E+03  0.47000000000E+01 0. -1.
        -13    1    4    4    0    0  0.22917137039E+02  0.44787294574E+02  0.86502295784E+02  0.10006869691E+03  0.00000000000E+00 0.  1.
         14    1    4    4    0    0 -0.22022855625E+02 -0.14614989579E+02  0.39903100442E+02  0.47862945116E+02  0.00000000000E+00 0. -1.
         -5    1    5    5    0  502  0.21259172326E+02 -0.24621502718E+02  0.24812805090E+03  0.25029540637E+03  0.47000000000E+01 0.  1.
         11    1    6    6    0    0  0.36449502459E+02  0.40438136659E+02  0.23943487223E+02  0.59473521052E+02  0.00000000000E+00 0. -1.
        -12    1    6    6    0    0 -0.77134978585E+00  0.36652187737E+02  0.12130332880E+03  0.12672204001E+03  0.00000000000E+00 0.  1.
</event>
<event>
12    1  0.8494789E-002  0.2377843E+03  0.7818608E-02  0.1121473E+00
         21   -1    0    0  503  502  0.00000000000E+00  0.00000000000E+00  0.47140685316E+03  0.47140685316E+03  0.00000000000E+00 0. -1.
         21   -1    0    0  501  503 -0.00000000000E+00 -0.00000000000E+00 -0.15970597037E+03  0.15970597037E+03  0.00000000000E+00 0.  1.
          6    2    1    2  501    0 -0.72729448761E+02 -0.14505655305E+03 -0.24727662161E+01  0.23779719222E+03  0.17381143159E+03 0.  0.
         24    2    3    3    0    0 -0.10903146473E+03 -0.11167950540E+03  0.28368173090E+02  0.17944381005E+03  0.83875833765E+02 0.  0.
         -6    2    1    2    0  502  0.72729448761E+02  0.14505655305E+03  0.31417364900E+03  0.39331563132E+03  0.17222406280E+03 0.  0.
        -24    2    5    5    0    0 -0.21255718233E+02  0.12904940042E+03  0.19371342966E+03  0.23962049478E+03  0.52797115284E+02 0.  0.
          5    1    3    3  501    0  0.36302015973E+02 -0.33377047650E+02 -0.30840939307E+02  0.58353382171E+02  0.47000000000E+01 0. -1.
        -13    1    4    4    0    0  0.30582708265E+01 -0.45295682052E+02  0.17728439504E+02  0.48737556363E+02  0.00000000000E+00 0.  1.
         14    1    4    4    0    0 -0.11208973556E+03 -0.66383823352E+02  0.10639733586E+02  0.13070625368E+03  0.00000000000E+00 0. -1.
         -5    1    5    5    0  502  0.93985166993E+02  0.16007152638E+02  0.12046021934E+03  0.15369513653E+03  0.47000000000E+01 0.  1.
         11    1    6    6    0    0  0.73882401069E+01  0.79261739445E+02  0.83674546481E+02  0.11549216060E+03  0.00000000000E+00 0. -1.
        -12    1    6    6    0    0 -0.28643958340E+02  0.49787660972E+02  0.11003888318E+03  0.12412833418E+03  0.00000000000E+00 0.  1.
</event>
<event>
12    1  0.8494789E-002  0.2600256E+03  0.7818608E-02  0.1107217E+00
         21   -1    0    0  503  502  0.00000000000E+00  0.00000000000E+00  0.33237348780E+03  0.33237348780E+03  0.00000000000E+00 0. -1.
         21   -1    0    0  501  503 -0.00000000000E+00 -0.00000000000E+00 -0.20350520166E+03  0.20350520166E+03  0.00000000000E+00 0. -1.
          6    2    1    2  501    0 -0.19484829565E+03  0.82602943533E+01  0.78206238496E+02  0.27096368457E+03  0.17108773140E+03 0.  0.
         24    2    3    3    0    0 -0.20329546358E+03  0.27081399588E+02  0.34313980476E+02  0.22223782940E+03  0.78420379024E+02 0.  0.
         -6    2    1    2    0  502  0.19484829565E+03 -0.82602943533E+01  0.50662047648E+02  0.26491500488E+03  0.17198612141E+03 0.  0.
        -24    2    5    5    0    0  0.17963584407E+03  0.42571777286E+02  0.62344917735E+02  0.21038155053E+03  0.79322855087E+02 0.  0.
          5    1    3    3  501    0  0.84471679236E+01 -0.18821105234E+02  0.43892258020E+02  0.48725855172E+02  0.47000000000E+01 0. -1.
        -11    1    4    4    0    0 -0.19688867768E+02 -0.21271741797E+02 -0.14952099974E+01  0.29023682847E+02  0.00000000000E+00 0.  1.
         12    1    4    4    0    0 -0.18360659581E+03  0.48353141384E+02  0.35809190474E+02  0.19321414656E+03  0.00000000000E+00 0. -1.
         -5    1    5    5    0  502  0.15212451588E+02 -0.50832071639E+02 -0.11682870087E+02  0.54533454355E+02  0.47000000000E+01 0.  1.
         11    1    6    6    0    0  0.85612698186E+02  0.30220815881E+02  0.70859737113E+02  0.11516915449E+03  0.00000000000E+00 0. -1.
        -12    1    6    6    0    0  0.94023145881E+02  0.12350961405E+02 -0.85148193775E+01  0.95212396031E+02  0.00000000000E+00 0.  1.
</event>
<event>
12    1  0.8494789E-002  0.1998333E+03  0.7818608E-02  0.1149987E+00
         21   -1    0    0  503  502  0.00000000000E+00  0.00000000000E+00  0.46132830938E+03  0.46132830938E+03  0.00000000000E+00 0.  1.
         21   -1    0    0  501  503 -0.00000000000E+00 -0.00000000000E+00 -0.11519521464E+03  0.11519521464E+03  0.00000000000E+00 0. -1.
          6    2    1    2  501    0 -0.67530986483E+02 -0.75832249418E+02  0.28964306516E+02  0.20192151388E+03  0.17211159905E+03 0.  0.
         24    2    3    3    0    0  0.59901587285E+01  0.14562733404E+02 -0.24228710552E+01  0.81157874362E+02  0.79578734980E+02 0.  0.
         -6    2    1    2    0  502  0.67530986483E+02  0.75832249418E+02  0.31716878823E+03  0.37460201014E+03  0.17152160677E+03 0.  0.
        -24    2    5    5    0    0  0.57878689580E+02 -0.16797949647E+02  0.18568079805E+03  0.21340429869E+03  0.86208596541E+02 0.  0.
          5    1    3    3  501    0 -0.73521145211E+02 -0.90394982823E+02  0.31387177571E+02  0.12076363951E+03  0.47000000000E+01 0. -1.
        -13    1    4    4    0    0  0.18777165327E+01 -0.32876588546E+02  0.37466579801E+01  0.33142621198E+02  0.00000000000E+00 0.  1.
         14    1    4    4    0    0  0.41124421958E+01  0.47439321951E+02 -0.61695290353E+01  0.48015253165E+02  0.00000000000E+00 0. -1.
         -5    1    5    5    0  502  0.96522969029E+01  0.92630199065E+02  0.13148799018E+03  0.16119771145E+03  0.47000000000E+01 0.  1.
         11    1    6    6    0    0  0.12451895794E+02 -0.45423983185E+02  0.11771426698E+03  0.12678736770E+03  0.00000000000E+00 0. -1.
        -12    1    6    6    0    0  0.45426793786E+02  0.28626033538E+02  0.67966531071E+02  0.86616930998E+02  0.00000000000E+00 0.  1.
</event>
<event>
12    1  0.8494789E-002  0.2252587E+03  0.7818608E-02  0.1130823E+00
         21   -1    0    0  501  502  0.00000000000E+00  0.00000000000E+00  0.33645089374E+03  0.33645089374E+03  0.00000000000E+00 0.  1.
         21   -1    0    0  502  503 -0.00000000000E+00 -0.00000000000E+00 -0.26169366777E+03  0.26169366777E+03  0.00000000000E+00 0. -1.
         -6    2    1    2    0  503  0.88733849047E+02  0.10771058753E+03 -0.15962900506E+03  0.27608496245E+03  0.17682256813E+03 0.  0.
        -24    2    3    3    0    0  0.11131529790E+03  0.10114503667E+03 -0.70927265620E+02  0.18419852782E+03  0.79227562466E+02 0.  0.
          6    2    1    2  501    0 -0.88733849047E+02 -0.10771058753E+03  0.23438623103E+03  0.32205959906E+03  0.17120225880E+03 0.  0.
         24    2    5    5    0    0  0.73631054186E+01 -0.23042371852E+02  0.14052778949E+03  0.16320485896E+03  0.79388917028E+02 0.  0.
          5    1    5    5  501    0 -0.96096954466E+02 -0.84668215681E+02  0.93858441535E+02  0.15885474010E+03  0.47000000000E+01 0. -1.
        -13    1    6    6    0    0 -0.21268684314E+02  0.95366077415E+01  0.10375749852E+03  0.10634341690E+03  0.00000000000E+00 0.  1.
         14    1    6    6    0    0  0.28631789733E+02 -0.32578979594E+02  0.36770290974E+02  0.56861442059E+02  0.00000000000E+00 0. -1.
         -5    1    3    3    0  503 -0.22581448848E+02  0.65655508678E+01 -0.88701739435E+02  0.91886434630E+02  0.47000000000E+01 0.  1.
         11    1    4    4    0    0  0.42997687748E+02  0.60347795028E+02 -0.73791993556E+02  0.10457492926E+03  0.00000000000E+00 0. -1.
        -12    1    4    4    0    0  0.68317610147E+02  0.40797241637E+02  0.28647279356E+01  0.79623598559E+02  0.00000000000E+00 0.  1.
</event>
<event>
12    1  0.8494789E-002  0.2392990E+03  0.7818608E-02  0.1120330E+00
         21   -1    0    0  501  502  0.00000000000E+00  0.00000000000E+00  0.82879820578E+03  0.82879820578E+03  0.00000000000E+00 0. -1.
         21   -1    0    0  502  503 -0.00000000000E+00 -0.00000000000E+00 -0.50907543464E+03  0.50907543464E+03  0.00000000000E+00 0. -1.
         -6    2    1    2    0  503  0.16392232682E+03 -0.26447585798E+02 -0.46212875759E+03  0.52022101613E+03  0.17174665353E+03 0.  0.
        -24    2    3    3    0    0  0.62895816259E+02  0.40645785840E+02 -0.15528181947E+03  0.19024372935E+03  0.80450416339E+02 0.  0.
          6    2    1    2  501    0 -0.16392232682E+03  0.26447585798E+02  0.78185152873E+03  0.81765262429E+03  0.17231946208E+03 0.  0.
         24    2    5    5    0    0 -0.91266474386E+02  0.16184089499E+02  0.68569087794E+03  0.69660233305E+03  0.80568829096E+02 0.  0.
          5    1    5    5  501    0 -0.72655852433E+02  0.10263496298E+02  0.96160650785E+02  0.12105029124E+03  0.47000000000E+01 0. -1.
        -13    1    6    6    0    0 -0.60827683973E+01 -0.16214827611E+02  0.30257981246E+02  0.34863535892E+02  0.00000000000E+00 0.  1.
         14    1    6    6    0    0 -0.85183705988E+02  0.32398917111E+02  0.65543289670E+03  0.66173879716E+03  0.00000000000E+00 0. -1.
         -5    1    3    3    0  503  0.10102651056E+03 -0.67093371637E+02 -0.30684693812E+03  0.32997728678E+03  0.47000000000E+01 0.  1.
         11    1    4    4    0    0  0.43370904105E+02  0.72289192604E+01 -0.14304858587E+03  0.14965356834E+03  0.00000000000E+00 0. -1.
        -12    1    4    4    0    0  0.19524912153E+02  0.33416866579E+02 -0.12233233599E+02  0.40590161010E+02  0.00000000000E+00 0.  1.
</event>
<event>
12    1  0.8494789E-002  0.2192227E+03  0.7818608E-02  0.1136616E+00
         21   -1    0    0  503  502  0.00000000000E+00  0.00000000000E+00  0.27261412051E+04  0.27261412051E+04  0.00000000000E+00 0.  1.
         21   -1    0    0  501  503 -0.00000000000E+00 -0.00000000000E+00 -0.22075826617E+02  0.22075826617E+02  0.00000000000E+00 0.  1.
          6    2    1    2  501    0 -0.13449256558E+03 -0.36671178577E+01  0.70356296756E+03  0.73692567993E+03  0.17308064731E+03 0.  0.
         24    2    3    3    0    0 -0.90484863096E+02  0.22252720483E+02  0.23470366960E+03  0.26526939917E+03  0.81236368671E+02 0.  0.
         -6    2    1    2    0  502  0.13449256558E+03  0.36671178577E+01  0.20005024109E+04  0.20112913518E+04  0.15868619255E+03 0.  0.
        -24    2    5    5    0    0  0.72676011814E+02 -0.26764131490E+02  0.68508935820E+03  0.69406664183E+03  0.79893386130E+02 0.  0.
          5    1    3    3  501    0 -0.44007702479E+02 -0.25919838341E+02  0.46885929796E+03  0.47165628076E+03  0.47000000000E+01 0. -1.
        -13    1    4    4    0    0 -0.76021379190E+02 -0.29147658801E+01  0.21989365455E+03  0.23268211205E+03  0.00000000000E+00 0.  1.
         14    1    4    4    0    0 -0.14463483906E+02  0.25167486363E+02  0.14810015050E+02  0.32587287128E+02  0.00000000000E+00 0. -1.
         -5    1    5    5    0  502  0.61816553761E+02  0.30431249348E+02  0.13154130527E+04  0.13172247099E+04  0.47000000000E+01 0.  1.
         13    1    6    6    0    0  0.28378398785E+02  0.24656344111E+02  0.14773460469E+03  0.15244271792E+03  0.00000000000E+00 0. -1.
        -14    1    6    6    0    0  0.44297613029E+02 -0.51420475602E+02  0.53735475351E+03  0.54162392391E+03  0.00000000000E+00 0.  1.
</event>
<event>
12    1  0.8494789E-002  0.2210833E+03  0.7818608E-02  0.1133479E+00
         21   -1    0    0  503  502  0.00000000000E+00  0.00000000000E+00  0.31859193116E+03  0.31859193116E+03  0.00000000000E+00 0. -1.
         21   -1    0    0  501  503 -0.00000000000E+00 -0.00000000000E+00 -0.19350713730E+03  0.19350713730E+03  0.00000000000E+00 0.  1.
          6    2    1    2  501    0 -0.12698964747E+03 -0.48479200191E+02 -0.56387555614E+02  0.22607452071E+03  0.17162030495E+03 0.  0.
         24    2    3    3    0    0 -0.10230774805E+03 -0.80889028672E+02 -0.86043351650E+02  0.17546672112E+03  0.79844859489E+02 0.  0.
         -6    2    1    2    0  502  0.12698964747E+03  0.48479200191E+02  0.18147234947E+03  0.28602454774E+03  0.17435947026E+03 0.  0.
        -24    2    5    5    0    0  0.67358131233E+02  0.95599867966E+02  0.92990447144E+02  0.16928804059E+03  0.79591235887E+02 0.  0.
          5    1    3    3  501    0 -0.24681899421E+02  0.32409828481E+02  0.29655796035E+02  0.50607799593E+02  0.47000000000E+01 0. -1.
        -11    1    4    4    0    0 -0.69455493182E+02 -0.12653451439E+02 -0.67104846223E+02  0.97402442234E+02  0.00000000000E+00 0.  1.
         12    1    4    4    0    0 -0.32852254869E+02 -0.68235577232E+02 -0.18938505426E+02  0.78064278886E+02  0.00000000000E+00 0. -1.
         -5    1    5    5    0  502  0.59631516239E+02 -0.47120667775E+02  0.88481902330E+02  0.11673650715E+03  0.47000000000E+01 0.  1.
         11    1    6    6    0    0  0.68564393417E+02  0.73517047026E+02  0.10394813934E+03  0.14460652793E+03  0.00000000000E+00 0. -1.
        -12    1    6    6    0    0 -0.12062621843E+01  0.22082820940E+02 -0.10957692195E+02  0.24681512664E+02  0.00000000000E+00 0.  1.
</event>
<event>
12    1  0.8494789E-002  0.1939299E+03  0.7818608E-02  0.1155610E+00
         21   -1    0    0  501  502  0.00000000000E+00  0.00000000000E+00  0.37404307307E+02  0.37404307307E+02  0.00000000000E+00 0. -1.
         21   -1    0    0  502  503 -0.00000000000E+00 -0.00000000000E+00 -0.10868019273E+04  0.10868019273E+04  0.00000000000E+00 0. -1.
         -6    2    1    2    0  503 -0.33944412812E+02 -0.76985600916E+02 -0.35365248036E+03  0.40193888583E+03  0.17148115106E+03 0.  0.
        -24    2    3    3    0    0 -0.25290152888E+00  0.17636368681E+02 -0.21317919804E+03  0.22918684356E+03  0.82280819909E+02 0.  0.
          6    2    1    2  501    0  0.33944412812E+02  0.76985600916E+02 -0.69574513966E+03  0.72226734881E+03  0.17472783945E+03 0.  0.
         24    2    5    5    0    0 -0.26550562211E+02  0.96187495282E+02 -0.51747200317E+03  0.53297457043E+03  0.79546540201E+02 0.  0.
          5    1    5    5  501    0  0.60494975023E+02 -0.19201894366E+02 -0.17827313649E+03  0.18929277837E+03  0.47000000000E+01 0. -1.
        -11    1    6    6    0    0 -0.28538100066E+02  0.40055813389E+01 -0.21022147815E+03  0.21218750603E+03  0.00000000000E+00 0.  1.
         12    1    6    6    0    0  0.19875378555E+01  0.92181913943E+02 -0.30725052502E+03  0.32078706441E+03  0.00000000000E+00 0. -1.
         -5    1    3    3    0  503 -0.33691511283E+02 -0.94621969597E+02 -0.14047328233E+03  0.17275204228E+03  0.47000000000E+01 0.  1.
         13    1    4    4    0    0 -0.32716559661E+02 -0.12372648231E+02 -0.57047675996E+02  0.66917060880E+02  0.00000000000E+00 0. -1.
        -14    1    4    4    0    0  0.32463658132E+02  0.30009016912E+02 -0.15613152204E+03  0.16226978268E+03  0.00000000000E+00 0.  1.
</event>
<event>
12    1  0.8494789E-002  0.2074905E+03  0.7818608E-02  0.1143665E+00
         21   -1    0    0  503  502  0.00000000000E+00  0.00000000000E+00  0.20256783183E+03  0.20256783183E+03  0.00000000000E+00 0. -1.
         21   -1    0    0  501  503 -0.00000000000E+00 -0.00000000000E+00 -0.31916656760E+03  0.31916656760E+03  0.00000000000E+00 0. -1.
          6    2    1    2  501    0 -0.10773389474E+03 -0.43322513247E+02 -0.20947526321E+03  0.29484262745E+03  0.17195597353E+03 0.  0.
         24    2    3    3    0    0 -0.39384620946E+02 -0.37434243217E+02 -0.20202810715E+03  0.22567728146E+03  0.84631012954E+02 0.  0.
         -6    2    1    2    0  502  0.10773389474E+03  0.43322513247E+02  0.92876527441E+02  0.22689177198E+03  0.17137792919E+03 0.  0.
        -24    2    5    5    0    0  0.79746257454E+02 -0.15361669817E+02 -0.17485944333E+00  0.11327930883E+03  0.78972936851E+02 0.  0.
          5    1    3    3  501    0 -0.68349273796E+02 -0.58882700296E+01 -0.74471560521E+01  0.69165345988E+02  0.47000000000E+01 0. -1.
        -13    1    4    4    0    0  0.19012218244E+02 -0.15878791015E+02 -0.15946308358E+02  0.29459891325E+02  0.00000000000E+00 0.  1.
         14    1    4    4    0    0 -0.58396839190E+02 -0.21555452202E+02 -0.18608179880E+03  0.19621739013E+03  0.00000000000E+00 0. -1.
         -5    1    5    5    0  502  0.27987637288E+02  0.58684183063E+02  0.93051386884E+02  0.11361246315E+03  0.47000000000E+01 0.  1.
         11    1    6    6    0    0  0.60948650419E+02  0.15427997627E+02 -0.26900024782E+02  0.68384007136E+02  0.00000000000E+00 0. -1.
        -12    1    6    6    0    0  0.18797607035E+02 -0.30789667444E+02  0.26725165338E+02  0.44895301690E+02  0.00000000000E+00 0.  1.
</event>
<event>
12    1  0.8494789E-002  0.1985696E+03  0.7818608E-02  0.1151012E+00
         21   -1    0    0  501  502  0.00000000000E+00  0.00000000000E+00  0.85375334696E+02  0.85375334696E+02  0.00000000000E+00 0. -1.
         21   -1    0    0  502  503 -0.00000000000E+00 -0.00000000000E+00 -0.46597514897E+03  0.46597514897E+03  0.00000000000E+00 0.  1.
         -6    2    1    2    0  503  0.10003431851E+03  0.79996437638E+01 -0.16219329447E+03  0.25617040347E+03  0.17101389319E+03 0.  0.
        -24    2    3    3    0    0  0.13108898883E+03 -0.83352450663E+01 -0.96726054172E+02  0.18174412657E+03  0.80132382235E+02 0.  0.
          6    2    1    2  501    0 -0.10003431851E+03 -0.79996437638E+01 -0.21840651981E+03  0.29518008020E+03  0.17134471883E+03 0.  0.
         24    2    5    5    0    0 -0.85072519384E+02 -0.17787186848E+02 -0.23984078280E+03  0.26687515020E+03  0.78390223420E+02 0.  0.
          5    1    5    5  501    0 -0.14961799121E+02  0.97875430844E+01  0.21434262988E+02  0.28304930002E+02  0.47000000000E+01 0. -1.
        -11    1    6    6    0    0 -0.69107204778E+02 -0.44182154217E+02 -0.13873787100E+03  0.16117091969E+03  0.00000000000E+00 0.  1.
         12    1    6    6    0    0 -0.15965314606E+02  0.26394967369E+02 -0.10110291180E+03  0.10570423051E+03  0.00000000000E+00 0. -1.
         -5    1    3    3    0  503 -0.31054670326E+02  0.16334888830E+02 -0.65467240293E+02  0.74426276903E+02  0.47000000000E+01 0.  1.
         11    1    4    4    0    0  0.74015000382E+02 -0.13230492245E+02 -0.72967049374E+01  0.75541433065E+02  0.00000000000E+00 0. -1.
        -12    1    4    4    0    0  0.57073988449E+02  0.48952471786E+01 -0.89429349235E+02  0.10620269350E+03  0.00000000000E+00 0.  1.
</event>
<event>
12    1  0.8494789E-002  0.2067362E+03  0.7818608E-02  0.1144262E+00
         21   -1    0    0  501  502  0.00000000000E+00  0.00000000000E+00  0.54939538340E+02  0.54939538340E+02  0.00000000000E+00 0. -1.
         21   -1    0    0  502  503 -0.00000000000E+00 -0.00000000000E+00 -0.10870055438E+04  0.10870055438E+04  0.00000000000E+00 0. -1.
         -6    2    1    2    0  503 -0.44457027152E+02 -0.10270221780E+03 -0.82089073006E+03  0.84642040118E+03  0.17332550886E+03 0.  0.
        -24    2    3    3    0    0 -0.58154258408E+02 -0.13161002889E+03 -0.55313068056E+03  0.57671535896E+03  0.77096939071E+02 0.  0.
          6    2    1    2  501    0  0.44457027152E+02  0.10270221780E+03 -0.21117527535E+03  0.29552468091E+03  0.17382654373E+03 0.  0.
         24    2    5    5    0    0  0.32019783810E+02  0.12353331532E+03 -0.92514525458E+02  0.17431790218E+03  0.74444926292E+02 0.  0.
          5    1    5    5  501    0  0.12437243342E+02 -0.20831097521E+02 -0.11866074989E+03  0.12120677873E+03  0.47000000000E+01 0. -1.
        -13    1    6    6    0    0  0.10358196882E+02  0.17397018072E+02  0.12213560374E+02  0.23645708648E+02  0.00000000000E+00 0.  1.
         14    1    6    6    0    0  0.21661586928E+02  0.10613629725E+03 -0.10472808583E+03  0.15067219353E+03  0.00000000000E+00 0. -1.
         -5    1    3    3    0  503  0.13697231256E+02  0.28907811083E+02 -0.26776004950E+03  0.26970504221E+03  0.47000000000E+01 0.  1.
         11    1    4    4    0    0  0.12007634463E+02 -0.66287857731E+02 -0.22517474960E+03  0.23503602112E+03  0.00000000000E+00 0. -1.
        -12    1    4    4    0    0 -0.70161892871E+02 -0.65322171154E+02 -0.32795593096E+03  0.34167933785E+03  0.00000000000E+00 0.  1.
</event>
<event>
12    1  0.8494789E-002  0.3054462E+03  0.7818608E-02  0.1082651E+00
         21   -1    0    0  501  502  0.00000000000E+00  0.00000000000E+00  0.47782952396E+02  0.47782952396E+02  0.00000000000E+00 0.  1.
         21   -1    0    0  502  503 -0.00000000000E+00 -0.00000000000E+00 -0.20266037384E+04  0.20266037384E+04  0.00000000000E+00 0. -1.
         -6    2    1    2    0  503  0.15883941331E+03  0.19512819582E+03 -0.78540587282E+03  0.84270978088E+03  0.17318319117E+03 0.  0.
        -24    2    3    3    0    0  0.53367354797E+01  0.49931239079E+02 -0.26475371438E+03  0.28079698655E+03  0.78935473601E+02 0.  0.
          6    2    1    2  501    0 -0.15883941331E+03 -0.19512819582E+03 -0.11934149132E+04  0.12316769099E+04  0.17170871669E+03 0.  0.
         24    2    5    5    0    0 -0.17552331054E+03 -0.17707072415E+03 -0.11637577081E+04  0.11928688628E+04  0.80259870026E+02 0.  0.
          5    1    5    5  501    0  0.16683897224E+02 -0.18057471671E+02 -0.29657205121E+02  0.38808047172E+02  0.47000000000E+01 0. -1.
        -13    1    6    6    0    0 -0.29924595640E+02 -0.10891666376E+02 -0.68385278364E+02  0.75436437599E+02  0.00000000000E+00 0.  1.
         14    1    6    6    0    0 -0.14559871490E+03 -0.16617905778E+03 -0.10953724297E+04  0.11174324252E+04  0.00000000000E+00 0. -1.
         -5    1    3    3    0  503  0.15350267783E+03  0.14519695674E+03 -0.52065215844E+03  0.56191279434E+03  0.47000000000E+01 0.  1.
         13    1    4    4    0    0  0.18678688234E+02  0.64835981496E+02 -0.23807506634E+03  0.24745168236E+03  0.00000000000E+00 0. -1.
        -14    1    4    4    0    0 -0.13341952754E+02 -0.14904742418E+02 -0.26678648046E+02  0.33345304188E+02  0.00000000000E+00 0.  1.
</event>
<event>
12    1  0.8494789E-002  0.1849688E+03  0.7818608E-02  0.1163416E+00
         21   -1    0    0  501  502  0.00000000000E+00  0.00000000000E+00  0.91390502499E+02  0.91390502499E+02  0.00000000000E+00 0. -1.
         21   -1    0    0  502  503 -0.00000000000E+00 -0.00000000000E+00 -0.71109216028E+03  0.71109216028E+03  0.00000000000E+00 0. -1.
         -6    2    1    2    0  503  0.34168637556E+02 -0.56266574721E+02 -0.58777986893E+03  0.61619689586E+03  0.17285837243E+03 0.  0.
        -24    2    3    3    0    0  0.39477207956E+01  0.27293950970E+02 -0.17933413133E+03  0.19817096864E+03  0.79689760266E+02 0.  0.
          6    2    1    2  501    0 -0.34168637556E+02  0.56266574721E+02 -0.31921788851E+02  0.18628576692E+03  0.17131830939E+03 0.  0.
         24    2    5    5    0    0 -0.72896788262E+02  0.15019618571E+02 -0.58088459811E+02  0.12377204269E+03  0.80035733935E+02 0.  0.
          5    1    5    5  501    0  0.38728150706E+02  0.41246956150E+02  0.26166670961E+02  0.62513724237E+02  0.47000000000E+01 0. -1.
        -13    1    6    6    0    0 -0.75206562994E+02  0.19099990874E+02 -0.13284034207E+02  0.78722946677E+02  0.00000000000E+00 0.  1.
         14    1    6    6    0    0  0.23097747319E+01 -0.40803723031E+01 -0.44804425605E+02  0.45049096009E+02  0.00000000000E+00 0. -1.
         -5    1    3    3    0  503  0.30220916760E+02 -0.83560525692E+02 -0.40844573760E+03  0.41802592722E+03  0.47000000000E+01 0.  1.
         13    1    4    4    0    0  0.16322569784E+02 -0.24587798320E+02 -0.82489703020E+02  0.87610143333E+02  0.00000000000E+00 0. -1.
        -14    1    4    4    0    0 -0.12374848989E+02  0.51881749290E+02 -0.96844428313E+02  0.11056082531E+03  0.00000000000E+00 0.  1.
</event>
<event>
12    1  0.8494789E-002  0.2892680E+03  0.7818608E-02  0.1090896E+00
         21   -1    0    0  501  502  0.00000000000E+00  0.00000000000E+00  0.89207997825E+02  0.89207997825E+02  0.00000000000E+00 0.  1.
         21   -1    0    0  502  503 -0.00000000000E+00 -0.00000000000E+00 -0.95077479070E+03  0.95077479070E+03  0.00000000000E+00 0. -1.
         -6    2    1    2    0  503  0.75597168804E+02 -0.21910542109E+03 -0.36251131484E+03  0.46377845328E+03  0.17307190083E+03 0.  0.
        -24    2    3    3    0    0  0.11962396017E+03 -0.15558858757E+03 -0.26606950418E+03  0.34010202326E+03  0.79741486952E+02 0.  0.
          6    2    1    2  501    0 -0.75597168804E+02  0.21910542109E+03 -0.49905547803E+03  0.57620433524E+03  0.17097645544E+03 0.  0.
         24    2    5    5    0    0 -0.83424232064E+02  0.19044388952E+03 -0.49833846765E+03  0.54611529379E+03  0.81683586030E+02 0.  0.
          5    1    5    5  501    0  0.78270632599E+01  0.28661531573E+02 -0.71701038421E+00  0.30089041448E+02  0.47000000000E+01 0. -1.
        -13    1    6    6    0    0 -0.90633340113E+02  0.15018195182E+03 -0.34003621449E+03  0.38261422890E+03  0.00000000000E+00 0.  1.
         14    1    6    6    0    0  0.72091080486E+01  0.40261937699E+02 -0.15830225316E+03  0.16350106489E+03  0.00000000000E+00 0. -1.
         -5    1    3    3    0  503 -0.44026791370E+02 -0.63516833520E+02 -0.96441810665E+02  0.12367643002E+03  0.47000000000E+01 0.  1.
         13    1    4    4    0    0  0.42420335366E+02 -0.93506169204E+02 -0.18705031426E+03  0.21337925999E+03  0.00000000000E+00 0. -1.
        -14    1    4    4    0    0  0.77203624808E+02 -0.62082418370E+02 -0.79019189921E+02  0.12672276327E+03  0.00000000000E+00 0.  1.
</event>
<event>
12    1  0.8494789E-002  0.1738158E+03  0.7818608E-02  0.1174315E+00
         21   -1    0    0  501  502  0.00000000000E+00  0.00000000000E+00  0.31733717441E+04  0.31733717441E+04  0.00000000000E+00 0.  1.
         21   -1    0    0  502  503 -0.00000000000E+00 -0.00000000000E+00 -0.12109929005E+02  0.12109929005E+02  0.00000000000E+00 0.  1.
         -6    2    1    2    0  503 -0.13875602399E+02 -0.39746504240E+01  0.83777453267E+03  0.85561562387E+03  0.17321546709E+03 0.  0.
        -24    2    3    3    0    0 -0.42902588369E+01  0.29304577463E+02  0.20512188317E+03  0.22199834922E+03  0.79568307260E+02 0.  0.
          6    2    1    2  501    0  0.13875602399E+02  0.39746504240E+01  0.23234872824E+04  0.23298660492E+04  0.17168088298E+03 0.  0.
         24    2    5    5    0    0 -0.78889849468E+00  0.13560068164E+02  0.22926793303E+04  0.22941148572E+04  0.79999803073E+02 0.  0.
          5    1    5    5  501    0  0.14664500894E+02 -0.95854177399E+01  0.30807952127E+02  0.35751192063E+02  0.47000000000E+01 0. -1.
        -13    1    6    6    0    0 -0.26979271910E+02  0.35565328710E+02  0.15582680863E+04  0.15589073746E+04  0.00000000000E+00 0.  1.
         14    1    6    6    0    0  0.26190373415E+02 -0.22005260547E+02  0.73441124397E+03  0.73520748257E+03  0.00000000000E+00 0. -1.
         -5    1    3    3    0  503 -0.95853435620E+01 -0.33279227887E+02  0.63265264950E+03  0.63361727466E+03  0.47000000000E+01 0.  1.
         13    1    4    4    0    0 -0.17354184129E+02 -0.19053734874E+02  0.12405569817E+03  0.12670449388E+03  0.00000000000E+00 0. -1.
        -14    1    4    4    0    0  0.13063925293E+02  0.48358312338E+02  0.81066184994E+02  0.95293855341E+02  0.00000000000E+00 0.  1.
</event>
<event>
12    1  0.8494789E-002  0.2017698E+03  0.7818608E-02  0.1148451E+00
         21   -1    0    0  503  502  0.00000000000E+00  0.00000000000E+00  0.22049040750E+03  0.22049040750E+03  0.00000000000E+00 0. -1.
         21   -1    0    0  501  503 -0.00000000000E+00 -0.00000000000E+00 -0.23658435337E+03  0.23658435337E+03  0.00000000000E+00 0. -1.
          6    2    1    2  501    0 -0.19018782903E+02  0.10287022735E+03 -0.11603131215E+03  0.23275377631E+03  0.17253132240E+03 0.  0.
         24    2    3    3    0    0 -0.57513769693E+02  0.47475733155E+02 -0.15223285866E+02  0.11136694770E+03  0.81296184815E+02 0.  0.
         -6    2    1    2    0  502  0.19018782903E+02 -0.10287022735E+03  0.99937366282E+02  0.22432098455E+03  0.17143053740E+03 0.  0.
        -24    2    5    5    0    0 -0.51330879790E+02 -0.66981641771E+02  0.86213128518E+02  0.14402459411E+03  0.78670074522E+02 0.  0.
          5    1    3    3  501    0  0.38494986790E+02  0.55394494197E+02 -0.10080802629E+03  0.12138682861E+03  0.47000000000E+01 0. -1.
        -13    1    4    4    0    0 -0.46764038073E+02 -0.71504771584E+01 -0.26987081957E+02  0.54463815263E+02  0.00000000000E+00 0.  1.
         14    1    4    4    0    0 -0.10749731620E+02  0.54626210313E+02  0.11763796091E+02  0.56903132441E+02  0.00000000000E+00 0. -1.
         -5    1    5    5    0  502  0.70349662693E+02 -0.35888585581E+02  0.13724237764E+02  0.80296390444E+02  0.47000000000E+01 0.  1.
         11    1    6    6    0    0  0.17306908856E+02 -0.17923458392E+02  0.41847837902E+02  0.48703398156E+02  0.00000000000E+00 0. -1.
        -12    1    6    6    0    0 -0.68637788646E+02 -0.49058183379E+02  0.44365290615E+02  0.95321195954E+02  0.00000000000E+00 0.  1.
</event>
<event>
12    1  0.8494789E-002  0.2035379E+03  0.7818608E-02  0.1146805E+00
         21   -1    0    0  501  502  0.00000000000E+00  0.00000000000E+00  0.74772749825E+02  0.74772749825E+02  0.00000000000E+00 0. -1.
         21   -1    0    0  502  503 -0.00000000000E+00 -0.00000000000E+00 -0.69445063127E+03  0.69445063127E+03  0.00000000000E+00 0.  1.
         -6    2    1    2    0  503 -0.84055715672E+02  0.71822773139E+02 -0.48296903493E+03  0.52410567120E+03  0.17089116949E+03 0.  0.
        -24    2    3    3    0    0 -0.11137258449E+03  0.34058053468E+02 -0.43432893774E+03  0.45657542296E+03  0.79092901755E+02 0.  0.
          6    2    1    2  501    0  0.84055715672E+02 -0.71822773139E+02 -0.13670884652E+03  0.24511770989E+03  0.17079083379E+03 0.  0.
         24    2    5    5    0    0  0.27873652536E+01  0.52399065725E+01 -0.64105902696E+02  0.11156442900E+03  0.91114373358E+02 0.  0.
          5    1    5    5  501    0  0.81268350418E+02 -0.77062679711E+02 -0.72602943819E+02  0.13355328088E+03  0.47000000000E+01 0. -1.
        -13    1    6    6    0    0  0.26805462139E+02  0.33030655192E+02 -0.61959147181E+01  0.42987746418E+02  0.00000000000E+00 0.  1.
         14    1    6    6    0    0 -0.24018096886E+02 -0.27790748619E+02 -0.57909987978E+02  0.68576682586E+02  0.00000000000E+00 0. -1.
         -5    1    3    3    0  503  0.27316868819E+02  0.37764719670E+02 -0.48640097189E+02  0.67530248248E+02  0.47000000000E+01 0.  1.
         13    1    4    4    0    0 -0.32637614770E+01  0.28701073649E+02 -0.55247555319E+02  0.62343372834E+02  0.00000000000E+00 0. -1.
        -14    1    4    4    0    0 -0.10810882301E+03  0.53569798190E+01 -0.37908138242E+03  0.39423205012E+03  0.00000000000E+00 0.  1.
</event>
<event>
12    1  0.8494789E-002  0.1902366E+03  0.7818608E-02  0.1158583E+00
         21   -1    0    0  503  502  0.00000000000E+00  0.00000000000E+00  0.13860359524E+03  0.13860359524E+03  0.00000000000E+00 0. -1.
         21   -1    0    0  501  503 -0.00000000000E+00 -0.00000000000E+00 -0.58324581733E+03  0.58324581733E+03  0.00000000000E+00 0. -1.
          6    2    1    2  501    0  0.37705949223E+02 -0.68150367959E+02 -0.49101199252E+03  0.52604311942E+03  0.17193712639E+03 0.  0.
         24    2    3    3    0    0  0.51881602503E+02  0.13799312225E+02 -0.18079083186E+03  0.20483297364E+03  0.79931849166E+02 0.  0.
         -6    2    1    2    0  502 -0.37705949223E+02  0.68150367959E+02  0.46369770429E+02  0.19580629314E+03  0.17356191277E+03 0.  0.
        -24    2    5    5    0    0  0.39599348843E+02  0.67092603998E+02  0.14147949721E+02  0.11191610478E+03  0.79091871187E+02 0.  0.
          5    1    3    3  501    0 -0.14175653280E+02 -0.81949680184E+02 -0.31022116066E+03  0.32121014578E+03  0.47000000000E+01 0. -1.
        -13    1    4    4    0    0  0.36203205262E+02 -0.23580546211E+02 -0.42043296036E+02  0.60285595065E+02  0.00000000000E+00 0.  1.
         14    1    4    4    0    0  0.15678397241E+02  0.37379858436E+02 -0.13874753582E+03  0.14454737858E+03  0.00000000000E+00 0. -1.
         -5    1    5    5    0  502 -0.77305298066E+02  0.10577639608E+01  0.32221820708E+02  0.83890188362E+02  0.47000000000E+01 0.  1.
         11    1    6    6    0    0  0.16972519553E+02  0.41276156599E+02  0.46708004506E+02  0.64602052665E+02  0.00000000000E+00 0. -1.
        -12    1    6    6    0    0  0.22626829290E+02  0.25816447399E+02 -0.32560054785E+02  0.47314052116E+02  0.00000000000E+00 0.  1.
</event>
<event>
12    1  0.8494789E-002  0.2052060E+03  0.7818608E-02  0.1145780E+00
         21   -1    0    0  501  502  0.00000000000E+00  0.00000000000E+00  0.82375136888E+03  0.82375136888E+03  0.00000000000E+00 0.  1.
         21   -1    0    0  502  503 -0.00000000000E+00 -0.00000000000E+00 -0.52909064649E+02  0.52909064649E+02  0.00000000000E+00 0.  1.
         -6    2    1    2    0  503 -0.70878122822E+02 -0.86006327093E+02  0.29389877782E+03  0.35744504979E+03  0.17020480435E+03 0.  0.
        -24    2    3    3    0    0 -0.98879559651E+02 -0.88363477728E+02  0.29016876639E+03  0.32871110456E+03  0.79169474918E+02 0.  0.
          6    2    1    2  501    0  0.70878122822E+02  0.86006327093E+02  0.47694352641E+03  0.51921538373E+03  0.17230406474E+03 0.  0.
         24    2    5    5    0    0 -0.22281911484E+02  0.68571793366E+02  0.20592662951E+03  0.23206559118E+03  0.79057494543E+02 0.  0.
          5    1    5    5  501    0  0.93160034306E+02  0.17434533727E+02  0.27101689690E+03  0.28714979255E+03  0.47000000000E+01 0. -1.
        -13    1    6    6    0    0  0.11855863155E+02  0.38194892254E+02  0.16795829983E+03  0.17265399435E+03  0.00000000000E+00 0.  1.
         14    1    6    6    0    0 -0.34137774640E+02  0.30376901112E+02  0.37968329682E+02  0.59411596825E+02  0.00000000000E+00 0. -1.
         -5    1    3    3    0  503  0.28001436829E+02  0.23571506346E+01  0.37300114319E+01  0.28733945237E+02  0.47000000000E+01 0.  1.
         13    1    4    4    0    0 -0.19668464589E+02 -0.70092621506E+01  0.13405390508E+03  0.13567029050E+03  0.00000000000E+00 0. -1.
        -14    1    4    4    0    0 -0.79211095062E+02 -0.81354215577E+02  0.15611486131E+03  0.19304081406E+03  0.00000000000E+00 0.  1.
</event>
<event>
12    1  0.8494789E-002  0.2413629E+03  0.7818608E-02  0.1119599E+00
         21   -1    0    0  501  502  0.00000000000E+00  0.00000000000E+00  0.75370888595E+03  0.75370888595E+03  0.00000000000E+00 0. -1.
         21   -1    0    0  502  503 -0.00000000000E+00 -0.00000000000E+00 -0.12119606897E+03  0.12119606897E+03  0.00000000000E+00 0. -1.
         -6    2    1    2    0  503  0.15527668510E+03  0.51212687191E+02  0.50696768414E+02  0.24662969990E+03  0.17754565125E+03 0.  0.
        -24    2    3    3    0    0  0.71648530867E+02 -0.60650898375E+01  0.88083019951E+02  0.13848981953E+03  0.79060194911E+02 0.  0.
          6    2    1    2  501    0 -0.15527668510E+03 -0.51212687191E+02  0.58181604857E+03  0.62827525503E+03  0.17171573441E+03 0.  0.
         24    2    5    5    0    0 -0.14422862530E+03 -0.36615091076E+02  0.58445639377E+03  0.60919094575E+03  0.85917232908E+02 0.  0.
          5    1    5    5  501    0 -0.11048059804E+02 -0.14597596115E+02 -0.26403452066E+01  0.19084309277E+02  0.47000000000E+01 0. -1.
        -11    1    6    6    0    0 -0.10024755100E+03 -0.64870047718E+02  0.41785171263E+03  0.43457766661E+03  0.00000000000E+00 0.  1.
         12    1    6    6    0    0 -0.43981074300E+02  0.28254956642E+02  0.16660468115E+03  0.17461327914E+03  0.00000000000E+00 0. -1.
         -5    1    3    3    0  503  0.83628154238E+02  0.57277777028E+02 -0.37386251536E+02  0.10813988037E+03  0.47000000000E+01 0.  1.
         13    1    4    4    0    0  0.62661682860E+02  0.22135778189E+02  0.86183857840E+02  0.10883077013E+03  0.00000000000E+00 0. -1.
        -14    1    4    4    0    0  0.89868480073E+01 -0.28200868026E+02  0.18991621109E+01  0.29659049399E+02  0.00000000000E+00 0.  1.
</event>
<event>
12    1  0.8494789E-002  0.2468581E+03  0.7818608E-02  0.1115549E+00
         21   -1    0    0  501  502  0.00000000000E+00  0.00000000000E+00  0.44696590852E+03  0.44696590852E+03  0.00000000000E+00 0. -1.
         21   -1    0    0  502  503 -0.00000000000E+00 -0.00000000000E+00 -0.15169813196E+03  0.15169813196E+03  0.00000000000E+00 0. -1.
         -6    2    1    2    0  503  0.76104215231E+02 -0.15650066871E+03  0.49452460991E+02  0.25029056636E+03  0.17296100956E+03 0.  0.
        -24    2    3    3    0    0  0.50216789088E+02 -0.17527332876E+03  0.11114371350E+02  0.20014606801E+03  0.81807417812E+02 0.  0.
          6    2    1    2  501    0 -0.76104215231E+02  0.15650066871E+03  0.24581531556E+03  0.34837347412E+03  0.17508454308E+03 0.  0.
         24    2    5    5    0    0  0.17464700634E+02  0.11138424534E+03  0.17970591382E+03  0.22515344056E+03  0.75421419067E+02 0.  0.
          5    1    5    5  501    0 -0.93568915865E+02  0.45116423373E+02  0.66109401741E+02  0.12322003357E+03  0.47000000000E+01 0. -1.
        -13    1    6    6    0    0  0.27475543386E+02  0.71923463299E+02  0.56790680927E+02  0.95671685976E+02  0.00000000000E+00 0.  1.
         14    1    6    6    0    0 -0.10010842751E+02  0.39460782038E+02  0.12291523289E+03  0.12948175458E+03  0.00000000000E+00 0. -1.
         -5    1    3    3    0  503  0.25887426142E+02  0.18772660046E+02  0.38338089641E+02  0.50144498350E+02  0.47000000000E+01 0.  1.
         13    1    4    4    0    0  0.55776012369E+02 -0.12557370424E+03  0.39073897289E+02  0.14285128002E+03  0.00000000000E+00 0. -1.
        -14    1    4    4    0    0 -0.55592232811E+01 -0.49699624511E+02 -0.27959525939E+02  0.57294787990E+02  0.00000000000E+00 0.  1.
</event>
<event>
12    1  0.8494789E-002  0.1944063E+03  0.7818608E-02  0.1154767E+00
         21   -1    0    0  501  502  0.00000000000E+00  0.00000000000E+00  0.71098747859E+03  0.71098747859E+03  0.00000000000E+00 0. -1.
         21   -1    0    0  502  503 -0.00000000000E+00 -0.00000000000E+00 -0.55511344305E+02  0.55511344305E+02  0.00000000000E+00 0.  1.
         -6    2    1    2    0  503 -0.22897341777E+02 -0.84691408132E+02  0.24513319909E+03  0.31286432745E+03  0.17348452156E+03 0.  0.
        -24    2    3    3    0    0  0.47244421539E+02 -0.54028061211E+02  0.86924147470E+02  0.13704538131E+03  0.77939478834E+02 0.  0.
          6    2    1    2  501    0  0.22897341777E+02  0.84691408132E+02  0.41034293520E+03  0.45363449545E+03  0.17235430985E+03 0.  0.
         24    2    5    5    0    0  0.20703515678E+02 -0.20828971888E+02  0.15480283486E+03  0.17711650987E+03  0.80894120641E+02 0.  0.
          5    1    5    5  501    0  0.21938260990E+01  0.10552038002E+03  0.25554010033E+03  0.27651798558E+03  0.47000000000E+01 0. -1.
        -11    1    6    6    0    0  0.23702039542E+02  0.26874462373E+02  0.46254905152E+02  0.58511021671E+02  0.00000000000E+00 0.  1.
         12    1    6    6    0    0 -0.29985238639E+01 -0.47703434261E+02  0.10854792971E+03  0.11860548820E+03  0.00000000000E+00 0. -1.
         -5    1    3    3    0  503 -0.70141763316E+02 -0.30663346921E+02  0.15820905162E+03  0.17581894614E+03  0.47000000000E+01 0.  1.
         11    1    4    4    0    0  0.30224366535E+02 -0.73365591218E+02  0.72709718293E+02  0.10762307114E+03  0.00000000000E+00 0. -1.
        -12    1    4    4    0    0  0.17020055004E+02  0.19337530007E+02  0.14214429178E+02  0.29422310174E+02  0.00000000000E+00 0.  1.
</event>
<event>
12    1  0.8494789E-002  0.2473729E+03  0.7818608E-02  0.1114985E+00
         21   -1    0    0  503  502  0.00000000000E+00  0.00000000000E+00  0.34323130258E+03  0.34323130258E+03  0.00000000000E+00 0.  1.
         21   -1    0    0  501  503 -0.00000000000E+00 -0.00000000000E+00 -0.17839381401E+03  0.17839381401E+03  0.00000000000E+00 0.  1.
          6    2    1    2  501    0 -0.20740468824E+02  0.17700725954E+03  0.74942540056E+02  0.25847578116E+03  0.17155642851E+03 0.  0.
         24    2    3    3    0    0  0.39246757863E+02  0.87598303588E+02  0.84345544021E+02  0.15029567554E+03  0.79125523669E+02 0.  0.
         -6    2    1    2    0  502  0.20740468824E+02 -0.17700725954E+03  0.89894948510E+02  0.26314933543E+03  0.17147808605E+03 0.  0.
        -24    2    5    5    0    0  0.15958241520E+01 -0.32116260840E+02  0.78109776718E+02  0.11644930408E+03  0.80157983618E+02 0.  0.
          5    1    3    3  501    0 -0.59987226687E+02  0.89408955947E+02 -0.94030039646E+01  0.10818010562E+03  0.47000000000E+01 0. -1.
        -11    1    4    4    0    0  0.42510788762E+02  0.73934554605E+02  0.24372055476E+02  0.88698830961E+02  0.00000000000E+00 0.  1.
         12    1    4    4    0    0 -0.32640308992E+01  0.13663748984E+02  0.59973488544E+02  0.61596844580E+02  0.00000000000E+00 0. -1.
         -5    1    5    5    0  502  0.19144644672E+02 -0.14489099870E+03  0.11785171792E+02  0.14670003135E+03  0.47000000000E+01 0.  1.
         11    1    6    6    0    0  0.28673727862E+02 -0.36621887889E+02  0.17112341718E+02  0.49559838389E+02  0.00000000000E+00 0. -1.
        -12    1    6    6    0    0 -0.27077903710E+02  0.45056270488E+01  0.60997434999E+02  0.66889465695E+02  0.00000000000E+00 0.  1.
</event>
<event>
12    1  0.8494789E-002  0.1824818E+03  0.7818608E-02  0.1167713E+00
         21   -1    0    0  501  502  0.00000000000E+00  0.00000000000E+00  0.75785508557E+02  0.75785508557E+02  0.00000000000E+00 0.  1.
         21   -1    0    0  502  503 -0.00000000000E+00 -0.00000000000E+00 -0.47679770922E+03  0.47679770922E+03  0.00000000000E+00 0.  1.
         -6    2    1    2    0  503 -0.67709621446E-01  0.12760295304E+02 -0.29360061825E+03  0.34083607146E+03  0.17264146331E+03 0.  0.
        -24    2    3    3    0    0  0.17163539916E+02 -0.31468884022E+02 -0.70410604000E+02  0.11260590535E+03  0.80234400352E+02 0.  0.
          6    2    1    2  501    0  0.67709621446E-01 -0.12760295304E+02 -0.10741158242E+03  0.21174714632E+03  0.18203509611E+03 0.  0.
         24    2    5    5    0    0  0.43039915353E+01 -0.78084414100E+02 -0.47776078826E+02  0.12306981060E+03  0.82145751595E+02 0.  0.
          5    1    5    5  501    0 -0.42362819138E+01  0.65324118796E+02 -0.59635503592E+02  0.88677335715E+02  0.47000000000E+01 0. -1.
        -13    1    6    6    0    0 -0.18531048943E+02 -0.84368285642E+02 -0.24323110868E+02  0.89738626686E+02  0.00000000000E+00 0.  1.
         14    1    6    6    0    0  0.22835040478E+02  0.62838715423E+01 -0.23452967959E+02  0.33331183916E+02  0.00000000000E+00 0. -1.
         -5    1    3    3    0  503 -0.17231249537E+02  0.44229179326E+02 -0.22319001425E+03  0.22823016611E+03  0.47000000000E+01 0.  1.
         11    1    4    4    0    0 -0.73811527536E+01 -0.21689214131E+02 -0.80972821140E+02  0.84151655890E+02  0.00000000000E+00 0. -1.
        -12    1    4    4    0    0  0.24544692669E+02 -0.97796698913E+01  0.10562217140E+02  0.28454249460E+02  0.00000000000E+00 0.  1.
</event>
<event>
12    1  0.8494789E-002  0.2063365E+03  0.7818608E-02  0.1144631E+00
         21   -1    0    0  501  502  0.00000000000E+00  0.00000000000E+00  0.12680718705E+03  0.12680718705E+03  0.00000000000E+00 0.  1.
         21   -1    0    0  502  503 -0.00000000000E+00 -0.00000000000E+00 -0.33495712770E+03  0.33495712770E+03  0.00000000000E+00 0. -1.
         -6    2    1    2    0  503 -0.11180735386E+03 -0.27055861350E+02 -0.11071168299E+03  0.23416195235E+03  0.17129459760E+03 0.  0.
        -24    2    3    3    0    0 -0.16417059522E+01 -0.33312063991E+02 -0.71925265785E+01  0.82788520749E+02  0.75430881763E+02 0.  0.
          6    2    1    2  501    0  0.11180735386E+03  0.27055861350E+02 -0.97438257659E+02  0.22760236240E+03  0.17051603240E+03 0.  0.
         24    2    5    5    0    0  0.31304879312E+02 -0.25549892085E+02  0.74675135560E+01  0.85210914145E+02  0.74648132438E+02 0.  0.
          5    1    5    5  501    0  0.80502474548E+02  0.52605753435E+02 -0.10490577122E+03  0.14239144826E+03  0.47000000000E+01 0. -1.
        -11    1    6    6    0    0 -0.18314290258E+02 -0.23009540557E+01 -0.17098125033E+02  0.25160554383E+02  0.00000000000E+00 0.  1.
         12    1    6    6    0    0  0.49619169570E+02 -0.23248938029E+02  0.24565638589E+02  0.60050359762E+02  0.00000000000E+00 0. -1.
         -5    1    3    3    0  503 -0.11016564791E+03  0.62562026404E+01 -0.10351915641E+03  0.15137343160E+03  0.47000000000E+01 0.  1.
         13    1    4    4    0    0  0.29644226656E+02 -0.12968349497E+01  0.14522557912E+02  0.33035838770E+02  0.00000000000E+00 0. -1.
        -14    1    4    4    0    0 -0.31285932608E+02 -0.32015229041E+02 -0.21715084490E+02  0.49752681979E+02  0.00000000000E+00 0.  1.
</event>
<event>
12    1  0.8494789E-002  0.2116631E+03  0.7818608E-02  0.1140408E+00
         21   -1    0    0  501  502  0.00000000000E+00  0.00000000000E+00  0.86218712273E+03  0.86218712273E+03  0.00000000000E+00 0. -1.
         21   -1    0    0  502  503 -0.00000000000E+00 -0.00000000000E+00 -0.51821791486E+02  0.51821791486E+02  0.00000000000E+00 0. -1.
         -6    2    1    2    0  503 -0.37339634941E+02 -0.11700328830E+03  0.39038089311E+03  0.44370241326E+03  0.17143678722E+03 0.  0.
        -24    2    3    3    0    0 -0.50985769429E+02 -0.11522214357E+03  0.18612493383E+03  0.23892942586E+03  0.81049913615E+02 0.  0.
          6    2    1    2  501    0  0.37339634941E+02  0.11700328830E+03  0.41998443813E+03  0.47030650096E+03  0.17238694487E+03 0.  0.
         24    2    5    5    0    0  0.74289174701E+02  0.36290703413E+02  0.26260933839E+03  0.28956137138E+03  0.89700761174E+02 0.  0.
          5    1    5    5  501    0 -0.36949539760E+02  0.80712584883E+02  0.15737509974E+03  0.18074512958E+03  0.47000000000E+01 0. -1.
        -11    1    6    6    0    0  0.44979780205E+01  0.33216720986E+02  0.17153744222E+03  0.17478179666E+03  0.00000000000E+00 0.  1.
         12    1    6    6    0    0  0.69791196680E+02  0.30739824267E+01  0.91071896169E+02  0.11477957472E+03  0.00000000000E+00 0. -1.
         -5    1    3    3    0  503  0.13646134488E+02 -0.17811447209E+01  0.20425595928E+03  0.20477298739E+03  0.47000000000E+01 0.  1.
         13    1    4    4    0    0 -0.27410400992E+02 -0.89846452464E+02  0.18098920246E+03  0.20391372320E+03  0.00000000000E+00 0. -1.
        -14    1    4    4    0    0 -0.23575368437E+02 -0.25375691111E+02  0.51357313686E+01  0.35015702663E+02  0.00000000000E+00 0.  1.
</event>
<event>
12    1  0.8494789E-002  0.2280708E+03  0.7818608E-02  0.1128212E+00
         21   -1    0    0  503  502  0.00000000000E+00  0.00000000000E+00  0.63027398800E+02  0.63027398800E+02  0.00000000000E+00 0.  1.
         21   -1    0    0  501  503 -0.00000000000E+00 -0.00000000000E+00 -0.97479457791E+03  0.97479457791E+03  0.00000000000E+00 0. -1.
          6    2    1    2  501    0  0.16323482894E+02  0.14862077571E+03 -0.66094586029E+03  0.69881218250E+03  0.17068815166E+03 0.  0.
         24    2    3    3    0    0 -0.34004438074E+02  0.55074279974E+02 -0.44218964680E+03  0.45558344770E+03  0.88516190376E+02 0.  0.
         -6    2    1    2    0  502 -0.16323482894E+02 -0.14862077571E+03 -0.25082131882E+03  0.33900979420E+03  0.17222576905E+03 0.  0.
        -24    2    5    5    0    0 -0.26355298332E+01 -0.17780863937E+03 -0.22411713949E+03  0.29688504331E+03  0.79305601799E+02 0.  0.
          5    1    3    3  501    0  0.50327920969E+02  0.93546495737E+02 -0.21875621349E+03  0.24322873480E+03  0.47000000000E+01 0. -1.
        -11    1    4    4    0    0 -0.15001669806E+02 -0.13129298994E+02 -0.22916175926E+02  0.30373997236E+02  0.00000000000E+00 0.  1.
         12    1    4    4    0    0 -0.19002768268E+02  0.68203578968E+02 -0.41927347088E+03  0.42520945047E+03  0.00000000000E+00 0. -1.
         -5    1    5    5    0  502 -0.13687953061E+02  0.29187863661E+02 -0.26704179333E+02  0.42124750895E+02  0.47000000000E+01 0. -1.
         13    1    6    6    0    0  0.15014369487E+02 -0.16000580616E+02 -0.67605235576E+02  0.71076843968E+02  0.00000000000E+00 0. -1.
        -14    1    6    6    0    0 -0.17649899320E+02 -0.16180805876E+03 -0.15651190391E+03  0.22580819934E+03  0.00000000000E+00 0.  1.
</event>
<event>
12    1  0.8494789E-002  0.1967406E+03  0.7818608E-02  0.1152736E+00
         21   -1    0    0  503  502  0.00000000000E+00  0.00000000000E+00  0.81028584397E+03  0.81028584397E+03  0.00000000000E+00 0.  1.
         21   -1    0    0  501  503 -0.00000000000E+00 -0.00000000000E+00 -0.10914837601E+03  0.10914837601E+03  0.00000000000E+00 0.  1.
          6    2    1    2  501    0 -0.87448093000E+02 -0.37045197991E+02  0.47529520613E+01  0.19579185534E+03  0.17115006398E+03 0.  0.
         24    2    3    3    0    0 -0.38718324304E+02 -0.86020778084E+02 -0.13871445423E+02  0.12408302754E+03  0.79407164831E+02 0.  0.
         -6    2    1    2    0  502  0.87448093000E+02  0.37045197991E+02  0.69638451591E+03  0.72364236464E+03  0.17230020965E+03 0.  0.
        -24    2    5    5    0    0 -0.13519286217E+01  0.27181193636E+02  0.51133844802E+03  0.51810190715E+03  0.78879229068E+02 0.  0.
          5    1    3    3  501    0 -0.48729768696E+02  0.48975580093E+02  0.18624397485E+02  0.71708827799E+02  0.47000000000E+01 0. -1.
        -11    1    4    4    0    0  0.14388033042E+02 -0.37814166475E+02 -0.30245936288E+02  0.50514783410E+02  0.00000000000E+00 0.  1.
         12    1    4    4    0    0 -0.53106357346E+02 -0.48206611609E+02  0.16374490865E+02  0.73568244130E+02  0.00000000000E+00 0. -1.
         -5    1    5    5    0  502  0.88800021622E+02  0.98640043549E+01  0.18504606789E+03  0.20554045749E+03  0.47000000000E+01 0.  1.
         11    1    6    6    0    0 -0.16027619181E+02  0.15929761340E+02  0.36671186780E+02  0.43074561087E+02  0.00000000000E+00 0. -1.
        -12    1    6    6    0    0  0.14675690560E+02  0.11251432297E+02  0.47466726124E+03  0.47502734607E+03  0.00000000000E+00 0.  1.
</event>
<event>
12    1  0.8494789E-002  0.1800151E+03  0.7818608E-02  0.1167908E+00
         21   -1    0    0  501  502  0.00000000000E+00  0.00000000000E+00  0.49676745791E+03  0.49676745791E+03  0.00000000000E+00 0. -1.
         21   -1    0    0  502  503 -0.00000000000E+00 -0.00000000000E+00 -0.10828828765E+03  0.10828828765E+03  0.00000000000E+00 0. -1.
         -6    2    1    2    0  503  0.34945958118E+02 -0.37775773794E+02  0.32430590006E+01  0.18004426631E+03  0.17250272845E+03 0.  0.
        -24    2    3    3    0    0  0.57369218365E+02 -0.56318167303E+02 -0.46598742994E+02  0.12213987802E+03  0.79270068557E+02 0.  0.
          6    2    1    2  501    0 -0.34945958118E+02  0.37775773794E+02  0.38523611126E+03  0.42501147925E+03  0.17198740361E+03 0.  0.
         24    2    5    5    0    0  0.17073994625E+02  0.71660764348E+02  0.17336457567E+03  0.20418144130E+03  0.78790852474E+02 0.  0.
          5    1    5    5  501    0 -0.52019952744E+02 -0.33884990554E+02  0.21187153559E+03  0.22083003795E+03  0.47000000000E+01 0. -1.
        -13    1    6    6    0    0  0.36719128207E+02  0.35314397108E+01  0.62878052816E+02  0.72900034078E+02  0.00000000000E+00 0.  1.
         14    1    6    6    0    0 -0.19645133582E+02  0.68129324637E+02  0.11048652286E+03  0.13128140722E+03  0.00000000000E+00 0. -1.
         -5    1    3    3    0  503 -0.22423260247E+02  0.18542393509E+02  0.49841801994E+02  0.57904388289E+02  0.47000000000E+01 0.  1.
         13    1    4    4    0    0 -0.65149805511E+01  0.13798190888E+02  0.22856275781E+01  0.15429165136E+02  0.00000000000E+00 0. -1.
        -14    1    4    4    0    0  0.63884198916E+02 -0.70116358191E+02 -0.48884370572E+02  0.10671071288E+03  0.00000000000E+00 0.  1.
</event>
<event>
12    1  0.8494789E-002  0.2042476E+03  0.7818608E-02  0.1146359E+00
         21   -1    0    0  503  502  0.00000000000E+00  0.00000000000E+00  0.13118116198E+04  0.13118116198E+04  0.00000000000E+00 0. -1.
         21   -1    0    0  501  503 -0.00000000000E+00 -0.00000000000E+00 -0.32810649883E+02  0.32810649883E+02  0.00000000000E+00 0.  1.
          6    2    1    2  501    0 -0.10750520128E+03  0.86050495929E+01  0.76521452013E+03  0.79200399315E+03  0.17345214949E+03 0.  0.
         24    2    3    3    0    0 -0.14444333887E+03  0.15978724404E+02  0.61047772346E+03  0.63267928278E+03  0.80503579097E+02 0.  0.
         -6    2    1    2    0  502  0.10750520128E+03 -0.86050495929E+01  0.51378644974E+03  0.55261827649E+03  0.17256601169E+03 0.  0.
        -24    2    5    5    0    0  0.51660606587E+02 -0.40636347698E+02  0.13629572844E+03  0.16964835929E+03  0.76706643715E+02 0.  0.
          5    1    3    3  501    0  0.36938137586E+02 -0.73736748111E+01  0.15473679668E+03  0.15932471037E+03  0.47000000000E+01 0. -1.
        -13    1    4    4    0    0 -0.19311854301E+02  0.34263402137E+02  0.12822971695E+03  0.13412601817E+03  0.00000000000E+00 0.  1.
         14    1    4    4    0    0 -0.12513148457E+03 -0.18284677733E+02  0.48224800651E+03  0.49855326461E+03  0.00000000000E+00 0. -1.
         -5    1    5    5    0  502  0.55844594697E+02  0.32031298105E+02  0.37749072129E+03  0.38296991720E+03  0.47000000000E+01 0.  1.
         13    1    6    6    0    0 -0.13488606945E+02 -0.28189462784E+02  0.65862432253E+02  0.72900262768E+02  0.00000000000E+00 0. -1.
        -14    1    6    6    0    0  0.65149213532E+02 -0.12446884913E+02  0.70433296191E+02  0.96748096520E+02  0.00000000000E+00 0.  1.
</event>
<event>
12    1  0.8494789E-002  0.2648979E+03  0.7818608E-02  0.1104353E+00
         21   -1    0    0  501  502  0.00000000000E+00  0.00000000000E+00  0.21099113282E+04  0.21099113282E+04  0.00000000000E+00 0.  1.
         21   -1    0    0  502  503 -0.00000000000E+00 -0.00000000000E+00 -0.43159519977E+02  0.43159519977E+02  0.00000000000E+00 0. -1.
         -6    2    1    2    0  503  0.10711910902E+03  0.17057325155E+03  0.51633056767E+03  0.58031729401E+03  0.17204990252E+03 0.  0.
        -24    2    3    3    0    0  0.10704081572E+03  0.15811555306E+03  0.27835916653E+03  0.34197368042E+03  0.54807920556E+02 0.  0.
          6    2    1    2  501    0 -0.10711910902E+03 -0.17057325155E+03  0.15504212406E+04  0.15727535542E+04  0.17081563549E+03 0.  0.
         24    2    5    5    0    0 -0.39130106055E+02 -0.10655409438E+02  0.56294664749E+03  0.57009489705E+03  0.80340281123E+02 0.  0.
          5    1    5    5  501    0 -0.67989002962E+02 -0.15991784211E+03  0.98747459308E+03  0.10026586571E+04  0.47000000000E+01 0. -1.
        -13    1    6    6    0    0  0.13287381389E+02 -0.23909850610E+02  0.89925705388E+02  0.93993978264E+02  0.00000000000E+00 0.  1.
         14    1    6    6    0    0 -0.52417487444E+02  0.13254441173E+02  0.47302094211E+03  0.47610091879E+03  0.00000000000E+00 0. -1.
         -5    1    3    3    0  503  0.78293293638E-01  0.12457698493E+02  0.23797140114E+03  0.23834361359E+03  0.47000000000E+01 0.  1.
         11    1    4    4    0    0  0.68615924588E+02  0.58513690517E+02  0.10531292674E+03  0.13864634731E+03  0.00000000000E+00 0. -1.
        -12    1    4    4    0    0  0.38424891135E+02  0.99601862538E+02  0.17304623979E+03  0.20332733310E+03  0.00000000000E+00 0.  1.
</event>
<event>
12    1  0.8494789E-002  0.2628861E+03  0.7818608E-02  0.1105757E+00
         21   -1    0    0  501  502  0.00000000000E+00  0.00000000000E+00  0.10896683772E+04  0.10896683772E+04  0.00000000000E+00 0.  1.
         21   -1    0    0  502  503 -0.00000000000E+00 -0.00000000000E+00 -0.76843808113E+02  0.76843808113E+02  0.00000000000E+00 0.  1.
         -6    2    1    2    0  503 -0.96191499857E+01  0.19753411189E+03  0.75326829963E+03  0.79708212371E+03  0.16974842358E+03 0.  0.
        -24    2    3    3    0    0 -0.38364620678E+02  0.54660364913E+02  0.21748027047E+03  0.24180731620E+03  0.81936014757E+02 0.  0.
          6    2    1    2  501    0  0.96191499857E+01 -0.19753411189E+03  0.25955626943E+03  0.36943006158E+03  0.17319601609E+03 0.  0.
         24    2    5    5    0    0  0.56435489345E+02 -0.83599969767E+02  0.78713350079E+02  0.15057163735E+03  0.79385811658E+02 0.  0.
          5    1    5    5  501    0 -0.46816339359E+02 -0.11393414212E+03  0.18084291935E+03  0.21885842422E+03  0.47000000000E+01 0. -1.
        -11    1    6    6    0    0  0.39986028808E+01 -0.58206093997E+02  0.79073661974E+01  0.58876690155E+02  0.00000000000E+00 0.  1.
         12    1    6    6    0    0  0.52436886464E+02 -0.25393875769E+02  0.70805983881E+02  0.91694947200E+02  0.00000000000E+00 0. -1.
         -5    1    3    3    0  503  0.28745470692E+02  0.14287374698E+03  0.53578802917E+03  0.55527480751E+03  0.47000000000E+01 0.  1.
         11    1    4    4    0    0  0.25437256605E+02  0.22473302030E+02  0.61754365609E+02  0.70467758581E+02  0.00000000000E+00 0. -1.
        -12    1    4    4    0    0 -0.63801877282E+02  0.32187062882E+02  0.15572590486E+03  0.17133955762E+03  0.00000000000E+00 0.  1.
</event>
<event>
12    1  0.8494789E-002  0.3256554E+03  0.7818608E-02  0.1073393E+00
         21   -1    0    0  503  502  0.00000000000E+00  0.00000000000E+00  0.31049997284E+03  0.31049997284E+03  0.00000000000E+00 0. -1.
         21   -1    0    0  501  503 -0.00000000000E+00 -0.00000000000E+00 -0.68528991268E+03  0.68528991268E+03  0.00000000000E+00 0.  1.
          6    2    1    2  501    0  0.21825044807E+03  0.16702529399E+03 -0.54192331137E+03  0.63224387795E+03  0.17470185710E+03 0.  0.
         24    2    3    3    0    0  0.23144685712E+03  0.17391007066E+03 -0.46835522317E+03  0.55703816697E+03  0.84395165997E+02 0.  0.
         -6    2    1    2    0  502 -0.21825044807E+03 -0.16702529399E+03  0.16713337154E+03  0.36354600758E+03  0.16941496046E+03 0.  0.
        -24    2    5    5    0    0 -0.10737130840E+03 -0.16447121041E+03  0.10666631885E+03  0.23713769528E+03  0.79228820669E+02 0.  0.
          5    1    3    3  501    0 -0.13196409049E+02 -0.68847766662E+01 -0.73568088202E+02  0.75205710975E+02  0.47000000000E+01 0. -1.
        -13    1    4    4    0    0  0.13227132176E+03  0.13865613115E+03 -0.25342571164E+03  0.31771971387E+03  0.00000000000E+00 0.  1.
         14    1    4    4    0    0  0.99175535365E+02  0.35253939510E+02 -0.21492951153E+03  0.23931845310E+03  0.00000000000E+00 0. -1.
         -5    1    5    5    0  502 -0.11087913967E+03 -0.25540835801E+01  0.60467052686E+02  0.12640831229E+03  0.47000000000E+01 0.  1.
         11    1    6    6    0    0 -0.98252727381E+02 -0.93516249696E+02  0.92580748020E+02  0.16422570535E+03  0.00000000000E+00 0. -1.
        -12    1    6    6    0    0 -0.91185810228E+01 -0.70954960713E+02  0.14085570832E+02  0.72911989928E+02  0.00000000000E+00 0.  1.
</event>
<event>
12    1  0.8494789E-002  0.2746205E+03  0.7818608E-02  0.1098705E+00
         21   -1    0    0  503  502  0.00000000000E+00  0.00000000000E+00  0.87544228190E+03  0.87544228190E+03  0.00000000000E+00 0. -1.
         21   -1    0    0  501  503 -0.00000000000E+00 -0.00000000000E+00 -0.89076354011E+02  0.89076354011E+02  0.00000000000E+00 0.  1.
          6    2    1    2  501    0 -0.27062748245E+02 -0.21226174649E+03  0.30416709803E+03  0.40960230072E+03  0.17166531351E+03 0.  0.
         24    2    3    3    0    0 -0.17384609061E+02 -0.18826875962E+03  0.15337545043E+03  0.25653518870E+03  0.80863612118E+02 0.  0.
         -6    2    1    2    0  502  0.27062748245E+02  0.21226174649E+03  0.48219882987E+03  0.55491633520E+03  0.17213072410E+03 0.  0.
        -24    2    5    5    0    0  0.38233545907E+02  0.17486281461E+03  0.47640649176E+03  0.51517834322E+03  0.80042313541E+02 0.  0.
          5    1    3    3  501    0 -0.96781391841E+01 -0.23992986875E+02  0.15079164759E+03  0.15306711202E+03  0.47000000000E+01 0. -1.
        -11    1    4    4    0    0 -0.29042671200E+02 -0.18195319788E+03  0.11811509099E+03  0.21886438196E+03  0.00000000000E+00 0.  1.
         12    1    4    4    0    0  0.11658062139E+02 -0.63155617397E+01  0.35260359436E+02  0.37670806740E+02  0.00000000000E+00 0. -1.
         -5    1    5    5    0  502 -0.11170797662E+02  0.37398931881E+02  0.57923381038E+01  0.39737991985E+02  0.47000000000E+01 0.  1.
         11    1    6    6    0    0  0.49362036794E+02  0.51236581364E+02  0.19652687315E+03  0.20900863575E+03  0.00000000000E+00 0. -1.
        -12    1    6    6    0    0 -0.11128490887E+02  0.12362623325E+03  0.27987961861E+03  0.30616970747E+03  0.00000000000E+00 0.  1.
</event>
<event>
12    1  0.8494789E-002  0.2399736E+03  0.7818608E-02  0.1119969E+00
         21   -1    0    0  501  502  0.00000000000E+00  0.00000000000E+00  0.21776973187E+03  0.21776973187E+03  0.00000000000E+00 0.  1.
         21   -1    0    0  502  503 -0.00000000000E+00 -0.00000000000E+00 -0.28978032827E+03  0.28978032827E+03  0.00000000000E+00 0.  1.
         -6    2    1    2    0  503 -0.35849808066E+02 -0.16276875587E+03 -0.11264305270E+03  0.26509584622E+03  0.17265130680E+03 0.  0.
        -24    2    3    3    0    0  0.90506109393E+01 -0.16393030763E+03 -0.52975387185E+02  0.19026458847E+03  0.80244393317E+02 0.  0.
          6    2    1    2  501    0  0.35849808066E+02  0.16276875587E+03  0.40632456298E+02  0.24245421392E+03  0.17133059481E+03 0.  0.
         24    2    5    5    0    0  0.43486130736E+01  0.72283537229E+02  0.84922358970E+02  0.13679634362E+03  0.79105071803E+02 0.  0.
          5    1    5    5  501    0  0.31501194993E+02  0.90485218636E+02 -0.44289902672E+02  0.10565787030E+03  0.47000000000E+01 0. -1.
        -11    1    6    6    0    0  0.10382972031E+02 -0.15734601486E+02  0.12115975808E+02  0.22409387808E+02  0.00000000000E+00 0.  1.
         12    1    6    6    0    0 -0.60343589576E+01  0.88018138716E+02  0.72806383162E+02  0.11438695581E+03  0.00000000000E+00 0. -1.
         -5    1    3    3    0  503 -0.44900419006E+02  0.11615517691E+01 -0.59667665512E+02  0.74831257754E+02  0.47000000000E+01 0.  1.
         11    1    4    4    0    0  0.40938421739E+02 -0.55194275336E+02 -0.11946332551E+02  0.69750105848E+02  0.00000000000E+00 0. -1.
        -12    1    4    4    0    0 -0.31887810800E+02 -0.10873603230E+03 -0.41029054634E+02  0.12051448262E+03  0.00000000000E+00 0.  1.
</event>
<event>
12    1  0.8494789E-002  0.1918914E+03  0.7818608E-02  0.1156779E+00
         21   -1    0    0  501  502  0.00000000000E+00  0.00000000000E+00  0.23495917583E+03  0.23495917583E+03  0.00000000000E+00 0.  1.
         21   -1    0    0  502  503 -0.00000000000E+00 -0.00000000000E+00 -0.34470141518E+03  0.34470141518E+03  0.00000000000E+00 0. -1.
         -6    2    1    2    0  503 -0.82676023600E+02  0.12596444084E+02 -0.26893419198E+03  0.33037540611E+03  0.17270875503E+03 0.  0.
        -24    2    3    3    0    0 -0.85296614080E+02  0.57170911508E+02 -0.12629375114E+03  0.18083565887E+03  0.78787044918E+02 0.  0.
          6    2    1    2  501    0  0.82676023600E+02 -0.12596444084E+02  0.15919195263E+03  0.24928518490E+03  0.17264712668E+03 0.  0.
         24    2    5    5    0    0  0.10111206749E+03  0.10907222377E+02  0.17398798321E+03  0.21562032827E+03  0.76666093990E+02 0.  0.
          5    1    5    5  501    0 -0.18436043886E+02 -0.23503666461E+02 -0.14796030587E+02  0.33664856637E+02  0.47000000000E+01 0. -1.
        -13    1    6    6    0    0  0.32576953120E+02 -0.80776350592E+01  0.12458922155E+03  0.12903092726E+03  0.00000000000E+00 0.  1.
         14    1    6    6    0    0  0.68535114366E+02  0.18984857437E+02  0.49398761663E+02  0.86589401007E+02  0.00000000000E+00 0. -1.
         -5    1    3    3    0  503  0.26205904795E+01 -0.44574467424E+02 -0.14264044084E+03  0.14953974724E+03  0.47000000000E+01 0.  1.
         13    1    4    4    0    0 -0.79099483380E+01  0.30669084096E+02 -0.81802504105E+02  0.87720064295E+02  0.00000000000E+00 0. -1.
        -14    1    4    4    0    0 -0.77386665741E+02  0.26501827412E+02 -0.44491247030E+02  0.93115594575E+02  0.00000000000E+00 0.  1.
</event>
<event>
12    1  0.8494789E-002  0.4356818E+03  0.7818608E-02  0.1032100E+00
         21   -1    0    0  501  502  0.00000000000E+00  0.00000000000E+00  0.14316843169E+03  0.14316843169E+03  0.00000000000E+00 0.  1.
         21   -1    0    0  502  503 -0.00000000000E+00 -0.00000000000E+00 -0.21256012930E+04  0.21256012930E+04  0.00000000000E+00 0. -1.
         -6    2    1    2    0  503 -0.12999089914E+03 -0.37867708822E+03 -0.16871961968E+04  0.17424776513E+04  0.17118232309E+03 0.  0.
        -24    2    3    3    0    0 -0.14855448791E+03 -0.31726922958E+03 -0.15422494665E+04  0.15838990381E+04  0.86455457399E+02 0.  0.
          6    2    1    2  501    0  0.12999089914E+03  0.37867708822E+03 -0.29523666448E+03  0.52629207337E+03  0.17182749324E+03 0.  0.
         24    2    5    5    0    0  0.15693771192E+03  0.32515513630E+03 -0.22042172291E+03  0.43032283070E+03  0.78972745965E+02 0.  0.
          5    1    5    5  501    0 -0.26946812782E+02  0.53521951922E+02 -0.74814941568E+02  0.95969242669E+02  0.47000000000E+01 0. -1.
        -13    1    6    6    0    0  0.12799123917E+03  0.25096714452E+03 -0.13132994211E+03  0.31082763491E+03  0.00000000000E+00 0.  1.
         14    1    6    6    0    0  0.28946472748E+02  0.74187991783E+02 -0.89091780802E+02  0.11949519579E+03  0.00000000000E+00 0. -1.
         -5    1    3    3    0  503  0.18563588768E+02 -0.61407858645E+02 -0.14494673034E+03  0.15857861321E+03  0.47000000000E+01 0.  1.
         13    1    4    4    0    0 -0.85100661003E+01 -0.51054388990E+02 -0.37312525946E+03  0.37669806358E+03  0.00000000000E+00 0. -1.
        -14    1    4    4    0    0 -0.14004442181E+03 -0.26621484059E+03 -0.11691242070E+04  0.12072009745E+04  0.00000000000E+00 0.  1.
</event>
<event>
12    1  0.8494789E-002  0.1790503E+03  0.7818608E-02  0.1168726E+00
         21   -1    0    0  501  502  0.00000000000E+00  0.00000000000E+00  0.18077543286E+03  0.18077543286E+03  0.00000000000E+00 0. -1.
         21   -1    0    0  502  503 -0.00000000000E+00 -0.00000000000E+00 -0.18180150743E+03  0.18180150743E+03  0.00000000000E+00 0. -1.
         -6    2    1    2    0  503 -0.39466116037E+02 -0.26470757461E+02  0.27890990070E+02  0.18120653510E+03  0.17262568094E+03 0.  0.
        -24    2    3    3    0    0 -0.29958551976E+02  0.42880087850E+01 -0.48657485048E+02  0.98030489758E+02  0.79539450683E+02 0.  0.
          6    2    1    2  501    0  0.39466116037E+02  0.26470757461E+02 -0.28917064642E+02  0.18137040519E+03  0.17262894293E+03 0.  0.
         24    2    5    5    0    0 -0.44295810460E+02  0.27756732553E+02 -0.10406851313E+02  0.95449324777E+02  0.79181538378E+02 0.  0.
          5    1    5    5  501    0  0.83761926497E+02 -0.12859750921E+01 -0.18510213329E+02  0.85921080417E+02  0.47000000000E+01 0. -1.
        -13    1    6    6    0    0 -0.27800853462E+02 -0.23728539918E+02 -0.18193942058E+02  0.40828306203E+02  0.00000000000E+00 0.  1.
         14    1    6    6    0    0 -0.16494956999E+02  0.51485272471E+02  0.77870907454E+01  0.54621018574E+02  0.00000000000E+00 0. -1.
         -5    1    3    3    0  503 -0.95075640610E+01 -0.30758766246E+02  0.76548475118E+02  0.83176045339E+02  0.47000000000E+01 0.  1.
         13    1    4    4    0    0 -0.23769804720E+01 -0.34241778283E+02 -0.34285590597E+02  0.48514442578E+02  0.00000000000E+00 0. -1.
        -14    1    4    4    0    0 -0.27581571504E+02  0.38529787068E+02 -0.14371894451E+02  0.49516047179E+02  0.00000000000E+00 0.  1.
</event>
<event>
12    1  0.8494789E-002  0.2227586E+03  0.7818608E-02  0.1131863E+00
         21   -1    0    0  501  502  0.00000000000E+00  0.00000000000E+00  0.16031781466E+03  0.16031781466E+03  0.00000000000E+00 0.  1.
         21   -1    0    0  502  503 -0.00000000000E+00 -0.00000000000E+00 -0.40609486460E+03  0.40609486460E+03  0.00000000000E+00 0.  1.
         -6    2    1    2    0  503  0.13655434679E+03 -0.38436389685E+02 -0.26112906713E+03  0.34323428695E+03  0.17174673319E+03 0.  0.
        -24    2    3    3    0    0  0.86215305962E+02 -0.80813144165E+02 -0.22938795160E+03  0.27002638596E+03  0.79571185279E+02 0.  0.
          6    2    1    2  501    0 -0.13655434679E+03  0.38436389685E+02  0.15352017193E+02  0.22317839231E+03  0.17160554969E+03 0.  0.
         24    2    5    5    0    0 -0.15780103342E+03 -0.18421271216E+01  0.63202720275E+01  0.17651531237E+03  0.78823537620E+02 0.  0.
          5    1    5    5  501    0  0.21246686629E+02  0.40278516806E+02  0.90317451658E+01  0.46663079941E+02  0.47000000000E+01 0. -1.
        -13    1    6    6    0    0 -0.80986921823E+02  0.38313231931E+02  0.66389109731E+01  0.89837967398E+02  0.00000000000E+00 0.  1.
         14    1    6    6    0    0 -0.76814111595E+02 -0.40155359053E+02 -0.31863894557E+00  0.86677344973E+02  0.00000000000E+00 0. -1.
         -5    1    3    3    0  503  0.50339040826E+02  0.42376754481E+02 -0.31741115531E+02  0.73207900985E+02  0.47000000000E+01 0.  1.
         11    1    4    4    0    0  0.19956282991E+02  0.90621579232E+01 -0.10498585916E+02  0.24302185977E+02  0.00000000000E+00 0. -1.
        -12    1    4    4    0    0  0.66259022971E+02 -0.89875302088E+02 -0.21888936568E+03  0.24572419999E+03  0.00000000000E+00 0.  1.
</event>
<event>
12    1  0.8494789E-002  0.1820123E+03  0.7818608E-02  0.1166138E+00
         21   -1    0    0  501  502  0.00000000000E+00  0.00000000000E+00  0.56487398071E+03  0.56487398071E+03  0.00000000000E+00 0.  1.
         21   -1    0    0  502  503 -0.00000000000E+00 -0.00000000000E+00 -0.19188820759E+03  0.19188820759E+03  0.00000000000E+00 0.  1.
         -6    2    1    2    0  503 -0.64139713781E+02  0.15170475272E+02 -0.12940903672E+03  0.22241302724E+03  0.16845417685E+03 0.  0.
        -24    2    3    3    0    0  0.22314599437E+02  0.31386665823E+01 -0.10116911315E+03  0.13055065204E+03  0.79375630500E+02 0.  0.
          6    2    1    2  501    0  0.64139713781E+02 -0.15170475272E+02  0.50239480984E+03  0.53434916105E+03  0.16965976177E+03 0.  0.
         24    2    5    5    0    0  0.73298730144E+02  0.74035302202E+01  0.17522721636E+03  0.20624217008E+03  0.80023366995E+02 0.  0.
          5    1    5    5  501    0 -0.91590163629E+01 -0.22574005492E+02  0.32716759348E+03  0.32810699098E+03  0.47000000000E+01 0. -1.
        -11    1    6    6    0    0  0.27471287812E+02  0.54759261822E+01  0.15250195676E+03  0.15505323034E+03  0.00000000000E+00 0.  1.
         12    1    6    6    0    0  0.45827442332E+02  0.19276040380E+01  0.22725259594E+02  0.51188939739E+02  0.00000000000E+00 0. -1.
         -5    1    3    3    0  503 -0.86454313218E+02  0.12031808690E+02 -0.28239923570E+02  0.91862375201E+02  0.47000000000E+01 0.  1.
         11    1    4    4    0    0  0.48090340751E+02 -0.14430811509E+02 -0.51704411042E+02  0.72071321034E+02  0.00000000000E+00 0. -1.
        -12    1    4    4    0    0 -0.25775741314E+02  0.17569478091E+02 -0.49464702106E+02  0.58479331008E+02  0.00000000000E+00 0.  1.
</event>
<event>
12    1  0.8494789E-002  0.1903683E+03  0.7818608E-02  0.1158214E+00
         21   -1    0    0  501  502  0.00000000000E+00  0.00000000000E+00  0.85921267647E+02  0.85921267647E+02  0.00000000000E+00 0. -1.
         21   -1    0    0  502  503 -0.00000000000E+00 -0.00000000000E+00 -0.95310614191E+03  0.95310614191E+03  0.00000000000E+00 0. -1.
         -6    2    1    2    0  503  0.77060595340E+02  0.22561418397E+02 -0.82159436412E+03  0.84327608113E+03  0.17219145420E+03 0.  0.
        -24    2    3    3    0    0  0.10007136635E+03 -0.19848852751E+02 -0.71283439895E+03  0.72420069868E+03  0.76977375419E+02 0.  0.
          6    2    1    2  501    0 -0.77060595340E+02 -0.22561418397E+02 -0.45590510138E+02  0.19575132842E+03  0.17260572125E+03 0.  0.
         24    2    5    5    0    0 -0.51080512577E+02 -0.94989944171E+01 -0.10022025304E+03  0.13368611731E+03  0.71613051754E+02 0.  0.
          5    1    5    5  501    0 -0.25980082763E+02 -0.13062423980E+02  0.54629742904E+02  0.62065211112E+02  0.47000000000E+01 0. -1.
        -11    1    6    6    0    0  0.10443898049E+02 -0.62787898147E+01 -0.57348088937E+02  0.58628504268E+02  0.00000000000E+00 0.  1.
         12    1    6    6    0    0 -0.61524410625E+02 -0.32202046025E+01 -0.42872164105E+02  0.75057613042E+02  0.00000000000E+00 0. -1.
         -5    1    3    3    0  503 -0.23010771012E+02  0.42410271148E+02 -0.10875996518E+03  0.11907538245E+03  0.47000000000E+01 0.  1.
         13    1    4    4    0    0  0.30929987159E+02 -0.44623008422E+02 -0.31431555909E+03  0.31897044953E+03  0.00000000000E+00 0. -1.
        -14    1    4    4    0    0  0.69141379194E+02  0.24774155671E+02 -0.39851883985E+03  0.40523024915E+03  0.00000000000E+00 0.  1.
</event>
<event>
12    1  0.8494789E-002  0.2403465E+03  0.7818608E-02  0.1119731E+00
         21   -1    0    0  503  502  0.00000000000E+00  0.00000000000E+00  0.69103036729E+03  0.69103036729E+03  0.00000000000E+00 0. -1.
         21   -1    0    0  501  503 -0.00000000000E+00 -0.00000000000E+00 -0.28229684023E+03  0.28229684023E+03  0.00000000000E+00 0. -1.
          6    2    1    2  501    0  0.16597496464E+03 -0.22759200845E+02  0.61289809491E+03  0.65797090070E+03  0.17092677179E+03 0.  0.
         24    2    3    3    0    0  0.19218112598E+02  0.16607040558E+02  0.17084296993E+03  0.19050742822E+03  0.80378045409E+02 0.  0.
         -6    2    1    2    0  502 -0.16597496464E+03  0.22759200845E+02 -0.20416456785E+03  0.31535630681E+03  0.17233908253E+03 0.  0.
        -24    2    5    5    0    0 -0.48310849385E+02 -0.34206946172E+02 -0.44099447396E+02  0.10863688655E+03  0.79706703130E+02 0.  0.
          5    1    3    3  501    0  0.14675685205E+03 -0.39366241403E+02  0.44205512498E+03  0.46746347248E+03  0.47000000000E+01 0. -1.
        -11    1    4    4    0    0  0.99484557217E+01  0.47551147902E+02  0.12757147440E+03  0.13650847783E+03  0.00000000000E+00 0.  1.
         12    1    4    4    0    0  0.92696568765E+01 -0.30944107344E+02  0.43271495529E+02  0.53998950390E+02  0.00000000000E+00 0. -1.
         -5    1    5    5    0  502 -0.11766411526E+03  0.56966147017E+02 -0.16006512046E+03  0.20671942026E+03  0.47000000000E+01 0.  1.
         13    1    6    6    0    0 -0.39620338808E+02 -0.55249477044E+02 -0.50839504718E+02  0.84893646410E+02  0.00000000000E+00 0. -1.
        -14    1    6    6    0    0 -0.86905105769E+01  0.21042530872E+02  0.67400573221E+01  0.23743240139E+02  0.00000000000E+00 0.  1.
</event>
<event>
12    1  0.8494789E-002  0.1764981E+03  0.7818608E-02  0.1171452E+00
         21   -1    0    0  501  502  0.00000000000E+00  0.00000000000E+00  0.40461164296E+02  0.40461164296E+02  0.00000000000E+00 0. -1.
         21   -1    0    0  502  503 -0.00000000000E+00 -0.00000000000E+00 -0.77130469553E+03  0.77130469553E+03  0.00000000000E+00 0. -1.
         -6    2    1    2    0  503 -0.15730851187E+01  0.41645507107E+02 -0.33305190752E+03  0.37692859968E+03  0.17150735639E+03 0.  0.
        -24    2    3    3    0    0 -0.45463799847E+02  0.76404633823E+02 -0.23506044540E+03  0.26397281905E+03  0.80768874199E+02 0.  0.
          6    2    1    2  501    0  0.15730851187E+01 -0.41645507107E+02 -0.39779162372E+03  0.43483726015E+03  0.17061196926E+03 0.  0.
         24    2    5    5    0    0  0.54988519903E+02 -0.84801739034E+01 -0.32119799250E+03  0.33563130094E+03  0.79903498760E+02 0.  0.
          5    1    5    5  501    0 -0.53415434785E+02 -0.33165333203E+02 -0.76593631221E+02  0.99205959213E+02  0.47000000000E+01 0. -1.
        -13    1    6    6    0    0  0.69279145804E+02  0.24520539083E+01 -0.17342278753E+03  0.18676476072E+03  0.00000000000E+00 0.  1.
         14    1    6    6    0    0 -0.14290625901E+02 -0.10932227812E+02 -0.14777520496E+03  0.14886654021E+03  0.00000000000E+00 0. -1.
         -5    1    3    3    0  503  0.43890714729E+02 -0.34759126717E+02 -0.97991462120E+02  0.11295578063E+03  0.47000000000E+01 0.  1.
         13    1    4    4    0    0  0.22430773313E+02  0.27527473138E+02 -0.85972983395E+02  0.93017499658E+02  0.00000000000E+00 0. -1.
        -14    1    4    4    0    0 -0.67894573161E+02  0.48877160686E+02 -0.14908746200E+03  0.17095531939E+03  0.00000000000E+00 0.  1.
</event>
<event>
12    1  0.8494789E-002  0.1942966E+03  0.7818608E-02  0.1156011E+00
         21   -1    0    0  503  502  0.00000000000E+00  0.00000000000E+00  0.49663365328E+03  0.49663365328E+03  0.00000000000E+00 0.  1.
         21   -1    0    0  501  503 -0.00000000000E+00 -0.00000000000E+00 -0.83016085364E+02  0.83016085364E+02  0.00000000000E+00 0. -1.
          6    2    1    2  501    0  0.61150855438E+02 -0.66842791640E+02  0.10641861274E+03  0.21616335378E+03  0.16490690848E+03 0.  0.
         24    2    3    3    0    0  0.96774739135E+02 -0.79550127072E+02  0.80378308588E+02  0.17000357796E+03  0.82139948718E+02 0.  0.
         -6    2    1    2    0  502 -0.61150855438E+02  0.66842791640E+02  0.30719895518E+03  0.36348638486E+03  0.17188300674E+03 0.  0.
        -24    2    5    5    0    0 -0.84891244416E+02  0.55466122305E+02  0.11940026483E+03  0.17379328333E+03  0.75263988647E+02 0.  0.
          5    1    3    3  501    0 -0.35623883698E+02  0.12707335432E+02  0.26040304150E+02  0.46159775820E+02  0.47000000000E+01 0. -1.
        -13    1    4    4    0    0  0.41660016966E+02 -0.23193118423E+02  0.77660108560E+02  0.91129414666E+02  0.00000000000E+00 0.  1.
         14    1    4    4    0    0  0.55114722169E+02 -0.56357008649E+02  0.27182000277E+01  0.78874163293E+02  0.00000000000E+00 0. -1.
         -5    1    5    5    0  502  0.23740388978E+02  0.11376669335E+02  0.18779869035E+03  0.18969310153E+03  0.47000000000E+01 0.  1.
         11    1    6    6    0    0 -0.49729513417E+02  0.26256794261E+02  0.12611634916E+02  0.57632430842E+02  0.00000000000E+00 0. -1.
        -12    1    6    6    0    0 -0.35161730999E+02  0.29209328044E+02  0.10678862991E+03  0.11616085249E+03  0.00000000000E+00 0.  1.
</event>
<event>
12    1  0.8494789E-002  0.1743900E+03  0.7818608E-02  0.1173932E+00
         21   -1    0    0  501  502  0.00000000000E+00  0.00000000000E+00  0.12816574011E+04  0.12816574011E+04  0.00000000000E+00 0.  1.
         21   -1    0    0  502  503 -0.00000000000E+00 -0.00000000000E+00 -0.18237342512E+03  0.18237342512E+03  0.00000000000E+00 0.  1.
         -6    2    1    2    0  503  0.12671267635E+01 -0.21369053110E+02 -0.13423483012E+03  0.21824572283E+03  0.17074531876E+03 0.  0.
        -24    2    3    3    0    0 -0.60281485288E+02 -0.18005526934E+02 -0.11522558697E+03  0.15356971276E+03  0.79678505984E+02 0.  0.
          6    2    1    2  501    0 -0.12671267635E+01  0.21369053110E+02  0.12335188061E+04  0.12457851034E+04  0.17307118991E+03 0.  0.
         24    2    5    5    0    0 -0.16291542237E+02 -0.51803591335E+02  0.55926885557E+03  0.56739358314E+03  0.78770546221E+02 0.  0.
          5    1    5    5  501    0  0.15024415474E+02  0.73172644446E+02  0.67424995052E+03  0.67839152024E+03  0.47000000000E+01 0. -1.
        -11    1    6    6    0    0 -0.29249341585E+02 -0.49682527786E+02  0.20696227484E+03  0.21484240913E+03  0.00000000000E+00 0.  1.
         12    1    6    6    0    0  0.12957799348E+02 -0.21210635499E+01  0.35230658073E+03  0.35255117402E+03  0.00000000000E+00 0. -1.
         -5    1    3    3    0  503  0.61548612051E+02 -0.33635261764E+01 -0.19009243144E+02  0.64676010071E+02  0.47000000000E+01 0.  1.
         13    1    4    4    0    0 -0.47148810204E+02 -0.46318026571E+02 -0.97156730722E+02  0.11750659647E+03  0.00000000000E+00 0. -1.
        -14    1    4    4    0    0 -0.13132675084E+02  0.28312499637E+02 -0.18068856252E+02  0.36063116294E+02  0.00000000000E+00 0.  1.
</event>
<event>
12    1  0.8494789E-002  0.1918402E+03  0.7818608E-02  0.1157043E+00
         21   -1    0    0  501  502  0.00000000000E+00  0.00000000000E+00  0.36271147645E+03  0.36271147645E+03  0.00000000000E+00 0.  1.
         21   -1    0    0  502  503 -0.00000000000E+00 -0.00000000000E+00 -0.10098505530E+03  0.10098505530E+03  0.00000000000E+00 0.  1.
         -6    2    1    2    0  503  0.25061973704E+02 -0.80736148051E+02  0.12460402706E+03  0.22788894480E+03  0.17105782494E+03 0.  0.
        -24    2    3    3    0    0  0.49557272758E+02 -0.52728630706E+02  0.14912257771E+03  0.18308169059E+03  0.77750437087E+02 0.  0.
          6    2    1    2  501    0 -0.25061973704E+02  0.80736148051E+02  0.13712239409E+03  0.23580758695E+03  0.17220986898E+03 0.  0.
         24    2    5    5    0    0  0.20655995205E+02  0.20351797399E+02  0.13607748948E+03  0.15991566175E+03  0.78835714845E+02 0.  0.
          5    1    5    5  501    0 -0.45717968910E+02  0.60384350652E+02  0.10449046095E+01  0.75891925200E+02  0.47000000000E+01 0. -1.
        -11    1    6    6    0    0 -0.27168144331E+02  0.22521040309E+02  0.46811993340E+02  0.58623101619E+02  0.00000000000E+00 0.  1.
         12    1    6    6    0    0  0.47824139536E+02 -0.21692429099E+01  0.89265496140E+02  0.10129256013E+03  0.00000000000E+00 0. -1.
         -5    1    3    3    0  503 -0.24495299054E+02 -0.28007517345E+02 -0.24518550652E+02  0.44807254208E+02  0.47000000000E+01 0.  1.
         13    1    4    4    0    0 -0.14271831473E+02 -0.37269506802E+02  0.46918478098E+02  0.61595818834E+02  0.00000000000E+00 0. -1.
        -14    1    4    4    0    0  0.63829104231E+02 -0.15459123904E+02  0.10220409961E+03  0.12148587176E+03  0.00000000000E+00 0.  1.
</event>
<event>
12    1  0.8494789E-002  0.1794661E+03  0.7818608E-02  0.1168878E+00
         21   -1    0    0  503  502  0.00000000000E+00  0.00000000000E+00  0.32654711322E+03  0.32654711322E+03  0.00000000000E+00 0.  1.
         21   -1    0    0  501  503 -0.00000000000E+00 -0.00000000000E+00 -0.97415075952E+02  0.97415075952E+02  0.00000000000E+00 0.  1.
          6    2    1    2  501    0 -0.40155263516E+01 -0.42662151873E+02  0.11764855236E+03  0.21268833724E+03  0.17192720340E+03 0.  0.
         24    2    3    3    0    0 -0.48216223580E+02 -0.53340440424E+02  0.29484300230E+02  0.11337694395E+03  0.82553017261E+02 0.  0.
         -6    2    1    2    0  502  0.40155263516E+01  0.42662151873E+02  0.11148348490E+03  0.21127385193E+03  0.17427532657E+03 0.  0.
        -24    2    5    5    0    0 -0.18617489054E+02  0.21250250270E+02  0.14288309266E+03  0.16679072834E+03  0.81273518794E+02 0.  0.
          5    1    3    3  501    0  0.44200697228E+02  0.10678288550E+02  0.88164252134E+02  0.99311393285E+02  0.47000000000E+01 0. -1.
        -13    1    4    4    0    0 -0.20561531593E+02  0.15373544660E+02  0.29763345967E+02  0.39306223681E+02  0.00000000000E+00 0.  1.
         14    1    4    4    0    0 -0.27654691986E+02 -0.68713985084E+02 -0.27904573715E+00  0.74070720271E+02  0.00000000000E+00 0. -1.
         -5    1    5    5    0  502  0.22633015406E+02  0.21411901604E+02 -0.31399607762E+02  0.44483123589E+02  0.47000000000E+01 0.  1.
         11    1    6    6    0    0 -0.28763226379E+02 -0.24775077149E+02  0.51616048787E+02  0.64072959444E+02  0.00000000000E+00 0. -1.
        -12    1    6    6    0    0  0.10145737325E+02  0.46025327418E+02  0.91267043877E+02  0.10271776890E+03  0.00000000000E+00 0.  1.
</event>
<event>
12    1  0.8494789E-002  0.2236101E+03  0.7818608E-02  0.1131249E+00
         21   -1    0    0  501  502  0.00000000000E+00  0.00000000000E+00  0.10263000377E+03  0.10263000377E+03  0.00000000000E+00 0.  1.
         21   -1    0    0  502  503 -0.00000000000E+00 -0.00000000000E+00 -0.10016708918E+04  0.10016708918E+04  0.00000000000E+00 0. -1.
         -6    2    1    2    0  503  0.65282825200E+02 -0.12888545701E+03 -0.84544272821E+03  0.87451409135E+03  0.17066980103E+03 0.  0.
        -24    2    3    3    0    0  0.41668512174E+02 -0.54203222910E+02 -0.21875753282E+03  0.24293551667E+03  0.80551553760E+02 0.  0.
          6    2    1    2  501    0 -0.65282825200E+02  0.12888545701E+03 -0.53598159826E+02  0.22978680423E+03  0.17045792550E+03 0.  0.
         24    2    5    5    0    0 -0.23593865544E+02  0.35762751214E+02  0.32405476106E+02  0.96263311596E+02  0.79880319304E+02 0.  0.
          5    1    5    5  501    0 -0.41688959656E+02  0.93122705799E+02 -0.86003635932E+02  0.13352349264E+03  0.47000000000E+01 0. -1.
        -11    1    6    6    0    0 -0.35221616785E+02  0.56437840674E+02  0.19850282483E+02  0.69424965708E+02  0.00000000000E+00 0.  1.
         12    1    6    6    0    0  0.11627751241E+02 -0.20675089460E+02  0.12555193623E+02  0.26838345888E+02  0.00000000000E+00 0. -1.
         -5    1    3    3    0  503  0.23614313025E+02 -0.74682234103E+02 -0.62668519539E+03  0.63157857468E+03  0.47000000000E+01 0.  1.
         11    1    4    4    0    0  0.53206269402E+02 -0.64935045964E+02 -0.20669075772E+03  0.22308862953E+03  0.00000000000E+00 0. -1.
        -12    1    4    4    0    0 -0.11537757228E+02  0.10731823054E+02 -0.12066775106E+02  0.19846887146E+02  0.00000000000E+00 0.  1.
</event>
<event>
12    1  0.8494789E-002  0.2444892E+03  0.7818608E-02  0.1117157E+00
         21   -1    0    0  503  502  0.00000000000E+00  0.00000000000E+00  0.47989924137E+02  0.47989924137E+02  0.00000000000E+00 0. -1.
         21   -1    0    0  501  503 -0.00000000000E+00 -0.00000000000E+00 -0.12394969850E+04  0.12394969850E+04  0.00000000000E+00 0.  1.
          6    2    1    2  501    0  0.15527936140E+03 -0.77590234584E+02 -0.55750222212E+03  0.60797452053E+03  0.16938820907E+03 0.  0.
         24    2    3    3    0    0  0.38132703902E+02 -0.86898548415E+02 -0.26017760815E+03  0.28823400052E+03  0.79881101947E+02 0.  0.
         -6    2    1    2    0  502 -0.15527936140E+03  0.77590234584E+02 -0.63400483879E+03  0.67951238865E+03  0.17217150211E+03 0.  0.
        -24    2    5    5    0    0 -0.12576528130E+02  0.20307401798E+02 -0.31370994923E+03  0.32418672418E+03  0.78182736314E+02 0.  0.
          5    1    3    3  501    0  0.11714665750E+03  0.93083138309E+01 -0.29732461397E+03  0.31974052002E+03  0.47000000000E+01 0. -1.
        -11    1    4    4    0    0  0.25989495729E+02  0.24677507645E+01 -0.11000996284E+03  0.11306518299E+03  0.00000000000E+00 0.  1.
         12    1    4    4    0    0  0.12143208173E+02 -0.89366299179E+02 -0.15016764531E+03  0.17516881752E+03  0.00000000000E+00 0. -1.
         -5    1    5    5    0  502 -0.14270283327E+03  0.57282832786E+02 -0.32029488956E+03  0.35532566447E+03  0.47000000000E+01 0.  1.
         13    1    6    6    0    0  0.64771529178E+00  0.28883861227E+02 -0.36600255714E+02  0.46629129231E+02  0.00000000000E+00 0. -1.
        -14    1    6    6    0    0 -0.13224243422E+02 -0.85764594294E+01 -0.27710969352E+03  0.27755759495E+03  0.00000000000E+00 0.  1.
</event>
<event>
12    1  0.8494789E-002  0.1818745E+03  0.7818608E-02  0.1166373E+00
         21   -1    0    0  503  502  0.00000000000E+00  0.00000000000E+00  0.30138200231E+03  0.30138200231E+03  0.00000000000E+00 0. -1.
         21   -1    0    0  501  503 -0.00000000000E+00 -0.00000000000E+00 -0.19294709626E+03  0.19294709626E+03  0.00000000000E+00 0. -1.
          6    2    1    2  501    0 -0.41052914786E+01 -0.59456579903E+02 -0.10911690843E+03  0.21076757926E+03  0.17018970137E+03 0.  0.
         24    2    3    3    0    0  0.15630659512E+02 -0.10101267845E+03 -0.46390288275E+02  0.13283725164E+03  0.71033779655E+02 0.  0.
         -6    2    1    2    0  502  0.41052914786E+01  0.59456579903E+02  0.21755181448E+03  0.28356151931E+03  0.17183249093E+03 0.  0.
        -24    2    5    5    0    0 -0.81712238762E+01 -0.24774255607E+02  0.52541982968E+02  0.97830851474E+02  0.78292291354E+02 0.  0.
          5    1    3    3  501    0 -0.19735950991E+02  0.41556098548E+02 -0.62726620152E+02  0.77930327625E+02  0.47000000000E+01 0. -1.
        -13    1    4    4    0    0  0.16899665128E+02  0.45079501975E+01 -0.14139030521E+02  0.22490719875E+02  0.00000000000E+00 0.  1.
         14    1    4    4    0    0 -0.12690056153E+01 -0.10552062865E+03 -0.32251257754E+02  0.11034653176E+03  0.00000000000E+00 0. -1.
         -5    1    5    5    0  502  0.12276515355E+02  0.84230835510E+02  0.16500983151E+03  0.18573066784E+03  0.47000000000E+01 0.  1.
         11    1    6    6    0    0  0.22854634441E+01 -0.46522923575E+02  0.56662047616E+02  0.73349801644E+02  0.00000000000E+00 0. -1.
        -12    1    6    6    0    0 -0.10456687320E+02  0.21748667968E+02 -0.41200646484E+01  0.24481049830E+02  0.00000000000E+00 0.  1.
</event>
<event>
12    1  0.8494789E-002  0.1901504E+03  0.7818608E-02  0.1159240E+00
         21   -1    0    0  501  502  0.00000000000E+00  0.00000000000E+00  0.49664961962E+03  0.49664961962E+03  0.00000000000E+00 0. -1.
         21   -1    0    0  502  503 -0.00000000000E+00 -0.00000000000E+00 -0.10632387856E+03  0.10632387856E+03  0.00000000000E+00 0. -1.
         -6    2    1    2    0  503  0.17349796983E+02  0.69539832563E+02  0.23464025416E+02  0.19159265684E+03  0.17612603980E+03 0.  0.
        -24    2    3    3    0    0 -0.19109247661E+02  0.90589899817E+02 -0.26841896689E+02  0.12582683694E+03  0.80871578327E+02 0.  0.
          6    2    1    2  501    0 -0.17349796983E+02 -0.69539832563E+02  0.36686171564E+03  0.41138084134E+03  0.17178438360E+03 0.  0.
         24    2    5    5    0    0 -0.33641417339E+02 -0.56279576603E+02  0.10639751747E+03  0.15002870377E+03  0.83000268244E+02 0.  0.
          5    1    5    5  501    0  0.16291620357E+02 -0.13260255959E+02  0.26046419817E+03  0.26135213757E+03  0.47000000000E+01 0. -1.
        -11    1    6    6    0    0 -0.76370760617E+01  0.18812312279E+02  0.44801171847E+01  0.20791812669E+02  0.00000000000E+00 0.  1.
         12    1    6    6    0    0 -0.26004341278E+02 -0.75091888883E+02  0.10191740028E+03  0.12923689110E+03  0.00000000000E+00 0. -1.
         -5    1    3    3    0  503  0.36459044644E+02 -0.21050067254E+02  0.50305922105E+02  0.65765819896E+02  0.47000000000E+01 0.  1.
         11    1    4    4    0    0  0.25489073945E+02  0.65559807644E+02 -0.59828064418E+01  0.70594442004E+02  0.00000000000E+00 0. -1.
        -12    1    4    4    0    0 -0.44598321607E+02  0.25030092173E+02 -0.20859090248E+02  0.55232394935E+02  0.00000000000E+00 0.  1.
</event>
<event>
12    1  0.8494789E-002  0.1821814E+03  0.7818608E-02  0.1165770E+00
         21   -1    0    0  501  502  0.00000000000E+00  0.00000000000E+00  0.13005675106E+04  0.13005675106E+04  0.00000000000E+00 0.  1.
         21   -1    0    0  502  503 -0.00000000000E+00 -0.00000000000E+00 -0.70232894754E+02  0.70232894754E+02  0.00000000000E+00 0.  1.
         -6    2    1    2    0  503  0.47128513823E+02 -0.38512666635E+02  0.67910917885E+02  0.19418708047E+03  0.17144213936E+03 0.  0.
        -24    2    3    3    0    0  0.15409862621E+02  0.15026079651E+02  0.83530569934E+02  0.12985564400E+03  0.97066395987E+02 0.  0.
          6    2    1    2  501    0 -0.47128513823E+02  0.38512666635E+02  0.11624236980E+04  0.11766133249E+04  0.17171412408E+03 0.  0.
         24    2    5    5    0    0 -0.92445882800E+02 -0.66280450977E+00  0.76500492573E+03  0.77467781763E+03  0.79664949505E+02 0.  0.
          5    1    5    5  501    0  0.45317368977E+02  0.39175471145E+02  0.39741877225E+03  0.40193550728E+03  0.47000000000E+01 0. -1.
        -13    1    6    6    0    0 -0.26622657489E+02 -0.16899427751E+02  0.50486047934E+03  0.50584430425E+03  0.00000000000E+00 0.  1.
         14    1    6    6    0    0 -0.65823225310E+02  0.16236623241E+02  0.26014444639E+03  0.26883351337E+03  0.00000000000E+00 0. -1.
         -5    1    3    3    0  503  0.31718651201E+02 -0.53538746285E+02 -0.15619652050E+02  0.64331436468E+02  0.47000000000E+01 0.  1.
         11    1    4    4    0    0  0.25893141522E+02 -0.28245576881E+02  0.37613641599E+01  0.38502146064E+02  0.00000000000E+00 0. -1.
        -12    1    4    4    0    0 -0.10483278900E+02  0.43271656532E+02  0.79769205775E+02  0.91353497938E+02  0.00000000000E+00 0.  1.
</event>
<event>
12    1  0.8494789E-002  0.1768530E+03  0.7818608E-02  0.1171417E+00
         21   -1    0    0  503  502  0.00000000000E+00  0.00000000000E+00  0.74134177699E+03  0.74134177699E+03  0.00000000000E+00 0. -1.
         21   -1    0    0  501  503 -0.00000000000E+00 -0.00000000000E+00 -0.81245207474E+02  0.81245207474E+02  0.00000000000E+00 0. -1.
          6    2    1    2  501    0  0.17895823979E+02 -0.35386057015E+02  0.44066410143E+02  0.18226038348E+03  0.17235012428E+03 0.  0.
         24    2    3    3    0    0  0.51262739839E+02 -0.33231715385E+02  0.79798765462E+02  0.13309857434E+03  0.87264953552E+02 0.  0.
         -6    2    1    2    0  502 -0.17895823979E+02  0.35386057015E+02  0.61603015938E+03  0.64032660098E+03  0.17015453305E+03 0.  0.
        -24    2    5    5    0    0 -0.25377435663E+02  0.87600564806E+02  0.40922949876E+03  0.42685310715E+03  0.80105675416E+02 0.  0.
          5    1    3    3  501    0 -0.33366915859E+02 -0.21543416299E+01 -0.35732355319E+02  0.49161809146E+02  0.47000000000E+01 0. -1.
        -13    1    4    4    0    0  0.57463943788E+02 -0.56147343132E+02  0.72619487649E+02  0.10829690191E+03  0.00000000000E+00 0.  1.
         14    1    4    4    0    0 -0.62012039496E+01  0.22915627746E+02  0.71792778130E+01  0.24801672431E+02  0.00000000000E+00 0. -1.
         -5    1    5    5    0  502  0.74816116832E+01 -0.52214507790E+02  0.20680066062E+03  0.21347349384E+03  0.47000000000E+01 0.  1.
         11    1    6    6    0    0 -0.43116503361E+02  0.25090408498E+02  0.24902722651E+03  0.25397464638E+03  0.00000000000E+00 0. -1.
        -12    1    6    6    0    0  0.17739067698E+02  0.62510156307E+02  0.16020227225E+03  0.17287846077E+03  0.00000000000E+00 0.  1.
</event>
<event>
12    1  0.8494789E-002  0.1757037E+03  0.7818608E-02  0.1172482E+00
         21   -1    0    0  501  502  0.00000000000E+00  0.00000000000E+00  0.32903257015E+04  0.32903257015E+04  0.00000000000E+00 0. -1.
         21   -1    0    0  502  503 -0.00000000000E+00 -0.00000000000E+00 -0.94322292333E+01  0.94322292333E+01  0.00000000000E+00 0. -1.
         -6    2    1    2    0  503  0.34540096894E+02 -0.15600872031E+02  0.14267291680E+04  0.14372872421E+04  0.16971179135E+03 0.  0.
        -24    2    3    3    0    0 -0.12942210103E+02 -0.56646869345E+02  0.49853167791E+03  0.50695826056E+03  0.71389603331E+02 0.  0.
          6    2    1    2  501    0 -0.34540096894E+02  0.15600872031E+02  0.18541643043E+04  0.18624706886E+04  0.17156745936E+03 0.  0.
         24    2    5    5    0    0 -0.36604482309E+02 -0.40223489112E+02  0.15599372285E+04  0.15629506006E+04  0.80328113960E+02 0.  0.
          5    1    5    5  501    0  0.20643854150E+01  0.55824361143E+02  0.29422707582E+03  0.29952008803E+03  0.47000000000E+01 0. -1.
        -13    1    6    6    0    0 -0.38367057002E+02 -0.46208313470E+02  0.60110113135E+03  0.60409420574E+03  0.00000000000E+00 0.  1.
         14    1    6    6    0    0  0.17625746932E+01  0.59848243578E+01  0.95883609715E+03  0.95885639487E+03  0.00000000000E+00 0. -1.
         -5    1    3    3    0  503  0.47482306997E+02  0.41045997314E+02  0.92819749006E+03  0.93032898155E+03  0.47000000000E+01 0.  1.
         13    1    4    4    0    0 -0.21414072351E+02 -0.72521265507E+01  0.42128342191E+02  0.47811641364E+02  0.00000000000E+00 0. -1.
        -14    1    4    4    0    0  0.84718622482E+01 -0.49394742795E+02  0.45640333572E+03  0.45914661920E+03  0.00000000000E+00 0.  1.
</event>
<event>
12    1  0.8494789E-002  0.2138383E+03  0.7818608E-02  0.1138695E+00
         21   -1    0    0  501  502  0.00000000000E+00  0.00000000000E+00  0.34660969641E+02  0.34660969641E+02  0.00000000000E+00 0.  1.
         21   -1    0    0  502  503 -0.00000000000E+00 -0.00000000000E+00 -0.19239387035E+04  0.19239387035E+04  0.00000000000E+00 0.  1.
         -6    2    1    2    0  503  0.10913716272E+03 -0.63932348058E+02 -0.14966047536E+04  0.15118044213E+04  0.17241970378E+03 0.  0.
        -24    2    3    3    0    0  0.30886351980E+02  0.24868534238E+02 -0.45997218810E+03  0.46842627700E+03  0.79223433569E+02 0.  0.
          6    2    1    2  501    0 -0.10913716272E+03  0.63932348058E+02 -0.39267298022E+03  0.44679525184E+03  0.17156824372E+03 0.  0.
         24    2    5    5    0    0 -0.86914991384E+02  0.71939626846E+02 -0.39855660655E+03  0.42200314682E+03  0.80683094038E+02 0.  0.
          5    1    5    5  501    0 -0.22222171333E+02 -0.80072787886E+01  0.58836263284E+01  0.24792105016E+02  0.47000000000E+01 0. -1.
        -11    1    6    6    0    0 -0.49395387280E+02  0.36904626270E+02 -0.89323700249E+02  0.10853837640E+03  0.00000000000E+00 0.  1.
         12    1    6    6    0    0 -0.37519604104E+02  0.35035000577E+02 -0.30923290630E+03  0.31346477042E+03  0.00000000000E+00 0. -1.
         -5    1    3    3    0  503  0.78250810737E+02 -0.88800882295E+02 -0.10366325655E+04  0.10433781443E+04  0.47000000000E+01 0.  1.
         13    1    4    4    0    0 -0.12854118237E+02 -0.21152672753E+02 -0.11112151480E+03  0.11384487240E+03  0.00000000000E+00 0. -1.
        -14    1    4    4    0    0  0.43740470217E+02  0.46021206991E+02 -0.34885067329E+03  0.35458140460E+03  0.00000000000E+00 0.  1.
</event>
<event>
12    1  0.8494789E-002  0.2332850E+03  0.7818608E-02  0.1124447E+00
         21   -1    0    0  503  502  0.00000000000E+00  0.00000000000E+00  0.77292650618E+03  0.77292650618E+03  0.00000000000E+00 0. -1.
         21   -1    0    0  501  503 -0.00000000000E+00 -0.00000000000E+00 -0.20711907642E+03  0.20711907642E+03  0.00000000000E+00 0.  1.
          6    2    1    2  501    0 -0.15794493911E+03  0.18881128298E+02 -0.11557408081E+03  0.25983542794E+03  0.16986459509E+03 0.  0.
         24    2    3    3    0    0 -0.17862832684E+03 -0.20799779044E+01 -0.12131819647E+03  0.22946677031E+03  0.77617578064E+02 0.  0.
         -6    2    1    2    0  502  0.15794493911E+03 -0.18881128298E+02  0.68138151057E+03  0.72021015465E+03  0.17064232513E+03 0.  0.
        -24    2    5    5    0    0  0.13272278731E+03 -0.53316433710E+02  0.63985147409E+03  0.66047087837E+03  0.79711303543E+02 0.  0.
          5    1    3    3  501    0  0.20683387736E+02  0.20961106203E+02  0.57441156589E+01  0.30368657629E+02  0.47000000000E+01 0. -1.
        -11    1    4    4    0    0  0.78384504203E+01  0.96622541868E+00 -0.80243125241E+01  0.11258973667E+02  0.00000000000E+00 0.  1.
         12    1    4    4    0    0 -0.18646677726E+03 -0.30462033231E+01 -0.11329388394E+03  0.21820779665E+03  0.00000000000E+00 0. -1.
         -5    1    5    5    0  502  0.25222151802E+02  0.34435305412E+02  0.41530036481E+02  0.59739276280E+02  0.47000000000E+01 0.  1.
         11    1    6    6    0    0  0.74396777193E+02  0.42479680472E+01  0.40330423579E+03  0.41013075025E+03  0.00000000000E+00 0. -1.
        -12    1    6    6    0    0  0.58326010113E+02 -0.57564401757E+02  0.23654723829E+03  0.25034012813E+03  0.00000000000E+00 0.  1.
</event>
<event>
12    1  0.8494789E-002  0.1931137E+03  0.7818608E-02  0.1155724E+00
         21   -1    0    0  503  502  0.00000000000E+00  0.00000000000E+00  0.45321888706E+03  0.45321888706E+03  0.00000000000E+00 0.  1.
         21   -1    0    0  501  503 -0.00000000000E+00 -0.00000000000E+00 -0.30296144136E+03  0.30296144136E+03  0.00000000000E+00 0. -1.
          6    2    1    2  501    0  0.47057078862E+02  0.73272462255E+02 -0.24760598509E+03  0.31400895504E+03  0.17236495467E+03 0.  0.
         24    2    3    3    0    0 -0.28485185405E+01  0.75309127640E+02 -0.71646990823E+02  0.13103798926E+03  0.79737598227E+02 0.  0.
         -6    2    1    2    0  502 -0.47057078862E+02 -0.73272462255E+02  0.39786343079E+03  0.44217137338E+03  0.17215397607E+03 0.  0.
        -24    2    5    5    0    0  0.13639440635E+02 -0.33535409638E+02  0.33390877276E+03  0.34534478037E+03  0.80357269494E+02 0.  0.
          5    1    3    3  501    0  0.49905597402E+02 -0.20366653847E+01 -0.17595899426E+03  0.18297096578E+03  0.47000000000E+01 0. -1.
        -13    1    4    4    0    0  0.72853265383E+00  0.25270089613E+02  0.16093338956E+02  0.29968379129E+02  0.00000000000E+00 0.  1.
         14    1    4    4    0    0 -0.35770511943E+01  0.50039038027E+02 -0.87740329779E+02  0.10106961013E+03  0.00000000000E+00 0. -1.
         -5    1    5    5    0  502 -0.60696519496E+02 -0.39737052617E+02  0.63954658034E+02  0.96826593010E+02  0.47000000000E+01 0.  1.
         13    1    6    6    0    0 -0.74704133679E+01 -0.15420828785E+02  0.92036575099E+01  0.19450355983E+02  0.00000000000E+00 0. -1.
        -14    1    6    6    0    0  0.21109854002E+02 -0.18114580854E+02  0.32470511525E+03  0.32589442439E+03  0.00000000000E+00 0.  1.
</event>
<event>
12    1  0.8494789E-002  0.1917154E+03  0.7818608E-02  0.1157063E+00
         21   -1    0    0  501  502  0.00000000000E+00  0.00000000000E+00  0.34356492563E+02  0.34356492563E+02  0.00000000000E+00 0.  1.
         21   -1    0    0  502  503 -0.00000000000E+00 -0.00000000000E+00 -0.16230568347E+04  0.16230568347E+04  0.00000000000E+00 0.  1.
         -6    2    1    2    0  503 -0.55098182491E+02  0.62254712157E+02 -0.12805667938E+04  0.12948382486E+04  0.17275218605E+03 0.  0.
        -24    2    3    3    0    0  0.24461170427E+02  0.99057022014E+01 -0.83388849340E+03  0.83809575713E+03  0.79611600243E+02 0.  0.
          6    2    1    2  501    0  0.55098182491E+02 -0.62254712157E+02 -0.30813354835E+03  0.36257507867E+03  0.17205506430E+03 0.  0.
         24    2    5    5    0    0  0.98691670761E+02 -0.31979369111E+02 -0.17282534746E+03  0.21715366399E+03  0.80773678484E+02 0.  0.
          5    1    5    5  501    0 -0.43593488270E+02 -0.30275343046E+02 -0.13530820089E+03  0.14542141467E+03  0.47000000000E+01 0. -1.
        -11    1    6    6    0    0  0.32860053156E+02 -0.47546999944E+02 -0.11266524736E+03  0.12662526707E+03  0.00000000000E+00 0.  1.
         12    1    6    6    0    0  0.65831617605E+02  0.15567630833E+02 -0.60160100094E+02  0.90528396924E+02  0.00000000000E+00 0. -1.
         -5    1    3    3    0  503 -0.79559352918E+02  0.52349009956E+02 -0.44667830043E+03  0.45674249151E+03  0.47000000000E+01 0.  1.
         13    1    4    4    0    0 -0.10558083785E+02 -0.27008842458E+02 -0.43662231883E+03  0.43758427760E+03  0.00000000000E+00 0. -1.
        -14    1    4    4    0    0  0.35019254212E+02  0.36914544659E+02 -0.39726617457E+03  0.40051147953E+03  0.00000000000E+00 0.  1.
</event>
<event>
12    1  0.8494789E-002  0.2344531E+03  0.7818608E-02  0.1123566E+00
         21   -1    0    0  503  502  0.00000000000E+00  0.00000000000E+00  0.11419383804E+03  0.11419383804E+03  0.00000000000E+00 0.  1.
         21   -1    0    0  501  503 -0.00000000000E+00 -0.00000000000E+00 -0.77962280674E+03  0.77962280674E+03  0.00000000000E+00 0.  1.
          6    2    1    2  501    0 -0.10328547863E+02  0.15942109826E+03 -0.60931699732E+03  0.65286710757E+03  0.17159980028E+03 0.  0.
         24    2    3    3    0    0 -0.55496728644E+02  0.12414538657E+03 -0.27095117405E+03  0.30964988664E+03  0.63059889612E+02 0.  0.
         -6    2    1    2    0  502  0.10328547863E+02 -0.15942109826E+03 -0.56111971384E+02  0.24094953721E+03  0.17142450431E+03 0.  0.
        -24    2    5    5    0    0 -0.54203149194E+02 -0.54055122476E+02 -0.27027936256E+01  0.10626115966E+03  0.73649109367E+02 0.  0.
          5    1    3    3  501    0  0.45168180780E+02  0.35275711691E+02 -0.33836582326E+03  0.34321722093E+03  0.47000000000E+01 0. -1.
        -11    1    4    4    0    0 -0.68014194854E+02  0.88346291123E+02 -0.21250099253E+03  0.23997431046E+03  0.00000000000E+00 0.  1.
         12    1    4    4    0    0  0.12517466210E+02  0.35799095446E+02 -0.58450181526E+02  0.69675576176E+02  0.00000000000E+00 0. -1.
         -5    1    5    5    0  502  0.64531697057E+02 -0.10536597578E+03 -0.53409177759E+02  0.13468837755E+03  0.47000000000E+01 0.  1.
         13    1    6    6    0    0 -0.53540303712E+02 -0.71182570142E+02 -0.29488749773E+01  0.89119124083E+02  0.00000000000E+00 0. -1.
        -14    1    6    6    0    0 -0.66284548178E+00  0.17127447667E+02  0.24608135166E+00  0.17142035578E+02  0.00000000000E+00 0.  1.
</event>
<event>
12    1  0.8494789E-002  0.2623002E+03  0.7818608E-02  0.1106130E+00
         21   -1    0    0  503  502  0.00000000000E+00  0.00000000000E+00  0.19843111110E+03  0.19843111110E+03  0.00000000000E+00 0. -1.
         21   -1    0    0  501  503 -0.00000000000E+00 -0.00000000000E+00 -0.47529605333E+03  0.47529605333E+03  0.00000000000E+00 0. -1.
          6    2    1    2  501    0  0.15248899486E+03 -0.12396149345E+03 -0.31625781417E+03  0.41087760055E+03  0.17372982529E+03 0.  0.
         24    2    3    3    0    0  0.34552812467E+02 -0.69757927969E+01 -0.17724085618E+03  0.19421564753E+03  0.71153623322E+02 0.  0.
         -6    2    1    2    0  502 -0.15248899486E+03  0.12396149345E+03  0.39392871944E+02  0.26284956388E+03  0.17005513653E+03 0.  0.
        -24    2    5    5    0    0 -0.50160662508E+02  0.88317059212E+02  0.75364610920E+02  0.14857940461E+03  0.77974482261E+02 0.  0.
          5    1    3    3  501    0  0.11793618240E+03 -0.11698570066E+03 -0.13901695799E+03  0.21666195302E+03  0.47000000000E+01 0. -1.
        -11    1    4    4    0    0  0.23439839599E+01 -0.31381180450E+02 -0.12059203892E+03  0.12463030369E+03  0.00000000000E+00 0.  1.
         12    1    4    4    0    0  0.32208828507E+02  0.24405387653E+02 -0.56648817260E+02  0.69585343839E+02  0.00000000000E+00 0. -1.
         -5    1    5    5    0  502 -0.10232833235E+03  0.35644434240E+02 -0.35971738976E+02  0.11427015927E+03  0.47000000000E+01 0.  1.
         13    1    6    6    0    0 -0.68274378666E+02  0.69261283528E+02  0.41580959883E+02  0.10577094309E+03  0.00000000000E+00 0. -1.
        -14    1    6    6    0    0  0.18113716158E+02  0.19055775685E+02  0.33783651037E+02  0.42808461516E+02  0.00000000000E+00 0.  1.
</event>
<event>
12    1  0.8494789E-002  0.2340012E+03  0.7818608E-02  0.1124105E+00
         21   -1    0    0  501  502  0.00000000000E+00  0.00000000000E+00  0.67918677862E+03  0.67918677862E+03  0.00000000000E+00 0. -1.
         21   -1    0    0  502  503 -0.00000000000E+00 -0.00000000000E+00 -0.97638522637E+02  0.97638522637E+02  0.00000000000E+00 0.  1.
         -6    2    1    2    0  503 -0.15854891042E+02  0.15715057579E+03  0.12552265871E+03  0.26426710672E+03  0.17068533858E+03 0.  0.
        -24    2    3    3    0    0 -0.72902572307E+02  0.11751314564E+03  0.79693157427E+02  0.18091246082E+03  0.85171560344E+02 0.  0.
          6    2    1    2  501    0  0.15854891042E+02 -0.15715057579E+03  0.45602559727E+03  0.51255819453E+03  0.17265247282E+03 0.  0.
         24    2    5    5    0    0  0.19580508111E+02 -0.15829760848E+03  0.25374456019E+03  0.31018501481E+03  0.79918160882E+02 0.  0.
          5    1    5    5  501    0 -0.37256170690E+01  0.11470326938E+01  0.20228103708E+03  0.20237317972E+03  0.47000000000E+01 0. -1.
        -13    1    6    6    0    0  0.12537656434E+02 -0.19668327956E+02  0.29110610179E+01  0.23505536150E+02  0.00000000000E+00 0.  1.
         14    1    6    6    0    0  0.70428516769E+01 -0.13862928052E+03  0.25083349917E+03  0.28667947866E+03  0.00000000000E+00 0. -1.
         -5    1    3    3    0  503  0.57047681265E+02  0.39637430141E+02  0.45829501281E+02  0.83354645903E+02  0.47000000000E+01 0.  1.
         13    1    4    4    0    0 -0.19178810971E+02 -0.90964885778E+01 -0.13588326485E+01  0.21270150937E+02  0.00000000000E+00 0. -1.
        -14    1    4    4    0    0 -0.53723761336E+02  0.12660963422E+03  0.81051990075E+02  0.15964230988E+03  0.00000000000E+00 0.  1.
</event>
<event>
12    1  0.8494789E-002  0.1740078E+03  0.7818608E-02  0.1173850E+00
         21   -1    0    0  501  502  0.00000000000E+00  0.00000000000E+00  0.13434971814E+04  0.13434971814E+04  0.00000000000E+00 0. -1.
         21   -1    0    0  502  503 -0.00000000000E+00 -0.00000000000E+00 -0.25389816986E+02  0.25389816986E+02  0.00000000000E+00 0. -1.
         -6    2    1    2    0  503  0.22886644593E+02 -0.60293375015E+01  0.42642574065E+03  0.46038558543E+03  0.17191807226E+03 0.  0.
        -24    2    3    3    0    0  0.42727000377E+02 -0.62020570505E+02  0.33814133781E+03  0.35387322147E+03  0.72211805200E+02 0.  0.
          6    2    1    2  501    0 -0.22886644593E+02  0.60293375015E+01  0.89168162380E+03  0.90850141300E+03  0.17239068357E+03 0.  0.
         24    2    5    5    0    0 -0.47358051163E+02  0.60872433098E+02  0.65323557824E+03  0.66256397885E+03  0.79536578137E+02 0.  0.
          5    1    5    5  501    0  0.24471406570E+02 -0.54843095596E+02  0.23844604556E+03  0.24593743415E+03  0.47000000000E+01 0. -1.
        -11    1    6    6    0    0  0.12319219874E+02  0.13621512021E+02  0.33786287691E+02  0.38455454801E+02  0.00000000000E+00 0.  1.
         12    1    6    6    0    0 -0.59677271036E+02  0.47250921077E+02  0.61944929055E+03  0.62410852405E+03  0.00000000000E+00 0. -1.
         -5    1    3    3    0  503 -0.19840355784E+02  0.55991233004E+02  0.88284402842E+02  0.10651236396E+03  0.47000000000E+01 0.  1.
         11    1    4    4    0    0  0.15986276185E+01 -0.62891060272E+02  0.21715497980E+03  0.22608433454E+03  0.00000000000E+00 0. -1.
        -12    1    4    4    0    0  0.41128372759E+02  0.87048976712E+00  0.12098635801E+03  0.12778888693E+03  0.00000000000E+00 0.  1.
</event>
<event>
12    1  0.8494789E-002  0.2127656E+03  0.7818608E-02  0.1139564E+00
         21   -1    0    0  501  502  0.00000000000E+00  0.00000000000E+00  0.73029815344E+03  0.73029815344E+03  0.00000000000E+00 0.  1.
         21   -1    0    0  502  503 -0.00000000000E+00 -0.00000000000E+00 -0.62416688997E+02  0.62416688997E+02  0.00000000000E+00 0. -1.
         -6    2    1    2    0  503  0.60043351411E+02 -0.10768927373E+03  0.29180242228E+03  0.36062153313E+03  0.17232832844E+03 0.  0.
        -24    2    3    3    0    0 -0.83255395496E+01 -0.35519986688E+02  0.22522558584E+03  0.24088316670E+03  0.77247339260E+02 0.  0.
          6    2    1    2  501    0 -0.60043351411E+02  0.10768927373E+03  0.37607904217E+03  0.43209330931E+03  0.17339838024E+03 0.  0.
         24    2    5    5    0    0  0.70600418955E+01  0.29701915967E+02  0.27471445261E+03  0.28758807280E+03  0.79415496839E+02 0.  0.
          5    1    5    5  501    0 -0.67103393307E+02  0.77987357763E+02  0.10136458956E+03  0.14450523652E+03  0.47000000000E+01 0. -1.
        -13    1    6    6    0    0  0.24738551715E+01 -0.96383586524E+01  0.21902341729E+03  0.21924934490E+03  0.00000000000E+00 0.  1.
         14    1    6    6    0    0  0.45861867240E+01  0.39340274619E+02  0.55691035322E+02  0.68338727900E+02  0.00000000000E+00 0. -1.
         -5    1    3    3    0  503  0.68368890961E+02 -0.72169287042E+02  0.66576836440E+02  0.11973836642E+03  0.47000000000E+01 0.  1.
         13    1    4    4    0    0 -0.21520027918E+02 -0.15942657082E+02  0.17889648302E+02  0.32207443748E+02  0.00000000000E+00 0. -1.
        -14    1    4    4    0    0  0.13194488368E+02 -0.19577329606E+02  0.20733593754E+03  0.20867572296E+03  0.00000000000E+00 0.  1.
</event>
<event>
12    1  0.8494789E-002  0.1741271E+03  0.7818608E-02  0.1173811E+00
         21   -1    0    0  501  502  0.00000000000E+00  0.00000000000E+00  0.36537096013E+02  0.36537096013E+02  0.00000000000E+00 0. -1.
         21   -1    0    0  502  503 -0.00000000000E+00 -0.00000000000E+00 -0.88891518850E+03  0.88891518850E+03  0.00000000000E+00 0. -1.
         -6    2    1    2    0  503 -0.23465258582E+02 -0.14666881547E+02 -0.55011063802E+03  0.57701122803E+03  0.17191424440E+03 0.  0.
        -24    2    3    3    0    0  0.15075395584E+02  0.31149775614E+02 -0.46500947094E+03  0.47285343074E+03  0.78479187210E+02 0.  0.
          6    2    1    2  501    0  0.23465258582E+02  0.14666881547E+02 -0.30226745447E+03  0.34844105649E+03  0.17111347125E+03 0.  0.
         24    2    5    5    0    0 -0.82239845922E+00 -0.55947511593E+02 -0.17651769742E+03  0.20211479706E+03  0.81000575876E+02 0.  0.
          5    1    5    5  501    0  0.24287657041E+02  0.70614393140E+02 -0.12574975704E+03  0.14632625943E+03  0.47000000000E+01 0. -1.
        -13    1    6    6    0    0  0.36151688557E+02 -0.95065459185E+01 -0.87145725310E+02  0.94824556106E+02  0.00000000000E+00 0.  1.
         14    1    6    6    0    0 -0.36974087017E+02 -0.46440965675E+02 -0.89371972114E+02  0.10729024095E+03  0.00000000000E+00 0. -1.
         -5    1    3    3    0  503 -0.38540654165E+02 -0.45816657161E+02 -0.85101167082E+02  0.10415779729E+03  0.47000000000E+01 0.  1.
         11    1    4    4    0    0 -0.14560945413E+02 -0.94026819605E+01 -0.29678364073E+03  0.29728935562E+03  0.00000000000E+00 0. -1.
        -12    1    4    4    0    0  0.29636340997E+02  0.40552457575E+02 -0.16822583021E+03  0.17556407512E+03  0.00000000000E+00 0.  1.
</event>
<event>
12    1  0.8494789E-002  0.1823383E+03  0.7818608E-02  0.1168824E+00
         21   -1    0    0  501  502  0.00000000000E+00  0.00000000000E+00  0.30791432650E+03  0.30791432650E+03  0.00000000000E+00 0.  1.
         21   -1    0    0  502  503 -0.00000000000E+00 -0.00000000000E+00 -0.13401847517E+03  0.13401847517E+03  0.00000000000E+00 0.  1.
         -6    2    1    2    0  503  0.31831002312E+02 -0.52600653947E+02 -0.26251427512E+02  0.17118166984E+03  0.15758802346E+03 0.  0.
        -24    2    3    3    0    0 -0.40090018851E+00  0.16871574387E+01  0.33033690501E+02  0.84447148325E+02  0.77698706109E+02 0.  0.
          6    2    1    2  501    0 -0.31831002312E+02  0.52600653947E+02  0.20014727885E+03  0.27075113183E+03  0.17166013123E+03 0.  0.
         24    2    5    5    0    0  0.95606788447E+01  0.62783778352E+02  0.20511217556E+03  0.22758045323E+03  0.75423131258E+02 0.  0.
          5    1    5    5  501    0 -0.41391681156E+02 -0.10183124406E+02 -0.49648967038E+01  0.43170678601E+02  0.47000000000E+01 0. -1.
        -13    1    6    6    0    0  0.30910488290E+02  0.53223940941E+01  0.11034131715E+03  0.11471265159E+03  0.00000000000E+00 0.  1.
         14    1    6    6    0    0 -0.21349809446E+02  0.57461384258E+02  0.94770858409E+02  0.11286780164E+03  0.00000000000E+00 0. -1.
         -5    1    3    3    0  503  0.32231902500E+02 -0.54287811385E+02 -0.59285118013E+02  0.86734521510E+02  0.47000000000E+01 0.  1.
         13    1    4    4    0    0  0.31509190535E+02  0.22480940155E+02  0.10155671515E+02  0.40016989172E+02  0.00000000000E+00 0. -1.
        -14    1    4    4    0    0 -0.31910090724E+02 -0.20793782717E+02  0.22878018986E+02  0.44430159153E+02  0.00000000000E+00 0.  1.
</event>
<event>
12    1  0.8494789E-002  0.2219085E+03  0.7818608E-02  0.1132602E+00
         21   -1    0    0  503  502  0.00000000000E+00  0.00000000000E+00  0.13241203318E+03  0.13241203318E+03  0.00000000000E+00 0.  1.
         21   -1    0    0  501  503 -0.00000000000E+00 -0.00000000000E+00 -0.58065072294E+03  0.58065072294E+03  0.00000000000E+00 0.  1.
          6    2    1    2  501    0 -0.14074874091E+03  0.10943765445E+01 -0.43828319694E+03  0.49093101752E+03  0.17061564264E+03 0.  0.
         24    2    3    3    0    0 -0.13503408852E+03  0.54684571633E+02 -0.31149439142E+03  0.35308306698E+03  0.80089255630E+02 0.  0.
         -6    2    1    2    0  502  0.14074874091E+03 -0.10943765445E+01 -0.99554928282E+01  0.22213173861E+03  0.17155754641E+03 0.  0.
        -24    2    5    5    0    0  0.78297132070E+02  0.52109476712E+01 -0.72536262476E+02  0.13337136856E+03  0.79804872737E+02 0.  0.
          5    1    3    3  501    0 -0.57146523916E+01 -0.53590195088E+02 -0.12678880552E+03  0.13784795053E+03  0.47000000000E+01 0. -1.
        -13    1    4    4    0    0 -0.78205376117E+02 -0.64507963380E+01 -0.19110540784E+03  0.20658889256E+03  0.00000000000E+00 0.  1.
         14    1    4    4    0    0 -0.56828712401E+02  0.61135367971E+02 -0.12038898359E+03  0.14649417442E+03  0.00000000000E+00 0. -1.
         -5    1    5    5    0  502  0.62451608840E+02 -0.63053242157E+01  0.62580769648E+02  0.88760370041E+02  0.47000000000E+01 0.  1.
         11    1    6    6    0    0  0.18328836778E+02 -0.11002559770E+02 -0.67776351071E+02  0.71067829175E+02  0.00000000000E+00 0. -1.
        -12    1    6    6    0    0  0.59968295292E+02  0.16213507441E+02 -0.47599114050E+01  0.62303539389E+02  0.00000000000E+00 0.  1.
</event>
<event>
12    1  0.8494789E-002  0.1918363E+03  0.7818608E-02  0.1157076E+00
         21   -1    0    0  501  502  0.00000000000E+00  0.00000000000E+00  0.26351656197E+03  0.26351656197E+03  0.00000000000E+00 0.  1.
         21   -1    0    0  502  503 -0.00000000000E+00 -0.00000000000E+00 -0.19901158489E+03  0.19901158489E+03  0.00000000000E+00 0.  1.
         -6    2    1    2    0  503  0.45920347207E+02 -0.66849017359E+02 -0.95015446616E+02  0.21303278313E+03  0.17256176339E+03 0.  0.
        -24    2    3    3    0    0  0.29582412201E+02 -0.10669930801E+03 -0.10015474990E+03  0.16940393690E+03  0.80042853953E+02 0.  0.
          6    2    1    2  501    0 -0.45920347207E+02  0.66849017359E+02  0.15952042370E+03  0.24949536373E+03  0.17384965210E+03 0.  0.
         24    2    5    5    0    0  0.13565369351E+02  0.40902326311E+02  0.16031682623E+03  0.18442228552E+03  0.80331034350E+02 0.  0.
          5    1    5    5  501    0 -0.59485716558E+02  0.25946691047E+02 -0.79640252973E+00  0.65073078210E+02  0.47000000000E+01 0. -1.
        -13    1    6    6    0    0 -0.21122562270E+02 -0.69960260493E+01  0.13219573186E+02  0.25881733569E+02  0.00000000000E+00 0.  1.
         14    1    6    6    0    0  0.34687931621E+02  0.47898352360E+02  0.14709725304E+03  0.15854055195E+03  0.00000000000E+00 0. -1.
         -5    1    3    3    0  503  0.16337935006E+02  0.39850290651E+02  0.51393032844E+01  0.43628846232E+02  0.47000000000E+01 0.  1.
         11    1    4    4    0    0 -0.18275325327E+02  0.89685825532E+00 -0.19069743857E+02  0.26428147898E+02  0.00000000000E+00 0. -1.
        -12    1    4    4    0    0  0.47857737528E+02 -0.10759616626E+03 -0.81085006044E+02  0.14297578900E+03  0.00000000000E+00 0.  1.
</event>
<event>
12    1  0.8494789E-002  0.1772245E+03  0.7818608E-02  0.1171571E+00
         21   -1    0    0  503  502  0.00000000000E+00  0.00000000000E+00  0.16268204739E+04  0.16268204739E+04  0.00000000000E+00 0. -1.
         21   -1    0    0  501  503 -0.00000000000E+00 -0.00000000000E+00 -0.28373720868E+02  0.28373720868E+02  0.00000000000E+00 0. -1.
          6    2    1    2  501    0 -0.12283365023E+02 -0.39252385465E+02  0.32616889547E+03  0.37120702486E+03  0.17238583500E+03 0.  0.
         24    2    3    3    0    0  0.16677363163E+02 -0.88143469963E+02  0.20814042141E+03  0.24012738261E+03  0.79317836063E+02 0.  0.
         -6    2    1    2    0  502  0.12283365023E+02  0.39252385465E+02  0.12722778576E+04  0.12839871699E+04  0.16804902512E+03 0.  0.
        -24    2    5    5    0    0 -0.28067926843E+02  0.76773785520E+02  0.85241600837E+03  0.86049910087E+03  0.84638221931E+02 0.  0.
          5    1    3    3  501    0 -0.28960728186E+02  0.48891084498E+02  0.11802847407E+03  0.13107964224E+03  0.47000000000E+01 0. -1.
        -11    1    4    4    0    0  0.41710890526E+02 -0.27723921074E+02  0.12271181260E+03  0.13253906270E+03  0.00000000000E+00 0.  1.
         12    1    4    4    0    0 -0.25033527363E+02 -0.60419548890E+02  0.85428608806E+02  0.10758831992E+03  0.00000000000E+00 0. -1.
         -5    1    5    5    0  502  0.40351291866E+02 -0.37521400055E+02  0.41986184920E+03  0.42348806905E+03  0.47000000000E+01 0.  1.
         11    1    6    6    0    0  0.65572440311E+01  0.48825448008E+00  0.34800641456E+01  0.74395354814E+01  0.00000000000E+00 0. -1.
        -12    1    6    6    0    0 -0.34625170874E+02  0.76285531040E+02  0.84893594423E+03  0.85305956539E+03  0.00000000000E+00 0.  1.
</event>
<event>
12    1  0.8494789E-002  0.1787940E+03  0.7818608E-02  0.1170264E+00
         21   -1    0    0  503  502  0.00000000000E+00  0.00000000000E+00  0.70627746944E+03  0.70627746944E+03  0.00000000000E+00 0.  1.
         21   -1    0    0  501  503 -0.00000000000E+00 -0.00000000000E+00 -0.44267364801E+02  0.44267364801E+02  0.00000000000E+00 0. -1.
          6    2    1    2  501    0  0.18435403649E+02 -0.16050592405E+02  0.36734140001E+03  0.40854255094E+03  0.17711529053E+03 0.  0.
         24    2    3    3    0    0  0.46025184337E+02 -0.65909260059E+02  0.18674707671E+03  0.21911319116E+03  0.81693155922E+02 0.  0.
         -6    2    1    2    0  502 -0.18435403649E+02  0.16050592405E+02  0.29466870463E+03  0.34200228330E+03  0.17186747997E+03 0.  0.
        -24    2    5    5    0    0 -0.31237263473E+02 -0.10884640536E+01  0.30590318574E+03  0.31738646649E+03  0.78615893327E+02 0.  0.
          5    1    3    3  501    0 -0.27589780688E+02  0.49858667654E+02  0.18059432330E+03  0.18942935978E+03  0.47000000000E+01 0. -1.
        -11    1    4    4    0    0  0.24715054010E+02 -0.25605978923E+02  0.16464608789E+03  0.16844831347E+03  0.00000000000E+00 0.  1.
         12    1    4    4    0    0  0.21310130327E+02 -0.40303281135E+02  0.22100988821E+02  0.50664877693E+02  0.00000000000E+00 0. -1.
         -5    1    5    5    0  502  0.12801859824E+02  0.17139056459E+02 -0.11234481114E+02  0.24615816808E+02  0.47000000000E+01 0.  1.
         11    1    6    6    0    0  0.52163442980E+01 -0.29072026358E+02  0.56192430367E+02  0.63482140756E+02  0.00000000000E+00 0. -1.
        -12    1    6    6    0    0 -0.36453607771E+02  0.27983562305E+02  0.24971075537E+03  0.25390432574E+03  0.00000000000E+00 0.  1.
</event>
<event>
12    1  0.8494789E-002  0.1988504E+03  0.7818608E-02  0.1150825E+00
         21   -1    0    0  501  502  0.00000000000E+00  0.00000000000E+00  0.25527258002E+03  0.25527258002E+03  0.00000000000E+00 0. -1.
         21   -1    0    0  502  503 -0.00000000000E+00 -0.00000000000E+00 -0.20404518099E+03  0.20404518099E+03  0.00000000000E+00 0. -1.
         -6    2    1    2    0  503  0.90878842213E+02  0.36985477032E+02 -0.87593405539E+02  0.21680449074E+03  0.17235049474E+03 0.  0.
        -24    2    3    3    0    0  0.12408614559E+03  0.23862019047E+02 -0.36471923928E+02  0.15427093152E+03  0.80638400262E+02 0.  0.
          6    2    1    2  501    0 -0.90878842213E+02 -0.36985477032E+02  0.13882080458E+03  0.24251327027E+03  0.17295832158E+03 0.  0.
         24    2    5    5    0    0 -0.53081124117E+02 -0.49822927839E+02  0.11269256601E+02  0.10877862619E+03  0.80036638462E+02 0.  0.
          5    1    5    5  501    0 -0.37797718096E+02  0.12837450807E+02  0.12755154797E+03  0.13373464408E+03  0.47000000000E+01 0. -1.
        -11    1    6    6    0    0 -0.36419163082E+02  0.15321146769E+02  0.12762905385E+02  0.41520895123E+02  0.00000000000E+00 0.  1.
         12    1    6    6    0    0 -0.16661961035E+02 -0.65144074608E+02 -0.14936487845E+01  0.67257731071E+02  0.00000000000E+00 0. -1.
         -5    1    3    3    0  503 -0.33207303374E+02  0.13123457985E+02 -0.51121481610E+02  0.62533559222E+02  0.47000000000E+01 0.  1.
         11    1    4    4    0    0  0.62979113552E+02  0.52405770281E+02 -0.26390868929E+02  0.86076776574E+02  0.00000000000E+00 0. -1.
        -12    1    4    4    0    0  0.61107032036E+02 -0.28543751234E+02 -0.10081055000E+02  0.68194154945E+02  0.00000000000E+00 0.  1.
</event>
<event>
12    1  0.8494789E-002  0.4397091E+03  0.7818608E-02  0.1030857E+00
         21   -1    0    0  501  502  0.00000000000E+00  0.00000000000E+00  0.26823200110E+03  0.26823200110E+03  0.00000000000E+00 0. -1.
         21   -1    0    0  502  503 -0.00000000000E+00 -0.00000000000E+00 -0.10597858418E+04  0.10597858418E+04  0.00000000000E+00 0. -1.
         -6    2    1    2    0  503  0.35233768367E+03  0.19842188975E+03 -0.77163912213E+03  0.88812783415E+03  0.17271660409E+03 0.  0.
        -24    2    3    3    0    0  0.32692257444E+03  0.13295329502E+03 -0.68756951208E+03  0.77848361859E+03  0.93434266337E+02 0.  0.
          6    2    1    2  501    0 -0.35233768367E+03 -0.19842188975E+03 -0.19914718569E+02  0.43989000874E+03  0.17202771321E+03 0.  0.
         24    2    5    5    0    0 -0.18770109684E+03 -0.53520810500E+02 -0.54860904485E+02  0.21775299157E+03  0.79438451540E+02 0.  0.
          5    1    5    5  501    0 -0.16463658683E+03 -0.14490107925E+03  0.34946185916E+02  0.22213701717E+03  0.47000000000E+01 0. -1.
        -11    1    6    6    0    0 -0.10253645673E+03  0.11852756618E+02 -0.30957288459E+02  0.10776161889E+03  0.00000000000E+00 0.  1.
         12    1    6    6    0    0 -0.85164640116E+02 -0.65373567118E+02 -0.23903616026E+02  0.10999137267E+03  0.00000000000E+00 0. -1.
         -5    1    3    3    0  503  0.25415109225E+02  0.65468594732E+02 -0.84069610041E+02  0.10964421556E+03  0.47000000000E+01 0.  1.
         11    1    4    4    0    0  0.21338291407E+00 -0.37631234713E+00 -0.48212517216E+02  0.48214457993E+02  0.00000000000E+00 0. -1.
        -12    1    4    4    0    0  0.32670919153E+03  0.13332960736E+03 -0.63935699487E+03  0.73026916060E+03  0.00000000000E+00 0.  1.
</event>
<event>
12    1  0.8494789E-002  0.1886189E+03  0.7818608E-02  0.1161597E+00
         21   -1    0    0  501  502  0.00000000000E+00  0.00000000000E+00  0.83777110807E+03  0.83777110807E+03  0.00000000000E+00 0.  1.
         21   -1    0    0  502  503 -0.00000000000E+00 -0.00000000000E+00 -0.56225169623E+02  0.56225169623E+02  0.00000000000E+00 0. -1.
         -6    2    1    2    0  503 -0.78187247129E+02  0.40209111438E+01  0.14947793269E+03  0.23438499980E+03  0.16267532827E+03 0.  0.
        -24    2    3    3    0    0  0.70570769273E+01  0.24831962605E+02  0.35979695270E+02  0.90845337877E+02  0.79321549661E+02 0.  0.
          6    2    1    2  501    0  0.78187247129E+02 -0.40209111438E+01  0.63206800576E+03  0.65961127790E+03  0.17160320710E+03 0.  0.
         24    2    5    5    0    0  0.11303581619E+03  0.22327961204E+02  0.50010563344E+03  0.52052553618E+03  0.86980202505E+02 0.  0.
          5    1    5    5  501    0 -0.34848569066E+02 -0.26348872348E+02  0.13196237232E+03  0.13908574171E+03  0.47000000000E+01 0. -1.
        -13    1    6    6    0    0  0.49786320651E+02  0.45152119078E+02  0.34477676966E+03  0.35126686789E+03  0.00000000000E+00 0.  1.
         14    1    6    6    0    0  0.63249495544E+02 -0.22824157874E+02  0.15532886378E+03  0.16925866829E+03  0.00000000000E+00 0. -1.
         -5    1    3    3    0  503 -0.85244324056E+02 -0.20811051461E+02  0.11349823742E+03  0.14353966192E+03  0.47000000000E+01 0.  1.
         13    1    4    4    0    0  0.62870958007E+01 -0.27586359347E+02  0.19833747489E+01  0.28363155167E+02  0.00000000000E+00 0. -1.
        -14    1    4    4    0    0  0.76998112663E+00  0.52418321952E+02  0.33996320521E+02  0.62482182710E+02  0.00000000000E+00 0.  1.
</event>
<event>
12    1  0.8494789E-002  0.1818070E+03  0.7818608E-02  0.1167227E+00
         21   -1    0    0  501  502  0.00000000000E+00  0.00000000000E+00  0.10007180096E+04  0.10007180096E+04  0.00000000000E+00 0.  1.
         21   -1    0    0  502  503 -0.00000000000E+00 -0.00000000000E+00 -0.47466237783E+02  0.47466237783E+02  0.00000000000E+00 0.  1.
         -6    2    1    2    0  503  0.38912537713E+02  0.14873597686E+02  0.18339371910E+03  0.25823833519E+03  0.17696997501E+03 0.  0.
        -24    2    3    3    0    0 -0.21352082844E+02 -0.37110968396E+02  0.14444900197E+03  0.16950840453E+03  0.77681719987E+02 0.  0.
          6    2    1    2  501    0 -0.38912537713E+02 -0.14873597686E+02  0.76985805274E+03  0.78994591222E+03  0.17203985983E+03 0.  0.
         24    2    5    5    0    0 -0.19046187266E+02  0.58704507812E+00  0.75666336634E+03  0.76113804691E+03  0.80178392462E+02 0.  0.
          5    1    5    5  501    0 -0.19866350447E+02 -0.15460642764E+02  0.13194686398E+02  0.28807865313E+02  0.47000000000E+01 0. -1.
        -13    1    6    6    0    0 -0.44352810941E+02 -0.11751619300E+02  0.61468410848E+03  0.61639421283E+03  0.00000000000E+00 0.  1.
         14    1    6    6    0    0  0.25306623675E+02  0.12338664378E+02  0.14197925786E+03  0.14474383408E+03  0.00000000000E+00 0. -1.
         -5    1    3    3    0  503  0.60264620557E+02  0.51984566082E+02  0.38944717138E+02  0.88729930658E+02  0.47000000000E+01 0.  1.
         11    1    4    4    0    0 -0.35226523423E+02  0.11292477511E+02  0.76098175913E+02  0.84613003599E+02  0.00000000000E+00 0. -1.
        -12    1    4    4    0    0  0.13874440578E+02 -0.48403445907E+02  0.68350826053E+02  0.84895400931E+02  0.00000000000E+00 0.  1.
</event>
<event>
12    1  0.8494789E-002  0.2218678E+03  0.7818608E-02  0.1134217E+00
         21   -1    0    0  501  502  0.00000000000E+00  0.00000000000E+00  0.12210964672E+04  0.12210964672E+04  0.00000000000E+00 0.  1.
         21   -1    0    0  502  503 -0.00000000000E+00 -0.00000000000E+00 -0.49512402997E+02  0.49512402997E+02  0.00000000000E+00 0.  1.
         -6    2    1    2    0  503  0.57978403556E+02 -0.11056535408E+03  0.89258416929E+03  0.91974550943E+03  0.18340967815E+03 0.  0.
        -24    2    3    3    0    0 -0.40324318982E+02 -0.68727638955E+02  0.53356094899E+03  0.54513426777E+03  0.78323333336E+02 0.  0.
          6    2    1    2  501    0 -0.57978403556E+02  0.11056535408E+03  0.27899989493E+03  0.35086336079E+03  0.17227293395E+03 0.  0.
         24    2    5    5    0    0 -0.89015730323E+02  0.30491404815E+02  0.13535836955E+03  0.18344134665E+03  0.80469332307E+02 0.  0.
          5    1    5    5  501    0  0.31037326767E+02  0.80073949264E+02  0.14364152538E+03  0.16742201414E+03  0.47000000000E+01 0. -1.
        -11    1    6    6    0    0 -0.87627754663E+02  0.17927730331E+02  0.61588413653E+02  0.10859631485E+03  0.00000000000E+00 0.  1.
         12    1    6    6    0    0 -0.13879756603E+01  0.12563674484E+02  0.73769955897E+02  0.74845031805E+02  0.00000000000E+00 0. -1.
         -5    1    3    3    0  503  0.98302722538E+02 -0.41837715124E+02  0.35902322030E+03  0.37461124166E+03  0.47000000000E+01 0.  1.
         13    1    4    4    0    0 -0.16903747388E+02 -0.78825718328E+02  0.31758281166E+03  0.32765541779E+03  0.00000000000E+00 0. -1.
        -14    1    4    4    0    0 -0.23420571594E+02  0.10098079373E+02  0.21597813733E+03  0.21747884997E+03  0.00000000000E+00 0.  1.
</event>
<event>
12    1  0.8494789E-002  0.1814515E+03  0.7818608E-02  0.1166525E+00
         21   -1    0    0  501  502  0.00000000000E+00  0.00000000000E+00  0.58295928195E+02  0.58295928195E+02  0.00000000000E+00 0.  1.
         21   -1    0    0  502  503 -0.00000000000E+00 -0.00000000000E+00 -0.56463086124E+03  0.56463086124E+03  0.00000000000E+00 0.  1.
         -6    2    1    2    0  503 -0.17802537428E+02  0.51559365878E+02 -0.23736974401E+03  0.29847813485E+03  0.17253841041E+03 0.  0.
        -24    2    3    3    0    0  0.49281830425E+02  0.49695295355E+02 -0.95146382754E+02  0.14114612395E+03  0.77272718106E+02 0.  0.
          6    2    1    2  501    0  0.17802537428E+02 -0.51559365878E+02 -0.26896518904E+03  0.32444865458E+03  0.17305882814E+03 0.  0.
         24    2    5    5    0    0 -0.17803056685E+02 -0.56805581483E+02 -0.27024706705E+03  0.28813041782E+03  0.80261058474E+02 0.  0.
          5    1    5    5  501    0  0.35605594113E+02  0.52462156045E+01  0.12818780158E+01  0.36318236763E+02  0.47000000000E+01 0. -1.
        -11    1    6    6    0    0  0.15709162337E+02  0.87180503941E+01 -0.11413246239E+03  0.11553787758E+03  0.00000000000E+00 0.  1.
         12    1    6    6    0    0 -0.33512219022E+02 -0.65523631877E+02 -0.15611460466E+03  0.17259254024E+03  0.00000000000E+00 0. -1.
         -5    1    3    3    0  503 -0.67084367853E+02  0.18640705231E+01 -0.14222336126E+03  0.15733201091E+03  0.47000000000E+01 0.  1.
         11    1    4    4    0    0  0.10236944546E+02  0.62281708104E+02 -0.54397159258E+02  0.83323808922E+02  0.00000000000E+00 0. -1.
        -12    1    4    4    0    0  0.39044885880E+02 -0.12586412749E+02 -0.40749223496E+02  0.57822315024E+02  0.00000000000E+00 0.  1.
</event>
<event>
12    1  0.8494789E-002  0.1731603E+03  0.7818608E-02  0.1174644E+00
         21   -1    0    0  503  502  0.00000000000E+00  0.00000000000E+00  0.46230675273E+03  0.46230675273E+03  0.00000000000E+00 0.  1.
         21   -1    0    0  501  503 -0.00000000000E+00 -0.00000000000E+00 -0.14106789965E+03  0.14106789965E+03  0.00000000000E+00 0. -1.
          6    2    1    2  501    0  0.10251061181E+01 -0.21521536845E+02 -0.61277364040E+02  0.18348995706E+03  0.17160833781E+03 0.  0.
         24    2    3    3    0    0  0.26448651574E+02  0.78473397992E+01  0.25969303323E+02  0.87871138071E+02  0.79283165167E+02 0.  0.
         -6    2    1    2    0  502 -0.10251061181E+01  0.21521536845E+02  0.38251621712E+03  0.41988469532E+03  0.17181464900E+03 0.  0.
        -24    2    5    5    0    0 -0.52294625026E+02 -0.49961056947E+00  0.12261961948E+03  0.15402415674E+03  0.77154989229E+02 0.  0.
          5    1    3    3  501    0 -0.25423545456E+02 -0.29368876644E+02 -0.87246667363E+02  0.95618818989E+02  0.47000000000E+01 0. -1.
        -13    1    4    4    0    0 -0.24437251529E+02  0.20043493866E+02  0.10536057609E+02  0.33315603230E+02  0.00000000000E+00 0.  1.
         14    1    4    4    0    0  0.50885903102E+02 -0.12196154067E+02  0.15433245714E+02  0.54555534841E+02  0.00000000000E+00 0. -1.
         -5    1    5    5    0  502  0.51269518908E+02  0.22021147414E+02  0.25989659764E+03  0.26586053857E+03  0.47000000000E+01 0.  1.
         11    1    6    6    0    0 -0.32299420690E+02 -0.14403617365E+02  0.72358162575E+01  0.36098113621E+02  0.00000000000E+00 0. -1.
        -12    1    6    6    0    0 -0.19995204336E+02  0.13904006795E+02  0.11538380322E+03  0.11792604312E+03  0.00000000000E+00 0.  1.
</event>
<event>
12    1  0.8494789E-002  0.2207990E+03  0.7818608E-02  0.1135669E+00
         21   -1    0    0  503  502  0.00000000000E+00  0.00000000000E+00  0.13116881624E+03  0.13116881624E+03  0.00000000000E+00 0.  1.
         21   -1    0    0  501  503 -0.00000000000E+00 -0.00000000000E+00 -0.62829287830E+03  0.62829287830E+03  0.00000000000E+00 0.  1.
          6    2    1    2  501    0  0.35466273967E+02  0.11067095586E+03 -0.49673200305E+03  0.53866237524E+03  0.17294089912E+03 0.  0.
         24    2    3    3    0    0 -0.28680734892E+02  0.93788205882E+02 -0.21668919234E+03  0.25083268285E+03  0.79649335168E+02 0.  0.
         -6    2    1    2    0  502 -0.35466273967E+02 -0.11067095586E+03 -0.39205901597E+00  0.22079931931E+03  0.18773989623E+03 0.  0.
        -24    2    5    5    0    0 -0.82270511940E+01  0.23682567965E+02  0.11367813159E+02  0.83128591793E+02  0.78438429362E+02 0.  0.
          5    1    3    3  501    0  0.64147008859E+02  0.16882749976E+02 -0.28004281070E+03  0.28782969239E+03  0.47000000000E+01 0. -1.
        -13    1    4    4    0    0  0.71527481566E+01  0.75626319520E+02 -0.89195575585E+02  0.11715951824E+03  0.00000000000E+00 0.  1.
         14    1    4    4    0    0 -0.35833483049E+02  0.18161886361E+02 -0.12749361676E+03  0.13367316461E+03  0.00000000000E+00 0. -1.
         -5    1    5    5    0  502 -0.27239222773E+02 -0.13435352382E+03 -0.11759872175E+02  0.13767072751E+03  0.47000000000E+01 0.  1.
         13    1    6    6    0    0 -0.42957751220E+02  0.13819539117E+02  0.13081979221E+02  0.46983893321E+02  0.00000000000E+00 0. -1.
        -14    1    6    6    0    0  0.34730700026E+02  0.98630288477E+01 -0.17141660623E+01  0.36144698472E+02  0.00000000000E+00 0.  1.
</event>
<event>
12    1  0.8494789E-002  0.1873452E+03  0.7818608E-02  0.1161253E+00
         21   -1    0    0  503  502  0.00000000000E+00  0.00000000000E+00  0.93673842673E+02  0.93673842673E+02  0.00000000000E+00 0.  1.
         21   -1    0    0  501  503 -0.00000000000E+00 -0.00000000000E+00 -0.38852631273E+03  0.38852631273E+03  0.00000000000E+00 0.  1.
          6    2    1    2  501    0  0.10914997011E+02  0.75463467323E+02 -0.97483203334E+02  0.21118997899E+03  0.17112673735E+03 0.  0.
         24    2    3    3    0    0  0.60570151994E+02  0.83503565075E+01 -0.32106463095E+02  0.10504850631E+03  0.79157387138E+02 0.  0.
         -6    2    1    2    0  502 -0.10914997011E+02 -0.75463467323E+02 -0.19736926673E+03  0.27101017641E+03  0.16934584793E+03 0.  0.
        -24    2    5    5    0    0 -0.27152912081E+02 -0.61690174811E+02 -0.21745276394E+03  0.24136544109E+03  0.80178633713E+02 0.  0.
          5    1    3    3  501    0 -0.49655154983E+02  0.67113110816E+02 -0.65376740238E+02  0.10614147269E+03  0.47000000000E+01 0. -1.
        -11    1    4    4    0    0  0.28126910437E+02  0.24259010290E+02 -0.51920639822E+02  0.63838667831E+02  0.00000000000E+00 0.  1.
         12    1    4    4    0    0  0.32443241557E+02 -0.15908653782E+02  0.19814176726E+02  0.41209838476E+02  0.00000000000E+00 0. -1.
         -5    1    5    5    0  502  0.16237915070E+02 -0.13773292512E+02  0.20083497210E+02  0.29644735327E+02  0.47000000000E+01 0.  1.
         13    1    6    6    0    0 -0.62504544042E+01  0.13992356324E+02 -0.92721347738E+02  0.93979266555E+02  0.00000000000E+00 0. -1.
        -14    1    6    6    0    0 -0.20902457677E+02 -0.75682531135E+02 -0.12473141620E+03  0.14738617453E+03  0.00000000000E+00 0.  1.
</event>
<event>
12    1  0.8494789E-002  0.1812272E+03  0.7818608E-02  0.1169878E+00
         21   -1    0    0  503  502  0.00000000000E+00  0.00000000000E+00  0.68447413679E+02  0.68447413679E+02  0.00000000000E+00 0.  1.
         21   -1    0    0  501  503 -0.00000000000E+00 -0.00000000000E+00 -0.65270327494E+03  0.65270327494E+03  0.00000000000E+00 0. -1.
          6    2    1    2  501    0 -0.16102685478E+02  0.53184982946E+02 -0.81806636896E+02  0.18701726699E+03  0.15872993864E+03 0.  0.
         24    2    3    3    0    0 -0.46261896762E+02 -0.10393219792E+02 -0.34431331149E+02  0.10205683218E+03  0.83557754397E+02 0.  0.
         -6    2    1    2    0  502  0.16102685478E+02 -0.53184982946E+02 -0.50244922436E+03  0.53413342163E+03  0.17249739171E+03 0.  0.
        -24    2    5    5    0    0  0.22036841889E+02 -0.98612400513E+02 -0.42574898331E+03  0.44466900716E+03  0.79109425479E+02 0.  0.
          5    1    3    3  501    0  0.30159211284E+02  0.63578202738E+02 -0.47375305746E+02  0.84960434811E+02  0.47000000000E+01 0. -1.
        -13    1    4    4    0    0 -0.27692385047E+02  0.13470457424E+02  0.22129064237E+02  0.37921193241E+02  0.00000000000E+00 0.  1.
         14    1    4    4    0    0 -0.18569511715E+02 -0.23863677216E+02 -0.56560395387E+02  0.64135638937E+02  0.00000000000E+00 0. -1.
         -5    1    5    5    0  502 -0.59341564104E+01  0.45427417567E+02 -0.76700241048E+02  0.89464414467E+02  0.47000000000E+01 0.  1.
         13    1    6    6    0    0 -0.58942851686E+01 -0.48890278293E+02 -0.32657225186E+03  0.33026419363E+03  0.00000000000E+00 0. -1.
        -14    1    6    6    0    0  0.27931127057E+02 -0.49722122220E+02 -0.99176731455E+02  0.11440481353E+03  0.00000000000E+00 0.  1.
</event>
<event>
12    1  0.8494789E-002  0.1932537E+03  0.7818608E-02  0.1155667E+00
         21   -1    0    0  501  502  0.00000000000E+00  0.00000000000E+00  0.64974582388E+03  0.64974582388E+03  0.00000000000E+00 0.  1.
         21   -1    0    0  502  503 -0.00000000000E+00 -0.00000000000E+00 -0.87425632085E+02  0.87425632085E+02  0.00000000000E+00 0.  1.
         -6    2    1    2    0  503 -0.70297645690E+02  0.52629633760E+02  0.64681814999E+02  0.20332601574E+03  0.17159864261E+03 0.  0.
        -24    2    3    3    0    0 -0.14127335154E+02 -0.65991918724E+01  0.85472874344E+02  0.11896064535E+03  0.81258180892E+02 0.  0.
          6    2    1    2  501    0  0.70297645690E+02 -0.52629633760E+02  0.49763837680E+03  0.53384544023E+03  0.17214924529E+03 0.  0.
         24    2    5    5    0    0 -0.46006217836E+01 -0.79427774574E+02  0.26914562123E+03  0.29185593598E+03  0.80066127944E+02 0.  0.
          5    1    5    5  501    0  0.74898267473E+02  0.26798140813E+02  0.22849275557E+03  0.24198950425E+03  0.47000000000E+01 0. -1.
        -13    1    6    6    0    0  0.26192677274E+02 -0.61900289268E+02  0.22727390913E+03  0.23700449769E+03  0.00000000000E+00 0.  1.
         14    1    6    6    0    0 -0.30793299058E+02 -0.17527485306E+02  0.41871712097E+02  0.54851438285E+02  0.00000000000E+00 0. -1.
         -5    1    3    3    0  503 -0.56170310535E+02  0.59228825633E+02 -0.20791059346E+02  0.84365370385E+02  0.47000000000E+01 0.  1.
         13    1    4    4    0    0 -0.23441552163E+02 -0.86818366780E+01 -0.70295126282E+01  0.25967185133E+02  0.00000000000E+00 0. -1.
        -14    1    4    4    0    0  0.93142170088E+01  0.20826448056E+01  0.92502386972E+02  0.92993460219E+02  0.00000000000E+00 0.  1.
</event>
<event>
12    1  0.8494789E-002  0.2490131E+03  0.7818608E-02  0.1114042E+00
         21   -1    0    0  501  502  0.00000000000E+00  0.00000000000E+00  0.58859797554E+03  0.58859797554E+03  0.00000000000E+00 0.  1.
         21   -1    0    0  502  503 -0.00000000000E+00 -0.00000000000E+00 -0.12489123067E+03  0.12489123067E+03  0.00000000000E+00 0.  1.
         -6    2    1    2    0  503 -0.61597788980E+02 -0.16921711774E+03  0.89387380529E+02  0.26390885930E+03  0.17096508906E+03 0.  0.
        -24    2    3    3    0    0 -0.47236202519E+02 -0.19393202687E+03  0.65100800323E+02  0.22610661232E+03  0.83935666204E+02 0.  0.
          6    2    1    2  501    0  0.61597788980E+02  0.16921711774E+03  0.37431936435E+03  0.44958034691E+03  0.17198482856E+03 0.  0.
         24    2    5    5    0    0  0.84403064814E+02  0.18510429788E+03  0.34127732139E+03  0.40614821938E+03  0.84253709531E+02 0.  0.
          5    1    5    5  501    0 -0.22805275834E+02 -0.15887180132E+02  0.33042042955E+02  0.43432127521E+02  0.47000000000E+01 0. -1.
        -11    1    6    6    0    0  0.72628879884E+02  0.73883876615E+02  0.20631492161E+03  0.23086712259E+03  0.00000000000E+00 0.  1.
         12    1    6    6    0    0  0.11774184930E+02  0.11122042126E+03  0.13496239979E+03  0.17528109679E+03  0.00000000000E+00 0. -1.
         -5    1    3    3    0  503 -0.14361586460E+02  0.24714909122E+02  0.24286580205E+02  0.37802246979E+02  0.47000000000E+01 0.  1.
         11    1    4    4    0    0  0.22303987433E+02 -0.54546792963E+02  0.49905548312E+01  0.59141576877E+02  0.00000000000E+00 0. -1.
        -12    1    4    4    0    0 -0.69540189952E+02 -0.13938523390E+03  0.60110245492E+02  0.16696503545E+03  0.00000000000E+00 0.  1.
</event>
<event>
12    1  0.8494789E-002  0.2086386E+03  0.7818608E-02  0.1143189E+00
         21   -1    0    0  501  502  0.00000000000E+00  0.00000000000E+00  0.33359615574E+02  0.33359615574E+02  0.00000000000E+00 0. -1.
         21   -1    0    0  502  503 -0.00000000000E+00 -0.00000000000E+00 -0.19609205408E+04  0.19609205408E+04  0.00000000000E+00 0. -1.
         -6    2    1    2    0  503  0.60494124366E+02  0.98188239807E+02 -0.15437472253E+04  0.15574242969E+04  0.17062964407E+03 0.  0.
        -24    2    3    3    0    0 -0.11868824679E+02  0.77791448238E+02 -0.12344856945E+04  0.12391206526E+04  0.72613246168E+02 0.  0.
          6    2    1    2  501    0 -0.60494124366E+02 -0.98188239807E+02 -0.38381369994E+03  0.43685585949E+03  0.17386666209E+03 0.  0.
         24    2    5    5    0    0 -0.55166872198E+02 -0.13732081526E+03 -0.32303324956E+03  0.36421915234E+03  0.80029497805E+02 0.  0.
          5    1    5    5  501    0 -0.53272521688E+01  0.39132575449E+02 -0.60780450379E+02  0.72636707147E+02  0.47000000000E+01 0. -1.
        -13    1    6    6    0    0 -0.21338511579E+02 -0.87308164383E+02 -0.26746208348E+03  0.28215955370E+03  0.00000000000E+00 0.  1.
         14    1    6    6    0    0 -0.33828360619E+02 -0.50012650872E+02 -0.55571166079E+02  0.82059598639E+02  0.00000000000E+00 0. -1.
         -5    1    3    3    0  503  0.72362949045E+02  0.20396791568E+02 -0.30926153081E+03  0.31830364425E+03  0.47000000000E+01 0.  1.
         13    1    4    4    0    0 -0.18262908662E+02  0.37575847543E+01 -0.60137026795E+03  0.60165924945E+03  0.00000000000E+00 0. -1.
        -14    1    4    4    0    0  0.63940839832E+01  0.74033863484E+02 -0.63311542653E+03  0.63746140319E+03  0.00000000000E+00 0.  1.
</event>
<event>
12    1  0.8494789E-002  0.1870238E+03  0.7818608E-02  0.1161639E+00
         21   -1    0    0  501  502  0.00000000000E+00  0.00000000000E+00  0.10005799706E+03  0.10005799706E+03  0.00000000000E+00 0.  1.
         21   -1    0    0  502  503 -0.00000000000E+00 -0.00000000000E+00 -0.43964518600E+03  0.43964518600E+03  0.00000000000E+00 0.  1.
         -6    2    1    2    0  503 -0.24168536094E+02 -0.69853674852E+02 -0.29517437437E+03  0.34943643067E+03  0.17179712968E+03 0.  0.
        -24    2    3    3    0    0 -0.84731679445E+02 -0.43405638169E+02 -0.13547621131E+03  0.17654054795E+03  0.61231154749E+02 0.  0.
          6    2    1    2  501    0  0.24168536094E+02  0.69853674852E+02 -0.44412814571E+02  0.19026675240E+03  0.16960331643E+03 0.  0.
         24    2    5    5    0    0  0.40580727604E+02  0.10859810529E+03 -0.21629207205E+02  0.14218688462E+03  0.79428858914E+02 0.  0.
          5    1    5    5  501    0 -0.16412191510E+02 -0.38744430443E+02 -0.22783607366E+02  0.48079867773E+02  0.47000000000E+01 0. -1.
        -11    1    6    6    0    0  0.55726786939E+02  0.59157101931E+02  0.95097712986E+01  0.81825871469E+02  0.00000000000E+00 0.  1.
         12    1    6    6    0    0 -0.15146059334E+02  0.49441003363E+02 -0.31138978503E+02  0.60361013155E+02  0.00000000000E+00 0. -1.
         -5    1    3    3    0  503  0.60563143350E+02 -0.26448036682E+02 -0.15969816306E+03  0.17289588272E+03  0.47000000000E+01 0.  1.
         13    1    4    4    0    0 -0.32936752978E+02 -0.16109198198E+02 -0.98870310999E+01  0.37974851511E+02  0.00000000000E+00 0. -1.
        -14    1    4    4    0    0 -0.51794926466E+02 -0.27296439971E+02 -0.12558918021E+03  0.13856569643E+03  0.00000000000E+00 0.  1.
</event>
<event>
12    1  0.8494789E-002  0.2631711E+03  0.7818608E-02  0.1105363E+00
         21   -1    0    0  501  502  0.00000000000E+00  0.00000000000E+00  0.99434529798E+03  0.99434529798E+03  0.00000000000E+00 0. -1.
         21   -1    0    0  502  503 -0.00000000000E+00 -0.00000000000E+00 -0.78111073479E+02  0.78111073479E+02  0.00000000000E+00 0. -1.
         -6    2    1    2    0  503 -0.10156475790E+03 -0.17034783334E+03  0.27904302849E+03  0.38305687033E+03  0.17185391991E+03 0.  0.
        -24    2    3    3    0    0 -0.28872740113E+02 -0.16634200855E+03  0.22479935737E+03  0.29214679422E+03  0.79446204224E+02 0.  0.
          6    2    1    2  501    0  0.10156475790E+03  0.17034783334E+03  0.63719119601E+03  0.68939950113E+03  0.17298921212E+03 0.  0.
         24    2    5    5    0    0  0.15114648206E+02  0.69385097487E+02  0.43138662534E+03  0.44435928646E+03  0.79485914438E+02 0.  0.
          5    1    5    5  501    0  0.86450109696E+02  0.10096273585E+03  0.20580457067E+03  0.24504021467E+03  0.47000000000E+01 0. -1.
        -11    1    6    6    0    0 -0.84425007140E+01  0.45836736991E+02  0.90006494689E+02  0.10135803551E+03  0.00000000000E+00 0.  1.
         12    1    6    6    0    0  0.23557148920E+02  0.23548360496E+02  0.34138013065E+03  0.34300125095E+03  0.00000000000E+00 0. -1.
         -5    1    3    3    0  503 -0.72692017789E+02 -0.40058247828E+01  0.54243671117E+02  0.90910076112E+02  0.47000000000E+01 0.  1.
         13    1    4    4    0    0 -0.30728223273E+02 -0.12980269139E+03  0.11401548361E+03  0.17547789861E+03  0.00000000000E+00 0. -1.
        -14    1    4    4    0    0  0.18554831604E+01 -0.36539317164E+02  0.11078387376E+03  0.11666889561E+03  0.00000000000E+00 0.  1.
</event>
<event>
12    1  0.8494789E-002  0.1939510E+03  0.7818608E-02  0.1155413E+00
         21   -1    0    0  503  502  0.00000000000E+00  0.00000000000E+00  0.45532509244E+03  0.45532509244E+03  0.00000000000E+00 0. -1.
         21   -1    0    0  501  503 -0.00000000000E+00 -0.00000000000E+00 -0.17007592520E+03  0.17007592520E+03  0.00000000000E+00 0. -1.
          6    2    1    2  501    0  0.82420559150E+02 -0.33466848572E+02 -0.83140568863E+02  0.20907422571E+03  0.16996028696E+03 0.  0.
         24    2    3    3    0    0 -0.10472752978E+02  0.65258044629E+01 -0.56890645248E+01  0.81601070659E+02  0.80461820752E+02 0.  0.
         -6    2    1    2    0  502 -0.82420559150E+02  0.33466848572E+02  0.36838973610E+03  0.41632679194E+03  0.17234796632E+03 0.  0.
        -24    2    5    5    0    0 -0.72050150557E+02 -0.32078047416E+01  0.10698968834E+03  0.15212109453E+03  0.80576173796E+02 0.  0.
          5    1    3    3  501    0  0.92893312128E+02 -0.39992653035E+02 -0.77451504338E+02  0.12747315505E+03  0.47000000000E+01 0. -1.
        -13    1    4    4    0    0 -0.98915932430E+01  0.72419098330E+01 -0.42778363952E+02  0.44500306711E+02  0.00000000000E+00 0.  1.
         14    1    4    4    0    0 -0.58115973507E+00 -0.71610537009E+00  0.37089299427E+02  0.37100763948E+02  0.00000000000E+00 0. -1.
         -5    1    5    5    0  502 -0.10370408593E+02  0.36674653314E+02  0.26140004777E+03  0.26420569741E+03  0.47000000000E+01 0.  1.
         11    1    6    6    0    0 -0.54164507547E+02 -0.15205134602E+02  0.11588551875E+03  0.12881942188E+03  0.00000000000E+00 0. -1.
        -12    1    6    6    0    0 -0.17885643010E+02  0.11997329860E+02 -0.88958304146E+01  0.23301672653E+02  0.00000000000E+00 0.  1.
</event>
<event>
12    1  0.8494789E-002  0.1807925E+03  0.7818608E-02  0.1167848E+00
         21   -1    0    0  503  502  0.00000000000E+00  0.00000000000E+00  0.76879907924E+02  0.76879907924E+02  0.00000000000E+00 0. -1.
         21   -1    0    0  501  503 -0.00000000000E+00 -0.00000000000E+00 -0.42935041989E+03  0.42935041989E+03  0.00000000000E+00 0. -1.
          6    2    1    2  501    0  0.15968893964E+01  0.55680903017E+02 -0.22013845071E+03  0.28486290181E+03  0.17199715791E+03 0.  0.
         24    2    3    3    0    0 -0.26351149485E+02 -0.29698600886E+02 -0.13086468002E+03  0.15812439662E+03  0.79381171298E+02 0.  0.
         -6    2    1    2    0  502 -0.15968893964E+01 -0.55680903017E+02 -0.13233206126E+03  0.22136742600E+03  0.16848991021E+03 0.  0.
        -24    2    5    5    0    0  0.38515332055E+02 -0.61921270513E+02 -0.34449564183E+02  0.11529666788E+03  0.82394627287E+02 0.  0.
          5    1    3    3  501    0  0.27948038881E+02  0.85379503903E+02 -0.89273770688E+02  0.12673850519E+03  0.47000000000E+01 0. -1.
        -11    1    4    4    0    0  0.92379970363E+01 -0.12836064534E+02  0.50640090842E+01  0.16605701730E+02  0.00000000000E+00 0.  1.
         12    1    4    4    0    0 -0.35589146521E+02 -0.16862536353E+02 -0.13592868910E+03  0.14151869489E+03  0.00000000000E+00 0. -1.
         -5    1    5    5    0  502 -0.40112221451E+02  0.62403674966E+01 -0.97882497072E+02  0.10607075813E+03  0.47000000000E+01 0.  1.
         13    1    6    6    0    0  0.21038676072E+02 -0.27150367936E+02 -0.59721949785E+02  0.68894699767E+02  0.00000000000E+00 0. -1.
        -14    1    6    6    0    0  0.17476655983E+02 -0.34770902578E+02  0.25272385601E+02  0.46401968109E+02  0.00000000000E+00 0.  1.
</event>
<event>
12    1  0.8494789E-002  0.1871059E+03  0.7818608E-02  0.1161352E+00
         21   -1    0    0  503  502  0.00000000000E+00  0.00000000000E+00  0.43078705536E+02  0.43078705536E+02  0.00000000000E+00 0. -1.
         21   -1    0    0  501  503 -0.00000000000E+00 -0.00000000000E+00 -0.83785846813E+03  0.83785846813E+03  0.00000000000E+00 0.  1.
          6    2    1    2  501    0  0.73921799876E+02 -0.35590555888E+01 -0.48181906527E+03  0.51687353057E+03  0.17184741943E+03 0.  0.
         24    2    3    3    0    0  0.72184282742E+02  0.55059673831E+02 -0.25697579748E+03  0.28446062327E+03  0.81480963085E+02 0.  0.
         -6    2    1    2    0  502 -0.73921799876E+02  0.35590555888E+01 -0.31296069733E+03  0.36406364311E+03  0.17064828973E+03 0.  0.
        -24    2    5    5    0    0 -0.66377970052E+02 -0.55612251586E+02 -0.15506198686E+03  0.19520794812E+03  0.81013368073E+02 0.  0.
          5    1    3    3  501    0  0.17375171336E+01 -0.58618729420E+02 -0.22484326779E+03  0.23241290729E+03  0.47000000000E+01 0. -1.
        -11    1    4    4    0    0  0.86509447430E+02  0.42336983876E+02 -0.24093652702E+03  0.25947391921E+03  0.00000000000E+00 0.  1.
         12    1    4    4    0    0 -0.14325164688E+02  0.12722689955E+02 -0.16039270460E+02  0.24986704062E+02  0.00000000000E+00 0. -1.
         -5    1    5    5    0  502 -0.75438298234E+01  0.59171307175E+02 -0.15789871047E+03  0.16885569498E+03  0.47000000000E+01 0.  1.
         11    1    6    6    0    0  0.10472441842E+02 -0.35324443738E+02 -0.32503848318E+02  0.49132357149E+02  0.00000000000E+00 0. -1.
        -12    1    6    6    0    0 -0.76850411894E+02 -0.20287807848E+02 -0.12255813854E+03  0.14607559097E+03  0.00000000000E+00 0.  1.
</event>
<event>
12    1  0.8494789E-002  0.1815186E+03  0.7818608E-02  0.1167170E+00
         21   -1    0    0  501  502  0.00000000000E+00  0.00000000000E+00  0.36066000473E+03  0.36066000473E+03  0.00000000000E+00 0. -1.
         21   -1    0    0  502  503 -0.00000000000E+00 -0.00000000000E+00 -0.38617527712E+03  0.38617527712E+03  0.00000000000E+00 0. -1.
         -6    2    1    2    0  503 -0.28715014787E+02  0.33872968936E+02 -0.33994591517E+03  0.38377107204E+03  0.17246762130E+03 0.  0.
        -24    2    3    3    0    0 -0.73599347956E+02 -0.15677612689E+02 -0.22901450469E+03  0.25416500994E+03  0.80557788936E+02 0.  0.
          6    2    1    2  501    0  0.28715014787E+02 -0.33872968936E+02  0.31443064279E+03  0.36306420980E+03  0.17600301480E+03 0.  0.
         24    2    5    5    0    0  0.44705438312E+02 -0.85877209975E+02  0.24244886700E+03  0.27271156305E+03  0.78845875618E+02 0.  0.
          5    1    5    5  501    0 -0.15990423525E+02  0.52004241039E+02  0.71981775787E+02  0.90352646757E+02  0.47000000000E+01 0. -1.
        -11    1    6    6    0    0 -0.76834134306E+01  0.94125258676E+01  0.88150482501E+01  0.15011181193E+02  0.00000000000E+00 0.  1.
         12    1    6    6    0    0  0.52388851743E+02 -0.95289735843E+02  0.23363381875E+03  0.25770038185E+03  0.00000000000E+00 0. -1.
         -5    1    3    3    0  503  0.44884333169E+02  0.49550581625E+02 -0.11093141048E+03  0.12960606210E+03  0.47000000000E+01 0.  1.
         13    1    4    4    0    0 -0.85285730560E+02  0.36794657323E+01 -0.15730378272E+03  0.17897394884E+03  0.00000000000E+00 0. -1.
        -14    1    4    4    0    0  0.11686382603E+02 -0.19357078422E+02 -0.71710721972E+02  0.75191061098E+02  0.00000000000E+00 0.  1.
</event>
<event>
12    1  0.8494789E-002  0.2266589E+03  0.7818608E-02  0.1129169E+00
         21   -1    0    0  503  502  0.00000000000E+00  0.00000000000E+00  0.27462571370E+03  0.27462571370E+03  0.00000000000E+00 0. -1.
         21   -1    0    0  501  503 -0.00000000000E+00 -0.00000000000E+00 -0.27987567405E+03  0.27987567405E+03  0.00000000000E+00 0.  1.
          6    2    1    2  501    0  0.11561991559E+03 -0.92295566732E+02 -0.16289386716E+03  0.27912121731E+03  0.17172013708E+03 0.  0.
         24    2    3    3    0    0  0.42577497612E+02 -0.10476703927E+03 -0.56635757615E+02  0.14949248479E+03  0.79695785013E+02 0.  0.
         -6    2    1    2    0  502 -0.11561991559E+03  0.92295566732E+02  0.15764390681E+03  0.27538017043E+03  0.17057608389E+03 0.  0.
        -24    2    5    5    0    0 -0.60719175930E+02  0.99300859623E+02  0.16669184381E+03  0.21910299470E+03  0.81685203368E+02 0.  0.
          5    1    3    3  501    0  0.73042417980E+02  0.12471472537E+02 -0.10625810954E+03  0.12962873252E+03  0.47000000000E+01 0. -1.
        -13    1    4    4    0    0  0.44953247189E+02 -0.11601867701E+03 -0.59077703534E+02  0.13773635287E+03  0.00000000000E+00 0.  1.
         14    1    4    4    0    0 -0.23757495768E+01  0.11251637739E+02  0.24419459193E+01  0.11756131921E+02  0.00000000000E+00 0. -1.
         -5    1    5    5    0  502 -0.54900739662E+02 -0.70052928913E+01 -0.90479369991E+01  0.56277175728E+02  0.47000000000E+01 0.  1.
         11    1    6    6    0    0 -0.14766794122E+01  0.77422798884E+02  0.75283884533E+02  0.10800061870E+03  0.00000000000E+00 0. -1.
        -12    1    6    6    0    0 -0.59242496518E+02  0.21878060740E+02  0.91407959273E+02  0.11110237600E+03  0.00000000000E+00 0.  1.
</event>
<event>
12    1  0.8494789E-002  0.1793204E+03  0.7818608E-02  0.1172381E+00
         21   -1    0    0  503  502  0.00000000000E+00  0.00000000000E+00  0.18931111610E+03  0.18931111610E+03  0.00000000000E+00 0.  1.
         21   -1    0    0  501  503 -0.00000000000E+00 -0.00000000000E+00 -0.22936585042E+03  0.22936585042E+03  0.00000000000E+00 0.  1.
          6    2    1    2  501    0  0.57231857665E+01 -0.11523725826E+02 -0.13804249098E+03  0.21433064009E+03  0.16345134704E+03 0.  0.
         24    2    3    3    0    0 -0.12667851643E+02 -0.53553959111E+02 -0.13851427252E+03  0.16821032629E+03  0.77974413594E+02 0.  0.
         -6    2    1    2    0  502 -0.57231857665E+01  0.11523725826E+02  0.97987756660E+02  0.20434632643E+03  0.17885823872E+03 0.  0.
        -24    2    5    5    0    0 -0.20336418803E+02 -0.62333070553E+02  0.62209270970E+02  0.12085642890E+03  0.80232795030E+02 0.  0.
          5    1    3    3  501    0  0.18391037410E+02  0.42030233285E+02  0.47178154096E+00  0.46120313798E+02  0.47000000000E+01 0. -1.
        -11    1    4    4    0    0  0.62340332723E+01 -0.23062069181E+02 -0.12886404605E+03  0.13105977480E+03  0.00000000000E+00 0.  1.
         12    1    4    4    0    0 -0.18901884916E+02 -0.30491889930E+02 -0.96502264718E+01  0.37150551488E+02  0.00000000000E+00 0. -1.
         -5    1    5    5    0  502  0.14613233037E+02  0.73856796379E+02  0.35778485691E+02  0.83489897529E+02  0.47000000000E+01 0.  1.
         13    1    6    6    0    0 -0.41618877724E+02 -0.14445217418E+02  0.67737438344E+01  0.44572176240E+02  0.00000000000E+00 0. -1.
        -14    1    6    6    0    0  0.21282458921E+02 -0.47887853135E+02  0.55435527135E+02  0.76284252663E+02  0.00000000000E+00 0.  1.
</event>
<event>
12    1  0.8494789E-002  0.2518145E+03  0.7818608E-02  0.1112241E+00
         21   -1    0    0  503  502  0.00000000000E+00  0.00000000000E+00  0.91037183092E+02  0.91037183092E+02  0.00000000000E+00 0. -1.
         21   -1    0    0  501  503 -0.00000000000E+00 -0.00000000000E+00 -0.75202930935E+03  0.75202930935E+03  0.00000000000E+00 0.  1.
          6    2    1    2  501    0  0.21759044769E+02  0.18196409560E+03 -0.44611032468E+03  0.51203062344E+03  0.17197834001E+03 0.  0.
         24    2    3    3    0    0 -0.21834927620E+02  0.29974898520E+02 -0.10418028215E+03  0.13528217361E+03  0.77926097705E+02 0.  0.
         -6    2    1    2    0  502 -0.21759044769E+02 -0.18196409560E+03 -0.21488180157E+03  0.33103586900E+03  0.17270254718E+03 0.  0.
        -24    2    5    5    0    0 -0.68877631298E+02 -0.70177127939E+02 -0.80632962893E+02  0.15003496287E+03  0.79623225243E+02 0.  0.
          5    1    3    3  501    0  0.43593972389E+02  0.15198919708E+03 -0.34193004253E+03  0.37674844982E+03  0.47000000000E+01 0. -1.
        -11    1    4    4    0    0 -0.45669955001E+02  0.39735424309E+02 -0.72247650431E+02  0.94256945248E+02  0.00000000000E+00 0.  1.
         12    1    4    4    0    0  0.23835027381E+02 -0.97605257893E+01 -0.31932631719E+02  0.41025228366E+02  0.00000000000E+00 0. -1.
         -5    1    5    5    0  502  0.47118586529E+02 -0.11178696766E+03 -0.13424883868E+03  0.18100090614E+03  0.47000000000E+01 0.  1.
         13    1    6    6    0    0 -0.45181842426E+02 -0.54969632925E+02 -0.94786065747E+02  0.11852197133E+03  0.00000000000E+00 0. -1.
        -14    1    6    6    0    0 -0.23695788872E+02 -0.15207495014E+02  0.14153102854E+02  0.31512991532E+02  0.00000000000E+00 0.  1.
</event>
<event>
12    1  0.8494789E-002  0.1956605E+03  0.7818608E-02  0.1153659E+00
         21   -1    0    0  503  502  0.00000000000E+00  0.00000000000E+00  0.20374352929E+03  0.20374352929E+03  0.00000000000E+00 0.  1.
         21   -1    0    0  501  503 -0.00000000000E+00 -0.00000000000E+00 -0.22540477638E+03  0.22540477638E+03  0.00000000000E+00 0. -1.
          6    2    1    2  501    0 -0.27341282601E+02  0.89629226473E+02 -0.99435166980E+02  0.21947748302E+03  0.17176166379E+03 0.  0.
         24    2    3    3    0    0 -0.59080417267E+02  0.58960342341E+01 -0.58638823859E+02  0.12096326190E+03  0.87569059267E+02 0.  0.
         -6    2    1    2    0  502  0.27341282601E+02 -0.89629226473E+02  0.77773919885E+02  0.20967082265E+03  0.17068136185E+03 0.  0.
        -24    2    5    5    0    0  0.69714050771E+02 -0.49599600976E+02  0.62643501356E+01  0.11729370987E+03  0.79990018132E+02 0.  0.
          5    1    3    3  501    0  0.31739134666E+02  0.83733192238E+02 -0.40796343121E+02  0.98514221125E+02  0.47000000000E+01 0. -1.
        -11    1    4    4    0    0  0.39461659375E+01 -0.28783941289E+02 -0.14956624982E+01  0.29091657017E+02  0.00000000000E+00 0.  1.
         12    1    4    4    0    0 -0.63026583204E+02  0.34679975523E+02 -0.57143161361E+02  0.91871604878E+02  0.00000000000E+00 0. -1.
         -5    1    5    5    0  502 -0.42372768170E+02 -0.40029625497E+02  0.71509569749E+02  0.92377112780E+02  0.47000000000E+01 0.  1.
         13    1    6    6    0    0  0.63630854857E+02 -0.52338133045E+01  0.25246008047E+02  0.68655949588E+02  0.00000000000E+00 0. -1.
        -14    1    6    6    0    0  0.60831959136E+01 -0.44365787671E+02 -0.18981657911E+02  0.48637760282E+02  0.00000000000E+00 0.  1.
</event>
<event>
12    1  0.8494789E-002  0.1910759E+03  0.7818608E-02  0.1157855E+00
         21   -1    0    0  501  502  0.00000000000E+00  0.00000000000E+00  0.28187211793E+03  0.28187211793E+03  0.00000000000E+00 0.  1.
         21   -1    0    0  502  503 -0.00000000000E+00 -0.00000000000E+00 -0.18749072318E+04  0.18749072318E+04  0.00000000000E+00 0.  1.
         -6    2    1    2    0  503 -0.45983040622E+02 -0.65251270535E+02 -0.18375428744E+04  0.18474506253E+04  0.17360250358E+03 0.  0.
        -24    2    3    3    0    0 -0.32573607829E+02 -0.20382504512E+02 -0.43440414939E+03  0.44352278145E+03  0.80802266311E+02 0.  0.
          6    2    1    2  501    0  0.45983040622E+02  0.65251270535E+02  0.24450776051E+03  0.30932872447E+03  0.17183726750E+03 0.  0.
         24    2    5    5    0    0 -0.26439004646E+02  0.37640423433E+02  0.20001880203E+03  0.21983755762E+03  0.78773143456E+02 0.  0.
          5    1    5    5  501    0  0.72422045268E+02  0.27610847103E+02  0.44488958481E+02  0.89491166856E+02  0.47000000000E+01 0. -1.
        -13    1    6    6    0    0 -0.22430828047E+02  0.56328524757E+02  0.18732649635E+03  0.19689403491E+03  0.00000000000E+00 0.  1.
         14    1    6    6    0    0 -0.40081765991E+01 -0.18688101324E+02  0.12692305685E+02  0.22943522710E+02  0.00000000000E+00 0. -1.
         -5    1    3    3    0  503 -0.13409432793E+02 -0.44868766023E+02 -0.14031387250E+04  0.14039278438E+04  0.47000000000E+01 0.  1.
         13    1    4    4    0    0 -0.14929207579E+02 -0.48932287016E+02 -0.32756946448E+03  0.33154035050E+03  0.00000000000E+00 0. -1.
        -14    1    4    4    0    0 -0.17644400250E+02  0.28549782504E+02 -0.10683468491E+03  0.11198243095E+03  0.00000000000E+00 0.  1.
</event>
<event>
12    1  0.8494789E-002  0.2359585E+03  0.7818608E-02  0.1122738E+00
         21   -1    0    0  503  502  0.00000000000E+00  0.00000000000E+00  0.59372268779E+03  0.59372268779E+03  0.00000000000E+00 0. -1.
         21   -1    0    0  501  503 -0.00000000000E+00 -0.00000000000E+00 -0.10161452681E+03  0.10161452681E+03  0.00000000000E+00 0. -1.
          6    2    1    2  501    0  0.10328382460E+03 -0.12269150795E+03  0.14697488226E+03  0.27798925246E+03  0.17307701731E+03 0.  0.
         24    2    3    3    0    0  0.15977790357E+02 -0.10868102417E+03  0.12851550587E+03  0.18753774143E+03  0.81162272106E+02 0.  0.
         -6    2    1    2    0  502 -0.10328382460E+03  0.12269150795E+03  0.34513327872E+03  0.41734796213E+03  0.17129386116E+03 0.  0.
        -24    2    5    5    0    0 -0.35146603020E+01  0.77482136228E+02  0.10451207719E+03  0.15292703622E+03  0.80299874571E+02 0.  0.
          5    1    3    3  501    0  0.87306034242E+02 -0.14010483776E+02  0.18459376397E+02  0.90451511030E+02  0.47000000000E+01 0. -1.
        -13    1    4    4    0    0 -0.12874528534E+02  0.80996800988E+01  0.76995859011E+01  0.17048223535E+02  0.00000000000E+00 0.  1.
         14    1    4    4    0    0  0.28852318890E+02 -0.11678070427E+03  0.12081591996E+03  0.17048951789E+03  0.00000000000E+00 0. -1.
         -5    1    5    5    0  502 -0.99769164296E+02  0.45209371720E+02  0.24062120153E+03  0.26442092592E+03  0.47000000000E+01 0.  1.
         13    1    6    6    0    0  0.65377031599E+01  0.46823282757E+02  0.40958248292E+01  0.47454579882E+02  0.00000000000E+00 0. -1.
        -14    1    6    6    0    0 -0.10052363462E+02  0.30658853471E+02  0.10041625236E+03  0.10547245633E+03  0.00000000000E+00 0.  1.
</event>
<event>
12    1  0.8494789E-002  0.1731831E+03  0.7818608E-02  0.1174747E+00
         21   -1    0    0  503  502  0.00000000000E+00  0.00000000000E+00  0.23417970327E+03  0.23417970327E+03  0.00000000000E+00 0.  1.
         21   -1    0    0  501  503 -0.00000000000E+00 -0.00000000000E+00 -0.24192803380E+03  0.24192803380E+03  0.00000000000E+00 0.  1.
          6    2    1    2  501    0  0.20445444789E+02  0.81706175858E+01 -0.16755508780E+03  0.24097117233E+03  0.17177783105E+03 0.  0.
         24    2    3    3    0    0 -0.13674798762E+02 -0.21254518314E+02 -0.17808800725E+03  0.19446244159E+03  0.73902288158E+02 0.  0.
         -6    2    1    2    0  502 -0.20445444789E+02 -0.81706175858E+01  0.15980675727E+03  0.23513656474E+03  0.17107375369E+03 0.  0.
        -24    2    5    5    0    0  0.46986195796E+02  0.41771729794E+01  0.49227775591E+02  0.10494710559E+03  0.79783267122E+02 0.  0.
          5    1    3    3  501    0  0.34120243550E+02  0.29425135899E+02  0.10532919444E+02  0.46508730736E+02  0.47000000000E+01 0. -1.
        -11    1    4    4    0    0  0.18837275559E+02 -0.36772351108E+02 -0.10853885138E+03  0.11613669108E+03  0.00000000000E+00 0.  1.
         12    1    4    4    0    0 -0.32512074321E+02  0.15517832794E+02 -0.69549155865E+02  0.78325750509E+02  0.00000000000E+00 0. -1.
         -5    1    5    5    0  502 -0.67431640585E+02 -0.12347790565E+02  0.11057898168E+03  0.13018945915E+03  0.47000000000E+01 0.  1.
         11    1    6    6    0    0 -0.68882198304E+01  0.19672814937E+02 -0.10238876331E+02  0.23222872529E+02  0.00000000000E+00 0. -1.
        -12    1    6    6    0    0  0.53874415626E+02 -0.15495641958E+02  0.59466651922E+02  0.81724233062E+02  0.00000000000E+00 0.  1.
</event>
<event>
12    1  0.8494789E-002  0.2133119E+03  0.7818608E-02  0.1139027E+00
         21   -1    0    0  501  502  0.00000000000E+00  0.00000000000E+00  0.29647037212E+03  0.29647037212E+03  0.00000000000E+00 0.  1.
         21   -1    0    0  502  503 -0.00000000000E+00 -0.00000000000E+00 -0.23624970613E+03  0.23624970613E+03  0.00000000000E+00 0. -1.
         -6    2    1    2    0  503  0.48224100275E+02 -0.11722276026E+03 -0.12776305465E+03  0.24839656568E+03  0.17120372759E+03 0.  0.
        -24    2    3    3    0    0  0.68482974102E+02 -0.76015267000E+02 -0.14919265706E+03  0.19750651431E+03  0.79259925024E+02 0.  0.
          6    2    1    2  501    0 -0.48224100275E+02  0.11722276026E+03  0.18798372063E+03  0.28432351257E+03  0.17156701666E+03 0.  0.
         24    2    5    5    0    0 -0.67858587478E+02  0.50287911238E+02  0.17927357133E+03  0.21386967093E+03  0.80421146798E+02 0.  0.
          5    1    5    5  501    0  0.19634487203E+02  0.66934849022E+02  0.87101493005E+01  0.70453841642E+02  0.47000000000E+01 0. -1.
        -11    1    6    6    0    0 -0.23933507385E+02 -0.19315847810E+02  0.27695979829E+02  0.41388187337E+02  0.00000000000E+00 0.  1.
         12    1    6    6    0    0 -0.43925080093E+02  0.69603759048E+02  0.15157759150E+03  0.17248148359E+03  0.00000000000E+00 0. -1.
         -5    1    3    3    0  503 -0.20258873827E+02 -0.41207493260E+02  0.21429602410E+02  0.50890051375E+02  0.47000000000E+01 0.  1.
         11    1    4    4    0    0  0.50113876188E+02  0.10342085050E+01 -0.54260097990E+02  0.73868994901E+02  0.00000000000E+00 0. -1.
        -12    1    4    4    0    0  0.18369097915E+02 -0.77049475505E+02 -0.94932559068E+02  0.12363751941E+03  0.00000000000E+00 0.  1.
</event>
<event>
12    1  0.8494789E-002  0.2131171E+03  0.7818608E-02  0.1142719E+00
         21   -1    0    0  501  502  0.00000000000E+00  0.00000000000E+00  0.21218547352E+03  0.21218547352E+03  0.00000000000E+00 0. -1.
         21   -1    0    0  502  503 -0.00000000000E+00 -0.00000000000E+00 -0.20265568206E+03  0.20265568206E+03  0.00000000000E+00 0. -1.
         -6    2    1    2    0  503  0.59318814678E+02  0.74480593451E+02 -0.30688080862E+02  0.21531526691E+03  0.19066416885E+03 0.  0.
        -24    2    3    3    0    0  0.40232824807E+02 -0.21539128257E+02 -0.64293838358E+02  0.11170301424E+03  0.79128070252E+02 0.  0.
          6    2    1    2  501    0 -0.59318814678E+02 -0.74480593451E+02  0.40217872316E+02  0.19952588867E+03  0.17066640683E+03 0.  0.
         24    2    5    5    0    0 -0.37406191768E+02  0.25990901725E+02  0.49473270213E+02  0.96170014258E+02  0.68748214680E+02 0.  0.
          5    1    5    5  501    0 -0.21912622909E+02 -0.10047149518E+03 -0.92553978968E+01  0.10335587441E+03  0.47000000000E+01 0. -1.
        -11    1    6    6    0    0 -0.32794739726E+02 -0.14686805167E+02  0.40717802461E+02  0.54305953973E+02  0.00000000000E+00 0.  1.
         12    1    6    6    0    0 -0.46114520427E+01  0.40677706892E+02  0.87554677525E+01  0.41864060285E+02  0.00000000000E+00 0. -1.
         -5    1    3    3    0  503  0.19085989871E+02  0.96019721708E+02  0.33605757496E+02  0.10361225267E+03  0.47000000000E+01 0.  1.
         13    1    4    4    0    0  0.47745331425E+02 -0.83295341124E+01 -0.30063339675E+01  0.48559611359E+02  0.00000000000E+00 0. -1.
        -14    1    4    4    0    0 -0.75125066184E+01 -0.13209594145E+02 -0.61287504391E+02  0.63143402882E+02  0.00000000000E+00 0.  1.
</event>
<event>
12    1  0.8494789E-002  0.1914696E+03  0.7818608E-02  0.1157499E+00
         21   -1    0    0  503  502  0.00000000000E+00  0.00000000000E+00  0.13621957762E+03  0.13621957762E+03  0.00000000000E+00 0.  1.
         21   -1    0    0  501  503 -0.00000000000E+00 -0.00000000000E+00 -0.70636590820E+03  0.70636590820E+03  0.00000000000E+00 0. -1.
          6    2    1    2  501    0  0.32301665885E+02  0.75032623037E+02 -0.61692416432E+03  0.64548451775E+03  0.17141046059E+03 0.  0.
         24    2    3    3    0    0  0.36613853413E+02  0.88991639853E+02 -0.61811485441E+03  0.63009111479E+03  0.75423825591E+02 0.  0.
         -6    2    1    2    0  502 -0.32301665885E+02 -0.75032623037E+02  0.46777833737E+02  0.19710096806E+03  0.17316851256E+03 0.  0.
        -24    2    5    5    0    0 -0.54822336152E+02 -0.70248288861E+02 -0.24406351196E+02  0.12213865335E+03  0.79886607346E+02 0.  0.
          5    1    3    3  501    0 -0.43121875273E+01 -0.13959016816E+02  0.11906900987E+01  0.15393402959E+02  0.47000000000E+01 0. -1.
        -11    1    4    4    0    0  0.15640598513E+01 -0.12356563975E+02 -0.11511973537E+03  0.11579155595E+03  0.00000000000E+00 0.  1.
         12    1    4    4    0    0  0.35049793561E+02  0.10134820383E+03 -0.50299511904E+03  0.51429955885E+03  0.00000000000E+00 0. -1.
         -5    1    5    5    0  502  0.22520670267E+02 -0.47843341756E+01  0.71184184933E+02  0.74962314715E+02  0.47000000000E+01 0.  1.
         11    1    6    6    0    0 -0.46095559680E+01 -0.18534081002E+02 -0.43554233286E+02  0.47557663966E+02  0.00000000000E+00 0. -1.
        -12    1    6    6    0    0 -0.50212780184E+02 -0.51714207859E+02  0.19147882089E+02  0.74580989380E+02  0.00000000000E+00 0.  1.
</event>
<event>
12    1  0.8494789E-002  0.2005611E+03  0.7818608E-02  0.1149433E+00
         21   -1    0    0  503  502  0.00000000000E+00  0.00000000000E+00  0.11954535530E+04  0.11954535530E+04  0.00000000000E+00 0. -1.
         21   -1    0    0  501  503 -0.00000000000E+00 -0.00000000000E+00 -0.48263530458E+02  0.48263530458E+02  0.00000000000E+00 0.  1.
          6    2    1    2  501    0  0.56829982967E+02 -0.85285947995E+02  0.23062979313E+03  0.30563845284E+03  0.17239902113E+03 0.  0.
         24    2    3    3    0    0  0.99430360970E+02 -0.90859069606E+02  0.16589211509E+03  0.22779945973E+03  0.78934357485E+02 0.  0.
         -6    2    1    2    0  502 -0.56829982967E+02  0.85285947995E+02  0.91656022938E+03  0.93807863059E+03  0.17148038719E+03 0.  0.
        -24    2    5    5    0    0 -0.44592004405E+02 -0.19427468984E+02  0.41980188660E+03  0.43023455123E+03  0.80636664565E+02 0.  0.
          5    1    3    3  501    0 -0.42600378003E+02  0.55731216117E+01  0.64737678042E+02  0.77838993113E+02  0.47000000000E+01 0. -1.
        -11    1    4    4    0    0 -0.13704394711E+02 -0.84111379527E+01  0.18833846927E+02  0.24764318406E+02  0.00000000000E+00 0.  1.
         12    1    4    4    0    0  0.11313475568E+03 -0.82447931654E+02  0.14705826816E+03  0.20303514132E+03  0.00000000000E+00 0. -1.
         -5    1    5    5    0  502 -0.12237978563E+02  0.10471341698E+03  0.49675834279E+03  0.50784407936E+03  0.47000000000E+01 0.  1.
         11    1    6    6    0    0 -0.60206333915E+01  0.30238405608E+02  0.11895462347E+03  0.12288535977E+03  0.00000000000E+00 0. -1.
        -12    1    6    6    0    0 -0.38571371013E+02 -0.49665874592E+02  0.30084726313E+03  0.30734919146E+03  0.00000000000E+00 0.  1.
</event>
<event>
12    1  0.8494789E-002  0.1867338E+03  0.7818608E-02  0.1161443E+00
         21   -1    0    0  503  502  0.00000000000E+00  0.00000000000E+00  0.39433039595E+03  0.39433039595E+03  0.00000000000E+00 0. -1.
         21   -1    0    0  501  503 -0.00000000000E+00 -0.00000000000E+00 -0.11387754942E+03  0.11387754942E+03  0.00000000000E+00 0. -1.
          6    2    1    2  501    0  0.23375283563E+02  0.65968840512E+02  0.20083866842E+02  0.18779958643E+03  0.17310988174E+03 0.  0.
         24    2    3    3    0    0  0.51441655317E+02 -0.19006595937E+02 -0.55839869051E+01  0.94582234297E+02  0.76857813812E+02 0.  0.
         -6    2    1    2    0  502 -0.23375283563E+02 -0.65968840512E+02  0.26036897969E+03  0.32040835894E+03  0.17312197750E+03 0.  0.
        -24    2    5    5    0    0 -0.72978749497E+02 -0.59961649103E+02  0.23079355348E+03  0.26215558204E+03  0.80861533637E+02 0.  0.
          5    1    3    3  501    0 -0.28066371754E+02  0.84975436449E+02  0.25667853747E+02  0.93217352136E+02  0.47000000000E+01 0. -1.
        -11    1    4    4    0    0  0.35930198851E+02 -0.35383788261E+00  0.33143686199E+02  0.48883620217E+02  0.00000000000E+00 0.  1.
         12    1    4    4    0    0  0.15511456466E+02 -0.18652758055E+02 -0.38727673104E+02  0.45698614079E+02  0.00000000000E+00 0. -1.
         -5    1    5    5    0  502  0.49603465934E+02 -0.60071914092E+01  0.29575426205E+02  0.58252776900E+02  0.47000000000E+01 0.  1.
         11    1    6    6    0    0 -0.63826408846E+02 -0.37674208613E+01  0.91032065918E+02  0.11124226243E+03  0.00000000000E+00 0. -1.
        -12    1    6    6    0    0 -0.91523406515E+01 -0.56194228242E+02  0.13976148757E+03  0.15091331960E+03  0.00000000000E+00 0.  1.
</event>
<event>
12    1  0.8494789E-002  0.1798731E+03  0.7818608E-02  0.1168071E+00
         21   -1    0    0  503  502  0.00000000000E+00  0.00000000000E+00  0.48804353838E+02  0.48804353838E+02  0.00000000000E+00 0. -1.
         21   -1    0    0  501  503 -0.00000000000E+00 -0.00000000000E+00 -0.70214105909E+03  0.70214105909E+03  0.00000000000E+00 0. -1.
          6    2    1    2  501    0 -0.35846785653E+02 -0.30601809286E+02 -0.41835049607E+03  0.45538059203E+03  0.17358825784E+03 0.  0.
         24    2    3    3    0    0 -0.17390356246E+02 -0.21227105409E+02 -0.74457495537E+02  0.11083304716E+03  0.77375908440E+02 0.  0.
         -6    2    1    2    0  502  0.35846785653E+02  0.30601809286E+02 -0.23498620919E+03  0.29556482090E+03  0.17296988777E+03 0.  0.
        -24    2    5    5    0    0  0.42224194701E+02 -0.32896307746E+02 -0.72881873277E+02  0.12128749038E+03  0.80832160615E+02 0.  0.
          5    1    3    3  501    0 -0.18456429408E+02 -0.93747038767E+01 -0.34389300053E+03  0.34454754487E+03  0.47000000000E+01 0. -1.
        -13    1    4    4    0    0 -0.47442311904E+02 -0.19857791191E+02 -0.40468756030E+02  0.65443296405E+02  0.00000000000E+00 0.  1.
         14    1    4    4    0    0  0.30051955659E+02 -0.13693142182E+01 -0.33988739508E+02  0.45389750756E+02  0.00000000000E+00 0. -1.
         -5    1    5    5    0  502 -0.63774090481E+01  0.63498117032E+02 -0.16210433591E+03  0.17427733052E+03  0.47000000000E+01 0.  1.
         13    1    6    6    0    0  0.39486153000E+02 -0.44140487001E+02 -0.13441026900E+02  0.60730553064E+02  0.00000000000E+00 0. -1.
        -14    1    6    6    0    0  0.27380417014E+01  0.11244179255E+02 -0.59440846377E+02  0.60556937320E+02  0.00000000000E+00 0.  1.
</event>
<event>
12    1  0.8494789E-002  0.1907096E+03  0.7818608E-02  0.1157948E+00
         21   -1    0    0  501  502  0.00000000000E+00  0.00000000000E+00  0.95667840356E+03  0.95667840356E+03  0.00000000000E+00 0.  1.
         21   -1    0    0  502  503 -0.00000000000E+00 -0.00000000000E+00 -0.60690163222E+02  0.60690163222E+02  0.00000000000E+00 0.  1.
         -6    2    1    2    0  503 -0.45390673397E+02 -0.61454524814E+02  0.13591365817E+03  0.23373375242E+03  0.17413205533E+03 0.  0.
        -24    2    3    3    0    0 -0.21235900126E+02 -0.37029856789E+02  0.16613521706E+03  0.18773972996E+03  0.76309384163E+02 0.  0.
          6    2    1    2  501    0  0.45390673397E+02  0.61454524814E+02  0.76007458217E+03  0.78363481436E+03  0.17473746012E+03 0.  0.
         24    2    5    5    0    0  0.64125516116E+02  0.83035431807E+02  0.36006566561E+03  0.38257876690E+03  0.75579524868E+02 0.  0.
          5    1    5    5  501    0 -0.18734842719E+02 -0.21580906993E+02  0.40000891656E+03  0.40105604746E+03  0.47000000000E+01 0. -1.
        -11    1    6    6    0    0  0.40546030278E+01 -0.12814569471E+02  0.69161930581E+02  0.70455841760E+02  0.00000000000E+00 0.  1.
         12    1    6    6    0    0  0.60070913088E+02  0.95850001278E+02  0.29090373502E+03  0.31212292514E+03  0.00000000000E+00 0. -1.
         -5    1    3    3    0  503 -0.24154773271E+02 -0.24424668025E+02 -0.30221558891E+02  0.45994022456E+02  0.47000000000E+01 0.  1.
         11    1    4    4    0    0  0.33541967304E+01  0.19169593171E+02  0.77777184112E+02  0.80174898231E+02  0.00000000000E+00 0. -1.
        -12    1    4    4    0    0 -0.24590096856E+02 -0.56199449960E+02  0.88358032948E+02  0.10756483173E+03  0.00000000000E+00 0.  1.
</event>
<event>
12    1  0.8494789E-002  0.1776470E+03  0.7818608E-02  0.1170454E+00
         21   -1    0    0  501  502  0.00000000000E+00  0.00000000000E+00  0.54539792062E+03  0.54539792062E+03  0.00000000000E+00 0.  1.
         21   -1    0    0  502  503 -0.00000000000E+00 -0.00000000000E+00 -0.60660652108E+02  0.60660652108E+02  0.00000000000E+00 0. -1.
         -6    2    1    2    0  503 -0.25549388876E+02  0.26805095545E+02  0.17302066243E+03  0.24798102473E+03  0.17374450949E+03 0.  0.
        -24    2    3    3    0    0 -0.75753579030E+02  0.37063618040E+02  0.77414699482E+02  0.13940714139E+03  0.79555005223E+02 0.  0.
          6    2    1    2  501    0  0.25549388876E+02 -0.26805095545E+02  0.31171660608E+03  0.35807754799E+03  0.17228175601E+03 0.  0.
         24    2    5    5    0    0  0.30388220521E+02  0.37051199254E+02  0.99730438841E+02  0.13657976973E+03  0.80072702932E+02 0.  0.
          5    1    5    5  501    0 -0.48388316451E+01 -0.63856294799E+02  0.21198616724E+03  0.22149777827E+03  0.47000000000E+01 0. -1.
        -11    1    6    6    0    0  0.23799407987E+02  0.24580560457E+02  0.11247911958E+03  0.11756771715E+03  0.00000000000E+00 0.  1.
         12    1    6    6    0    0  0.65888125340E+01  0.12470638797E+02 -0.12748680743E+02  0.19012052580E+02  0.00000000000E+00 0. -1.
         -5    1    3    3    0  503  0.50204190154E+02 -0.10258522495E+02  0.95605962951E+02  0.10857388335E+03  0.47000000000E+01 0.  1.
         11    1    4    4    0    0 -0.18549114557E+02  0.36672656203E+02 -0.24482103367E+01  0.41169735215E+02  0.00000000000E+00 0. -1.
        -12    1    4    4    0    0 -0.57204464473E+02  0.39096183683E+00  0.79862909819E+02  0.98237406173E+02  0.00000000000E+00 0.  1.
</event>
<event>
12    1  0.8494789E-002  0.2489489E+03  0.7818608E-02  0.1114020E+00
         21   -1    0    0  503  502  0.00000000000E+00  0.00000000000E+00  0.38308252089E+03  0.38308252089E+03  0.00000000000E+00 0.  1.
         21   -1    0    0  501  503 -0.00000000000E+00 -0.00000000000E+00 -0.16691517651E+03  0.16691517651E+03  0.00000000000E+00 0. -1.
          6    2    1    2  501    0  0.14896914818E+03  0.99139450493E+02  0.15730873299E+03  0.29448529883E+03  0.17307546330E+03 0.  0.
         24    2    3    3    0    0  0.13440899692E+03  0.72394998251E+02  0.18518571951E+03  0.25293436493E+03  0.79845025039E+02 0.  0.
         -6    2    1    2    0  502 -0.14896914818E+03 -0.99139450493E+02  0.58858611395E+02  0.25551239857E+03  0.17263201306E+03 0.  0.
        -24    2    5    5    0    0 -0.16237746611E+03 -0.67572920246E+02  0.83485651082E+02  0.21302934424E+03  0.86481827687E+02 0.  0.
          5    1    3    3  501    0  0.14560151260E+02  0.26744452241E+02 -0.27876986525E+02  0.41550933902E+02  0.47000000000E+01 0. -1.
        -13    1    4    4    0    0  0.26260229247E+02  0.55894672656E+02  0.53267352587E+02  0.81555042291E+02  0.00000000000E+00 0.  1.
         14    1    4    4    0    0  0.10814876768E+03  0.16500325595E+02  0.13191836692E+03  0.17137932263E+03  0.00000000000E+00 0. -1.
         -5    1    5    5    0  502  0.13408317927E+02 -0.31566530247E+02 -0.24627039686E+02  0.42483054330E+02  0.47000000000E+01 0.  1.
         13    1    6    6    0    0 -0.40993816144E+02 -0.25428028553E+02 -0.15676535933E+02  0.50723085247E+02  0.00000000000E+00 0. -1.
        -14    1    6    6    0    0 -0.12138364997E+03 -0.42144891693E+02  0.99162187014E+02  0.16230625899E+03  0.00000000000E+00 0.  1.
</event>
<event>
12    1  0.8494789E-002  0.3116052E+03  0.7818608E-02  0.1079652E+00
         21   -1    0    0  503  502  0.00000000000E+00  0.00000000000E+00  0.32632362252E+03  0.32632362252E+03  0.00000000000E+00 0.  1.
         21   -1    0    0  501  503 -0.00000000000E+00 -0.00000000000E+00 -0.33009430969E+03  0.33009430969E+03  0.00000000000E+00 0. -1.
          6    2    1    2  501    0 -0.25364731963E+03 -0.52312640765E+02 -0.10586285303E+03  0.32851456251E+03  0.17216648626E+03 0.  0.
         24    2    3    3    0    0 -0.51627781341E+02  0.18695121995E+02 -0.48992625266E+02  0.10690610367E+03  0.77548064317E+02 0.  0.
         -6    2    1    2    0  502  0.25364731963E+03  0.52312640765E+02  0.10209216585E+03  0.32790336970E+03  0.17327502529E+03 0.  0.
        -24    2    5    5    0    0  0.25972059002E+03  0.70982854808E+02  0.11348020329E+03  0.30472495512E+03  0.86522778380E+02 0.  0.
          5    1    3    3  501    0 -0.20201953829E+03 -0.71007762759E+02 -0.56870227765E+02  0.22160845884E+03  0.47000000000E+01 0. -1.
        -13    1    4    4    0    0 -0.18664348715E+02  0.27380743884E+02  0.13451596326E+02  0.35763228214E+02  0.00000000000E+00 0.  1.
         14    1    4    4    0    0 -0.32963432626E+02 -0.86856218892E+01 -0.62444221592E+02  0.71142875458E+02  0.00000000000E+00 0. -1.
         -5    1    5    5    0  502 -0.60732703884E+01 -0.18670214043E+02 -0.11388037435E+02  0.23178414575E+02  0.47000000000E+01 0.  1.
         11    1    6    6    0    0  0.10885395327E+03 -0.13558221857E+02  0.38875043021E+02  0.11637988439E+03  0.00000000000E+00 0. -1.
        -12    1    6    6    0    0  0.15086663675E+03  0.84541076665E+02  0.74605160266E+02  0.18834507073E+03  0.00000000000E+00 0.  1.
</event>
<event>
12    1  0.8494789E-002  0.3252067E+03  0.7818608E-02  0.1073301E+00
         21   -1    0    0  501  502  0.00000000000E+00  0.00000000000E+00  0.22133717870E+03  0.22133717870E+03  0.00000000000E+00 0.  1.
         21   -1    0    0  502  503 -0.00000000000E+00 -0.00000000000E+00 -0.48888584929E+03  0.48888584929E+03  0.00000000000E+00 0. -1.
         -6    2    1    2    0  503 -0.22861235540E+03  0.15332149715E+03 -0.79583858584E+02  0.33460327509E+03  0.17278504167E+03 0.  0.
        -24    2    3    3    0    0 -0.15053852059E+03  0.17383895990E+03 -0.62762061531E+02  0.25201058282E+03  0.81782805809E+02 0.  0.
          6    2    1    2  501    0  0.22861235540E+03 -0.15332149715E+03 -0.18796481201E+03  0.37561975290E+03  0.17317141129E+03 0.  0.
         24    2    5    5    0    0  0.16309056112E+03 -0.15362274083E+03 -0.83224102577E+02  0.25198358309E+03  0.79818527110E+02 0.  0.
          5    1    5    5  501    0  0.65521794281E+02  0.30124368417E+00 -0.10474070943E+03  0.12363616981E+03  0.47000000000E+01 0. -1.
        -13    1    6    6    0    0  0.10650912628E+03 -0.48601118847E+02 -0.55239457488E+02  0.12945138237E+03  0.00000000000E+00 0.  1.
         14    1    6    6    0    0  0.56581434846E+02 -0.10502162198E+03 -0.27984645089E+02  0.12253220072E+03  0.00000000000E+00 0. -1.
         -5    1    3    3    0  503 -0.78073834817E+02 -0.20517462752E+02 -0.16821797053E+02  0.82592692273E+02  0.47000000000E+01 0.  1.
         13    1    4    4    0    0 -0.13382922282E+03  0.10903780376E+03 -0.22953701897E+02  0.17414469834E+03  0.00000000000E+00 0. -1.
        -14    1    4    4    0    0 -0.16709297768E+02  0.64801156142E+02 -0.39808359634E+02  0.77865884481E+02  0.00000000000E+00 0.  1.
</event>
<event>
12    1  0.8494789E-002  0.1952967E+03  0.7818608E-02  0.1154857E+00
         21   -1    0    0  503  502  0.00000000000E+00  0.00000000000E+00  0.53936543750E+02  0.53936543750E+02  0.00000000000E+00 0.  1.
         21   -1    0    0  501  503 -0.00000000000E+00 -0.00000000000E+00 -0.12523121928E+04  0.12523121928E+04  0.00000000000E+00 0.  1.
          6    2    1    2  501    0  0.49918220037E+02 -0.74714831507E+02 -0.10412755831E+04  0.10594317551E+04  0.17339743043E+03 0.  0.
         24    2    3    3    0    0  0.99594863985E+02 -0.54573610716E+02 -0.80147820741E+03  0.81367108056E+03  0.82437215349E+02 0.  0.
         -6    2    1    2    0  502 -0.49918220037E+02  0.74714831507E+02 -0.15710006591E+03  0.24681698147E+03  0.16782150308E+03 0.  0.
        -24    2    5    5    0    0  0.28947169218E+02  0.43030154699E+02 -0.11005374804E+03  0.14955900292E+03  0.86985832626E+02 0.  0.
          5    1    3    3  501    0 -0.49676643948E+02 -0.20141220791E+02 -0.23979737573E+03  0.24576067451E+03  0.47000000000E+01 0. -1.
        -11    1    4    4    0    0  0.44665426980E+02 -0.59307513225E+02 -0.60716915949E+03  0.61169172769E+03  0.00000000000E+00 0.  1.
         12    1    4    4    0    0  0.54929437005E+02  0.47339025093E+01 -0.19430904792E+03  0.20197935287E+03  0.00000000000E+00 0. -1.
         -5    1    5    5    0  502 -0.78865389255E+02  0.31684676809E+02 -0.47046317863E+02  0.97257978548E+02  0.47000000000E+01 0.  1.
         11    1    6    6    0    0  0.87182700414E+01 -0.25378813390E+02 -0.15092314656E+02  0.30787503362E+02  0.00000000000E+00 0. -1.
        -12    1    6    6    0    0  0.20228899177E+02  0.68408968089E+02 -0.94961433387E+02  0.11877149956E+03  0.00000000000E+00 0.  1.
</event>
<event>
12    1  0.8494789E-002  0.2654432E+03  0.7818608E-02  0.1104009E+00
         21   -1    0    0  503  502  0.00000000000E+00  0.00000000000E+00  0.46272499890E+03  0.46272499890E+03  0.00000000000E+00 0.  1.
         21   -1    0    0  501  503 -0.00000000000E+00 -0.00000000000E+00 -0.16383309566E+03  0.16383309566E+03  0.00000000000E+00 0.  1.
          6    2    1    2  501    0 -0.64022638277E+02  0.19161198842E+03  0.23412615391E+03  0.35394230824E+03  0.17218028140E+03 0.  0.
         24    2    3    3    0    0 -0.76979378838E+02  0.11322634069E+03  0.22332595262E+03  0.27362468101E+03  0.79056662934E+02 0.  0.
         -6    2    1    2    0  502  0.64022638277E+02 -0.19161198842E+03  0.64765749331E+02  0.27261578633E+03  0.17120371593E+03 0.  0.
        -24    2    5    5    0    0  0.47929408712E+01 -0.46940782602E+02  0.71849996375E+02  0.11605847604E+03  0.77979090326E+02 0.  0.
          5    1    3    3  501    0  0.12956740561E+02  0.78385647727E+02  0.10800201289E+02  0.80317627227E+02  0.47000000000E+01 0. -1.
        -11    1    4    4    0    0 -0.41999539562E+02  0.73498255755E+02  0.65129503502E+02  0.10680733659E+03  0.00000000000E+00 0.  1.
         12    1    4    4    0    0 -0.34979839275E+02  0.39728084939E+02  0.15819644912E+03  0.16681734443E+03  0.00000000000E+00 0. -1.
         -5    1    5    5    0  502  0.59229697406E+02 -0.14467120582E+03 -0.70842470435E+01  0.15655731029E+03  0.47000000000E+01 0.  1.
         13    1    6    6    0    0 -0.10523174130E+02  0.12792741350E+02 -0.52077765434E+01  0.17364111309E+02  0.00000000000E+00 0. -1.
        -14    1    6    6    0    0  0.15316115001E+02 -0.59733523953E+02  0.77057772918E+02  0.98694364731E+02  0.00000000000E+00 0.  1.
</event>
<event>
12    1  0.8494789E-002  0.1743043E+03  0.7818608E-02  0.1173802E+00
         21   -1    0    0  501  502  0.00000000000E+00  0.00000000000E+00  0.18869095947E+03  0.18869095947E+03  0.00000000000E+00 0.  1.
         21   -1    0    0  502  503 -0.00000000000E+00 -0.00000000000E+00 -0.16146495595E+03  0.16146495595E+03  0.00000000000E+00 0.  1.
         -6    2    1    2    0  503  0.53806819701E+01 -0.16255948564E+02  0.32014735793E+02  0.17578585304E+03  0.17199568372E+03 0.  0.
        -24    2    3    3    0    0 -0.59022690459E+02 -0.34147990993E+02  0.12038877100E+02  0.10586415045E+03  0.80078214955E+02 0.  0.
          6    2    1    2  501    0 -0.53806819701E+01  0.16255948564E+02 -0.47887322752E+01  0.17437006239E+03  0.17346117461E+03 0.  0.
         24    2    5    5    0    0 -0.46743865670E+02 -0.11589729845E+02 -0.52140130781E+02  0.10544590325E+03  0.77980346620E+02 0.  0.
          5    1    5    5  501    0  0.41363183700E+02  0.27845678409E+02  0.47351398506E+02  0.68924159134E+02  0.47000000000E+01 0. -1.
        -11    1    6    6    0    0 -0.52917165508E+02  0.21499843767E+02 -0.39701814253E+02  0.69560791703E+02  0.00000000000E+00 0.  1.
         12    1    6    6    0    0  0.61732998379E+01 -0.33089573612E+02 -0.12438316528E+02  0.35885111548E+02  0.00000000000E+00 0. -1.
         -5    1    3    3    0  503  0.64403372429E+02  0.17892042428E+02  0.19975858693E+02  0.69921702590E+02  0.47000000000E+01 0.  1.
         11    1    4    4    0    0  0.65398570751E+01  0.10181642128E+02 -0.17595659129E+02  0.21355158327E+02  0.00000000000E+00 0. -1.
        -12    1    4    4    0    0 -0.65562547534E+02 -0.44329633121E+02  0.29634536229E+02  0.84508992121E+02  0.00000000000E+00 0.  1.
</event>
<event>
12    1  0.8494789E-002  0.1762204E+03  0.7818608E-02  0.1172129E+00
         21   -1    0    0  503  502  0.00000000000E+00  0.00000000000E+00  0.21813668167E+03  0.21813668167E+03  0.00000000000E+00 0. -1.
         21   -1    0    0  501  503 -0.00000000000E+00 -0.00000000000E+00 -0.14447422870E+03  0.14447422870E+03  0.00000000000E+00 0. -1.
          6    2    1    2  501    0  0.44715398919E+00 -0.36419702602E+02  0.67619205889E+02  0.18874843905E+03  0.17241525906E+03 0.  0.
         24    2    3    3    0    0 -0.92757487703E+01 -0.44931131102E+02 -0.24883923655E+02  0.95228931842E+02  0.79652330449E+02 0.  0.
         -6    2    1    2    0  502 -0.44715398919E+00  0.36419702602E+02  0.60432470815E+01  0.17386247131E+03  0.16989715540E+03 0.  0.
        -24    2    5    5    0    0  0.32265096037E+02  0.16110589126E+02 -0.53538793400E+02  0.10276633260E+03  0.79962048580E+02 0.  0.
          5    1    3    3  501    0  0.97229027595E+01  0.85114285003E+01  0.92503129545E+02  0.93519507210E+02  0.47000000000E+01 0. -1.
        -11    1    4    4    0    0 -0.20829629091E+02 -0.41366776470E+02  0.18738254066E+02  0.49962043684E+02  0.00000000000E+00 0.  1.
         12    1    4    4    0    0  0.11553880320E+02 -0.35643546320E+01 -0.43622177721E+02  0.45266888159E+02  0.00000000000E+00 0. -1.
         -5    1    5    5    0  502 -0.32712250026E+02  0.20309113476E+02  0.59582040482E+02  0.71096138713E+02  0.47000000000E+01 0.  1.
         11    1    6    6    0    0 -0.13480098639E+02  0.15924897600E+02 -0.53063835083E+02  0.57018295455E+02  0.00000000000E+00 0. -1.
        -12    1    6    6    0    0  0.45745194675E+02  0.18569152523E+00 -0.47495831704E+00  0.45748037145E+02  0.00000000000E+00 0.  1.
</event>
<event>
12    1  0.8494789E-002  0.1722975E+03  0.7818608E-02  0.1175644E+00
         21   -1    0    0  503  502  0.00000000000E+00  0.00000000000E+00  0.47302087268E+03  0.47302087268E+03  0.00000000000E+00 0.  1.
         21   -1    0    0  501  503 -0.00000000000E+00 -0.00000000000E+00 -0.78238928841E+02  0.78238928841E+02  0.00000000000E+00 0.  1.
          6    2    1    2  501    0 -0.16880798084E+02 -0.13831245734E+01  0.74137681405E+02  0.18757081056E+03  0.17146293708E+03 0.  0.
         24    2    3    3    0    0  0.77924086592E+01 -0.17946975855E+02 -0.23856247571E+02  0.85062135722E+02  0.79269356061E+02 0.  0.
         -6    2    1    2    0  502  0.16880798084E+02  0.13831245734E+01  0.32064426243E+03  0.36368899096E+03  0.17079246102E+03 0.  0.
        -24    2    5    5    0    0  0.75681632443E+02 -0.11320871463E+02  0.19516989684E+03  0.22445955422E+03  0.80218023076E+02 0.  0.
          5    1    3    3  501    0 -0.24673206744E+02  0.16563851281E+02  0.97993928976E+02  0.10250867483E+03  0.47000000000E+01 0. -1.
        -11    1    4    4    0    0 -0.30526447855E+02  0.93884901173E+00  0.82345706913E+01  0.31631528742E+02  0.00000000000E+00 0.  1.
         12    1    4    4    0    0  0.38318856514E+02 -0.18885824867E+02 -0.32090818262E+02  0.53430606979E+02  0.00000000000E+00 0. -1.
         -5    1    5    5    0  502 -0.58800834358E+02  0.12703996036E+02  0.12547436559E+03  0.13922943675E+03  0.47000000000E+01 0.  1.
         11    1    6    6    0    0  0.14949410798E+02  0.22807205435E+01 -0.41233751099E+01  0.15674463044E+02  0.00000000000E+00 0. -1.
        -12    1    6    6    0    0  0.60732221645E+02 -0.13601592006E+02  0.19929327195E+03  0.20878509118E+03  0.00000000000E+00 0.  1.
</event>
<event>
12    1  0.8494789E-002  0.2857528E+03  0.7818608E-02  0.1092913E+00
         21   -1    0    0  501  502  0.00000000000E+00  0.00000000000E+00  0.67125529252E+03  0.67125529252E+03  0.00000000000E+00 0. -1.
         21   -1    0    0  502  503 -0.00000000000E+00 -0.00000000000E+00 -0.24593787814E+03  0.24593787814E+03  0.00000000000E+00 0.  1.
         -6    2    1    2    0  503 -0.10541593879E+03  0.20215153289E+03 -0.11515548341E+03  0.30582943227E+03  0.16820551086E+03 0.  0.
        -24    2    3    3    0    0  0.41600501527E+01  0.51987497344E+02 -0.64635600608E+02  0.11313671450E+03  0.76825447638E+02 0.  0.
          6    2    1    2  501    0  0.10541593879E+03 -0.20215153289E+03  0.54047289779E+03  0.61136373839E+03  0.17226986089E+03 0.  0.
         24    2    5    5    0    0  0.10647592989E+03 -0.21989151393E+03  0.48388216235E+03  0.55186221029E+03  0.10354009157E+03 0.  0.
          5    1    5    5  501    0 -0.10599911040E+01  0.17739981039E+02  0.56590735440E+02  0.59501528099E+02  0.47000000000E+01 0. -1.
        -11    1    6    6    0    0  0.11027414824E+03 -0.11802632374E+03  0.32789687502E+03  0.36552286045E+03  0.00000000000E+00 0.  1.
         12    1    6    6    0    0 -0.37982183464E+01 -0.10186519019E+03  0.15598528733E+03  0.18633934983E+03  0.00000000000E+00 0. -1.
         -5    1    3    3    0  503 -0.10957598894E+03  0.15016403555E+03 -0.50519882799E+02  0.19269271777E+03  0.47000000000E+01 0.  1.
         11    1    4    4    0    0 -0.19385082953E+02 -0.11852333342E+02 -0.27317344606E+02  0.35531627644E+02  0.00000000000E+00 0. -1.
        -12    1    4    4    0    0  0.23545133105E+02  0.63839830686E+02 -0.37318256002E+02  0.77605086857E+02  0.00000000000E+00 0.  1.
</event>
<event>
12    1  0.8494789E-002  0.3800726E+03  0.7818608E-02  0.1050930E+00
         21   -1    0    0  501  502  0.00000000000E+00  0.00000000000E+00  0.22473898091E+03  0.22473898091E+03  0.00000000000E+00 0.  1.
         21   -1    0    0  502  503 -0.00000000000E+00 -0.00000000000E+00 -0.68923520760E+03  0.68923520760E+03  0.00000000000E+00 0.  1.
         -6    2    1    2    0  503  0.10989126521E+03 -0.32030840256E+03 -0.35150144531E+03  0.51769529123E+03  0.17257342085E+03 0.  0.
        -24    2    3    3    0    0  0.22696203910E+02 -0.63627883989E+02 -0.67260377100E+02  0.12488115937E+03  0.80670442824E+02 0.  0.
          6    2    1    2  501    0 -0.10989126521E+03  0.32030840256E+03 -0.11299478138E+03  0.39627889729E+03  0.17203366211E+03 0.  0.
         24    2    5    5    0    0 -0.10065923610E+03  0.13715272703E+03 -0.10243471318E+03  0.21252679014E+03  0.75707421824E+02 0.  0.
          5    1    5    5  501    0 -0.92320291051E+01  0.18315567553E+03 -0.10560068199E+02  0.18375210715E+03  0.47000000000E+01 0. -1.
        -13    1    6    6    0    0 -0.33996613513E+02  0.22689591476E+02  0.60415739203E+01  0.41316920349E+02  0.00000000000E+00 0.  1.
         14    1    6    6    0    0 -0.66662622587E+02  0.11446313555E+03 -0.10847628710E+03  0.17120986979E+03  0.00000000000E+00 0. -1.
         -5    1    3    3    0  503  0.87195061295E+02 -0.25668051857E+03 -0.28424106821E+03  0.39281413186E+03  0.47000000000E+01 0.  1.
         11    1    4    4    0    0 -0.28386520294E+02 -0.18729025649E+02 -0.37560271205E+02  0.50668973832E+02  0.00000000000E+00 0. -1.
        -12    1    4    4    0    0  0.51082724205E+02 -0.44898858340E+02 -0.29700105895E+02  0.74212185539E+02  0.00000000000E+00 0.  1.
</event>
<event>
12    1  0.8494789E-002  0.3659708E+03  0.7818608E-02  0.1056263E+00
         21   -1    0    0  501  502  0.00000000000E+00  0.00000000000E+00  0.33941081917E+03  0.33941081917E+03  0.00000000000E+00 0.  1.
         21   -1    0    0  502  503 -0.00000000000E+00 -0.00000000000E+00 -0.52520056651E+03  0.52520056651E+03  0.00000000000E+00 0. -1.
         -6    2    1    2    0  503  0.79762646349E+02 -0.31291650720E+03 -0.30865034839E+03  0.47874798936E+03  0.17220853498E+03 0.  0.
        -24    2    3    3    0    0  0.32198292463E+02 -0.10000934566E+03 -0.54525395101E+02  0.14379514330E+03  0.81642055767E+02 0.  0.
          6    2    1    2  501    0 -0.79762646349E+02  0.31291650720E+03  0.12286060105E+03  0.38586339632E+03  0.17180516026E+03 0.  0.
         24    2    5    5    0    0 -0.11693844587E+03  0.21165183671E+03  0.63294159596E+02  0.26254744233E+03  0.80336223023E+02 0.  0.
          5    1    5    5  501    0  0.37175799520E+02  0.10126467050E+03  0.59566441457E+02  0.12331595399E+03  0.47000000000E+01 0. -1.
        -13    1    6    6    0    0  0.10007470566E+02  0.39834207799E+02  0.12992269396E+02  0.43077983265E+02  0.00000000000E+00 0.  1.
         14    1    6    6    0    0 -0.12694591643E+03  0.17181762891E+03  0.50301890200E+02  0.21946945906E+03  0.00000000000E+00 0. -1.
         -5    1    3    3    0  503  0.47564353886E+02 -0.21290716155E+03 -0.25412495329E+03  0.33495284606E+03  0.47000000000E+01 0.  1.
         11    1    4    4    0    0  0.21125316488E+02 -0.10008414607E+03 -0.70591239926E+02  0.12428289684E+03  0.00000000000E+00 0. -1.
        -12    1    4    4    0    0  0.11072975975E+02  0.74800417692E-01  0.16065844826E+02  0.19512246463E+02  0.00000000000E+00 0.  1.
</event>
<event>
12    1  0.8494789E-002  0.2317371E+03  0.7818608E-02  0.1125446E+00
         21   -1    0    0  501  502  0.00000000000E+00  0.00000000000E+00  0.11701656900E+03  0.11701656900E+03  0.00000000000E+00 0. -1.
         21   -1    0    0  502  503 -0.00000000000E+00 -0.00000000000E+00 -0.47726506595E+03  0.47726506595E+03  0.00000000000E+00 0. -1.
         -6    2    1    2    0  503  0.13887210512E+03  0.65700560133E+02 -0.12151578368E+03  0.26166425852E+03  0.17349372704E+03 0.  0.
        -24    2    3    3    0    0  0.16322330133E+03  0.74142440747E+02 -0.12859903821E+03  0.23452556659E+03  0.79533522110E+02 0.  0.
          6    2    1    2  501    0 -0.13887210512E+03 -0.65700560133E+02 -0.23873271328E+03  0.33261737642E+03  0.17331758574E+03 0.  0.
         24    2    5    5    0    0 -0.32671612613E+02 -0.76836215497E+02 -0.79051699879E+02  0.14046466770E+03  0.80684033958E+02 0.  0.
          5    1    5    5  501    0 -0.10620049251E+03  0.11135655364E+02 -0.15968101340E+03  0.19215270872E+03  0.47000000000E+01 0. -1.
        -13    1    6    6    0    0 -0.55726936046E+02 -0.59589221787E+02 -0.37204543729E+02  0.89669085132E+02  0.00000000000E+00 0.  1.
         14    1    6    6    0    0  0.23055323433E+02 -0.17246993710E+02 -0.41847156150E+02  0.50795582569E+02  0.00000000000E+00 0. -1.
         -5    1    3    3    0  503 -0.24351196207E+02 -0.84418806147E+01  0.70832545289E+01  0.27138691931E+02  0.47000000000E+01 0.  1.
         11    1    4    4    0    0  0.10473964596E+03  0.74961489494E+02 -0.53829491569E+02  0.13959667799E+03  0.00000000000E+00 0. -1.
        -12    1    4    4    0    0  0.58483655366E+02 -0.81904874695E+00 -0.74769546638E+02  0.94928888597E+02  0.00000000000E+00 0.  1.
</event>
<event>
12    1  0.8494789E-002  0.4720038E+03  0.7818608E-02  0.1021373E+00
         21   -1    0    0  503  502  0.00000000000E+00  0.00000000000E+00  0.40033566522E+03  0.40033566522E+03  0.00000000000E+00 0. -1.
         21   -1    0    0  501  503 -0.00000000000E+00 -0.00000000000E+00 -0.56708164857E+03  0.56708164857E+03  0.00000000000E+00 0. -1.
          6    2    1    2  501    0  0.24428642013E+03  0.36471936726E+03 -0.15034098912E+03  0.49536850615E+03  0.17346893659E+03 0.  0.
         24    2    3    3    0    0  0.22272024518E+03  0.29426265778E+03 -0.66124052484E+02  0.38336926406E+03  0.80029887751E+02 0.  0.
         -6    2    1    2    0  502 -0.24428642013E+03 -0.36471936726E+03 -0.16404994235E+02  0.47204880764E+03  0.17281458573E+03 0.  0.
        -24    2    5    5    0    0 -0.12490294777E+03 -0.28021098563E+03  0.30279444262E+02  0.31844019187E+03  0.79802056536E+02 0.  0.
          5    1    3    3  501    0  0.21566174955E+02  0.70456709482E+02 -0.84216936631E+02  0.11199924209E+03  0.47000000000E+01 0. -1.
        -13    1    4    4    0    0  0.49990638237E+02  0.45007030467E+02  0.16097240360E+02  0.69165149100E+02  0.00000000000E+00 0.  1.
         14    1    4    4    0    0  0.17272960694E+03  0.24925562731E+03 -0.82221292844E+02  0.31420411496E+03  0.00000000000E+00 0. -1.
         -5    1    5    5    0  502 -0.11938347236E+03 -0.84508381634E+02 -0.46684438497E+02  0.15360861576E+03  0.47000000000E+01 0.  1.
         11    1    6    6    0    0 -0.42869895405E+02 -0.11001599970E+03 -0.26792536830E+02  0.12107513433E+03  0.00000000000E+00 0. -1.
        -12    1    6    6    0    0 -0.82033052366E+02 -0.17019498592E+03  0.57071981092E+02  0.19736505754E+03  0.00000000000E+00 0.  1.
</event>
<event>
12    1  0.8494789E-002  0.2801888E+03  0.7818608E-02  0.1095634E+00
         21   -1    0    0  503  502  0.00000000000E+00  0.00000000000E+00  0.28810609205E+03  0.28810609205E+03  0.00000000000E+00 0.  1.
         21   -1    0    0  501  503 -0.00000000000E+00 -0.00000000000E+00 -0.28301689578E+03  0.28301689578E+03  0.00000000000E+00 0. -1.
          6    2    1    2  501    0 -0.63393722498E+02  0.21041525858E+03 -0.53419756991E+02  0.28489046706E+03  0.17325000054E+03 0.  0.
         24    2    3    3    0    0  0.12005705220E+02  0.60432918384E+02 -0.56287312671E+02  0.11693187410E+03  0.81905598293E+02 0.  0.
         -6    2    1    2    0  502  0.63393722498E+02 -0.21041525858E+03  0.58508953261E+02  0.28623252078E+03  0.17381718339E+03 0.  0.
        -24    2    5    5    0    0  0.84490149932E+02 -0.22538214459E+03  0.56443848453E+02  0.25986167352E+03  0.80040519753E+02 0.  0.
          5    1    3    3  501    0 -0.75399427719E+02  0.14998234020E+03  0.28675556800E+01  0.16795859295E+03  0.47000000000E+01 0. -1.
        -13    1    4    4    0    0 -0.20436983465E+02 -0.98006338568E+01 -0.27107067661E+01  0.22826971948E+02  0.00000000000E+00 0.  1.
         14    1    4    4    0    0  0.32442688686E+02  0.70233552241E+02 -0.53576605905E+02  0.94104902156E+02  0.00000000000E+00 0. -1.
         -5    1    5    5    0  502 -0.21096427434E+02  0.14966886006E+02  0.20651048079E+01  0.26370847257E+02  0.47000000000E+01 0.  1.
         13    1    6    6    0    0  0.27178229886E+02 -0.14895435238E+03  0.53069707151E+01  0.15150649890E+03  0.00000000000E+00 0. -1.
        -14    1    6    6    0    0  0.57311920046E+02 -0.76427792211E+02  0.51136877738E+02  0.10835517462E+03  0.00000000000E+00 0.  1.
</event>
<event>
12    1  0.8494789E-002  0.2595146E+03  0.7818608E-02  0.1109567E+00
         21   -1    0    0  503  502  0.00000000000E+00  0.00000000000E+00  0.14283383303E+03  0.14283383303E+03  0.00000000000E+00 0. -1.
         21   -1    0    0  501  503 -0.00000000000E+00 -0.00000000000E+00 -0.53124880267E+03  0.53124880267E+03  0.00000000000E+00 0. -1.
          6    2    1    2  501    0 -0.17003620787E+03 -0.93267642437E+02 -0.33294336414E+03  0.42213636373E+03  0.17244321022E+03 0.  0.
         24    2    3    3    0    0 -0.25064143693E+02 -0.39865697401E+02 -0.18947401990E+03  0.21124726999E+03  0.80669199399E+02 0.  0.
         -6    2    1    2    0  502  0.17003620787E+03  0.93267642437E+02 -0.55471605513E+02  0.25194627197E+03  0.15095913297E+03 0.  0.
        -24    2    5    5    0    0  0.34760329533E+02  0.61381877166E+02 -0.14402831418E+02  0.10694627372E+03  0.79082542670E+02 0.  0.
          5    1    3    3  501    0 -0.14497206418E+03 -0.53401945036E+02 -0.14346934423E+03  0.21088909374E+03  0.47000000000E+01 0. -1.
        -13    1    4    4    0    0 -0.32719920832E+02  0.13587766849E+02 -0.10659897270E+03  0.11233237114E+03  0.00000000000E+00 0.  1.
         14    1    4    4    0    0  0.76557771385E+01 -0.53453464250E+02 -0.82875047207E+02  0.98914898845E+02  0.00000000000E+00 0. -1.
         -5    1    5    5    0  502  0.13527587834E+03  0.31885765271E+02 -0.41068774095E+02  0.14499999825E+03  0.47000000000E+01 0.  1.
         13    1    6    6    0    0  0.59065542752E+02  0.55061874690E+02 -0.89182749100E+01  0.81240901106E+02  0.00000000000E+00 0. -1.
        -14    1    6    6    0    0 -0.24305213220E+02  0.63200024753E+01 -0.54845565078E+01  0.25705372610E+02  0.00000000000E+00 0.  1.
</event>
<event>
12    1  0.8494789E-002  0.1892370E+03  0.7818608E-02  0.1159731E+00
         21   -1    0    0  501  502  0.00000000000E+00  0.00000000000E+00  0.46086354832E+02  0.46086354832E+02  0.00000000000E+00 0.  1.
         21   -1    0    0  502  503 -0.00000000000E+00 -0.00000000000E+00 -0.12082316590E+04  0.12082316590E+04  0.00000000000E+00 0.  1.
         -6    2    1    2    0  503  0.61871133269E+01 -0.79257175887E+02 -0.95772639183E+03  0.97575432542E+03  0.16892803700E+03 0.  0.
        -24    2    3    3    0    0  0.26296659520E+02 -0.26385431945E+02 -0.84509913945E+03  0.84963215000E+03  0.79338070925E+02 0.  0.
          6    2    1    2  501    0 -0.61871133269E+01  0.79257175887E+02 -0.20441891239E+03  0.27856368845E+03  0.17172843818E+03 0.  0.
         24    2    5    5    0    0 -0.52872030358E+01  0.12617629864E+02 -0.19532080587E+03  0.21113591617E+03  0.78999992343E+02 0.  0.
          5    1    5    5  501    0 -0.89991029117E+00  0.66639546023E+02 -0.90981065116E+01  0.67427772281E+02  0.47000000000E+01 0. -1.
        -11    1    6    6    0    0  0.20563790318E+02 -0.58192616662E+01 -0.10878954193E+02  0.23980928317E+02  0.00000000000E+00 0.  1.
         12    1    6    6    0    0 -0.25850993354E+02  0.18436891530E+02 -0.18444185168E+03  0.18715498785E+03  0.00000000000E+00 0. -1.
         -5    1    3    3    0  503 -0.20109546193E+02 -0.52871743942E+02 -0.11262725238E+03  0.12612217543E+03  0.47000000000E+01 0.  1.
         13    1    4    4    0    0 -0.50648915117E+01  0.22237093853E+02 -0.11473213326E+03  0.11697693735E+03  0.00000000000E+00 0. -1.
        -14    1    4    4    0    0  0.31361551032E+02 -0.48622525798E+02 -0.73036700619E+03  0.73265521265E+03  0.00000000000E+00 0.  1.
</event>
<event>
12    1  0.8494789E-002  0.1837459E+03  0.7818608E-02  0.1164398E+00
         21   -1    0    0  501  502  0.00000000000E+00  0.00000000000E+00  0.60640920248E+03  0.60640920248E+03  0.00000000000E+00 0.  1.
         21   -1    0    0  502  503 -0.00000000000E+00 -0.00000000000E+00 -0.57221067398E+02  0.57221067398E+02  0.00000000000E+00 0.  1.
         -6    2    1    2    0  503 -0.60829561452E+02 -0.21123814152E+02  0.21684852241E+03  0.28422848158E+03  0.17209327993E+03 0.  0.
        -24    2    3    3    0    0  0.27590848588E+02 -0.25588690750E+02  0.14714445129E+03  0.17145059560E+03  0.79547351721E+02 0.  0.
          6    2    1    2  501    0  0.60829561452E+02  0.21123814152E+02  0.33233961267E+03  0.37940178830E+03  0.17131738892E+03 0.  0.
         24    2    5    5    0    0  0.49205094981E+02 -0.40602891578E+02  0.27913231044E+03  0.29694924782E+03  0.78703703042E+02 0.  0.
          5    1    5    5  501    0  0.11624466471E+02  0.61726705730E+02  0.53207302230E+02  0.82452540480E+02  0.47000000000E+01 0. -1.
        -11    1    6    6    0    0  0.53399883879E+02  0.26233560928E+01  0.19594094553E+03  0.20310412042E+03  0.00000000000E+00 0.  1.
         12    1    6    6    0    0 -0.41947888980E+01 -0.43226247671E+02  0.83191364916E+02  0.93845127408E+02  0.00000000000E+00 0. -1.
         -5    1    3    3    0  503 -0.88420410039E+02  0.44648765977E+01  0.69704071119E+02  0.11277788598E+03  0.47000000000E+01 0.  1.
         13    1    4    4    0    0 -0.17703401162E+02  0.16900826549E+02  0.28758043931E+02  0.37763387580E+02  0.00000000000E+00 0. -1.
        -14    1    4    4    0    0  0.45294249750E+02 -0.42489517299E+02  0.11838640736E+03  0.13368720802E+03  0.00000000000E+00 0.  1.
</event>
<event>
12    1  0.8494789E-002  0.1829734E+03  0.7818608E-02  0.1168254E+00
         21   -1    0    0  501  502  0.00000000000E+00  0.00000000000E+00  0.33214181725E+03  0.33214181725E+03  0.00000000000E+00 0. -1.
         21   -1    0    0  502  503 -0.00000000000E+00 -0.00000000000E+00 -0.14230740207E+03  0.14230740207E+03  0.00000000000E+00 0. -1.
         -6    2    1    2    0  503 -0.13280540739E+02 -0.58423598690E+02 -0.41483684800E+02  0.18761708885E+03  0.17288604998E+03 0.  0.
        -24    2    3    3    0    0 -0.48558398757E+02 -0.91181437009E+02 -0.48981191373E+02  0.13866909765E+03  0.78472855120E+02 0.  0.
          6    2    1    2  501    0  0.13280540739E+02  0.58423598690E+02  0.23131809998E+03  0.28683213047E+03  0.15866605826E+03 0.  0.
         24    2    5    5    0    0  0.54696504258E+02  0.36580314565E+02  0.21423893660E+03  0.23677017967E+03  0.76367329624E+02 0.  0.
          5    1    5    5  501    0 -0.41415963519E+02  0.21843284125E+02  0.17079163373E+02  0.50061950792E+02  0.47000000000E+01 0. -1.
        -11    1    6    6    0    0  0.70393093152E+02  0.22580515327E+02  0.12624237786E+03  0.14629492542E+03  0.00000000000E+00 0.  1.
         12    1    6    6    0    0 -0.15696588894E+02  0.13999799238E+02  0.87996558742E+02  0.90475254252E+02  0.00000000000E+00 0. -1.
         -5    1    3    3    0  503  0.35277858018E+02  0.32757838319E+02  0.74975065729E+01  0.48947991200E+02  0.47000000000E+01 0.  1.
         11    1    4    4    0    0 -0.33427853155E+01  0.11649234051E+02  0.60899562535E+01  0.13563422680E+02  0.00000000000E+00 0. -1.
        -12    1    4    4    0    0 -0.45215613442E+02 -0.10283067106E+03 -0.55071147627E+02  0.12510567497E+03  0.00000000000E+00 0.  1.
</event>
<event>
12    1  0.8494789E-002  0.1781545E+03  0.7818608E-02  0.1169742E+00
         21   -1    0    0  503  502  0.00000000000E+00  0.00000000000E+00  0.95521337374E+03  0.95521337374E+03  0.00000000000E+00 0. -1.
         21   -1    0    0  501  503 -0.00000000000E+00 -0.00000000000E+00 -0.11486915154E+03  0.11486915154E+03  0.00000000000E+00 0. -1.
          6    2    1    2  501    0  0.38422461814E+02 -0.22202516521E+02 -0.30995843074E+02  0.18083073687E+03  0.17253920075E+03 0.  0.
         24    2    3    3    0    0  0.31054765052E+01 -0.74409174760E+02  0.77498963299E+01  0.10669473389E+03  0.76008789449E+02 0.  0.
         -6    2    1    2    0  502 -0.38422461814E+02  0.22202516521E+02  0.87134006527E+03  0.88925178841E+03  0.17194765638E+03 0.  0.
        -24    2    5    5    0    0 -0.47286266146E+02 -0.47574966210E+02  0.46497516256E+03  0.47681756544E+03  0.81570341045E+02 0.  0.
          5    1    3    3  501    0  0.35316985309E+02  0.52206658239E+02 -0.38745739403E+02  0.74136002979E+02  0.47000000000E+01 0. -1.
        -13    1    4    4    0    0 -0.12300938686E+02 -0.19929624470E+02  0.36368124897E+02  0.43256716618E+02  0.00000000000E+00 0.  1.
         14    1    4    4    0    0  0.15406415191E+02 -0.54479550290E+02 -0.28618228567E+02  0.63438017270E+02  0.00000000000E+00 0. -1.
         -5    1    5    5    0  502  0.88638043319E+01  0.69777482732E+02  0.40636490271E+03  0.41243422297E+03  0.47000000000E+01 0.  1.
         13    1    6    6    0    0 -0.41716972561E+02  0.11186500127E+02  0.25801557321E+03  0.26160558022E+03  0.00000000000E+00 0. -1.
        -14    1    6    6    0    0 -0.55692935854E+01 -0.58761466338E+02  0.20695958935E+03  0.21521198522E+03  0.00000000000E+00 0.  1.
</event>
<event>
12    1  0.8494789E-002  0.1968965E+03  0.7818608E-02  0.1153392E+00
         21   -1    0    0  501  502  0.00000000000E+00  0.00000000000E+00  0.28364895981E+03  0.28364895981E+03  0.00000000000E+00 0.  1.
         21   -1    0    0  502  503 -0.00000000000E+00 -0.00000000000E+00 -0.14787269470E+03  0.14787269470E+03  0.00000000000E+00 0.  1.
         -6    2    1    2    0  503  0.82522957791E+02  0.49867490907E+02  0.13219823197E+01  0.19690091820E+03  0.17167241694E+03 0.  0.
        -24    2    3    3    0    0  0.17232201980E+01 -0.24586621512E+02  0.25861307035E+02  0.84223143510E+02  0.76270959454E+02 0.  0.
          6    2    1    2  501    0 -0.82522957791E+02 -0.49867490907E+02  0.13445428279E+03  0.23462073630E+03  0.16634942300E+03 0.  0.
         24    2    5    5    0    0 -0.16507576245E+02 -0.22983032892E+02  0.27830715601E+01  0.84820193748E+02  0.79912451506E+02 0.  0.
          5    1    5    5  501    0 -0.66015381545E+02 -0.26884458014E+02  0.13167121123E+03  0.14980054256E+03  0.47000000000E+01 0. -1.
        -13    1    6    6    0    0 -0.21609924281E+02 -0.13978428161E+02  0.39237460088E+02  0.46925084501E+02  0.00000000000E+00 0.  1.
         14    1    6    6    0    0  0.51023480358E+01 -0.90046047311E+01 -0.36454388528E+02  0.37895109246E+02  0.00000000000E+00 0. -1.
         -5    1    3    3    0  503  0.80799737593E+02  0.74454112419E+02 -0.24539324715E+02  0.11267777469E+03  0.47000000000E+01 0.  1.
         13    1    4    4    0    0  0.14062819399E+02 -0.19496526549E+02 -0.23181960778E+02  0.33395819236E+02  0.00000000000E+00 0. -1.
        -14    1    4    4    0    0 -0.12339599201E+02 -0.50900949629E+01  0.49043267813E+02  0.50827324275E+02  0.00000000000E+00 0.  1.
</event>
<event>
12    1  0.8494789E-002  0.2124294E+03  0.7818608E-02  0.1139788E+00
         21   -1    0    0  503  502  0.00000000000E+00  0.00000000000E+00  0.53799092478E+02  0.53799092478E+02  0.00000000000E+00 0. -1.
         21   -1    0    0  501  503 -0.00000000000E+00 -0.00000000000E+00 -0.14643762723E+04  0.14643762723E+04  0.00000000000E+00 0.  1.
          6    2    1    2  501    0  0.91037208182E+02 -0.81761243891E+02 -0.12031288359E+04  0.12217386165E+04  0.17364785317E+03 0.  0.
         24    2    3    3    0    0  0.27215373195E+02 -0.23885679809E+02 -0.24354500482E+03  0.25828336249E+03  0.78005921114E+02 0.  0.
         -6    2    1    2    0  502 -0.91037208182E+02  0.81761243891E+02 -0.20744834391E+03  0.29643674830E+03  0.17282145723E+03 0.  0.
        -24    2    5    5    0    0 -0.20896645509E+02  0.57153975192E+02 -0.19690057798E+03  0.22121333725E+03  0.80388160166E+02 0.  0.
          5    1    3    3  501    0  0.63821834986E+02 -0.57875564082E+02 -0.95958383107E+03  0.96345525396E+03  0.47000000000E+01 0. -1.
        -13    1    4    4    0    0  0.14010508868E+02 -0.48170690268E+02 -0.20371280145E+03  0.20979898769E+03  0.00000000000E+00 0.  1.
         14    1    4    4    0    0  0.13204864328E+02  0.24285010459E+02 -0.39832203370E+02  0.48484374805E+02  0.00000000000E+00 0. -1.
         -5    1    5    5    0  502 -0.70140562673E+02  0.24607268699E+02 -0.10547765936E+02  0.75223411058E+02  0.47000000000E+01 0.  1.
         11    1    6    6    0    0 -0.28035708090E+02  0.25897017759E+01 -0.16560718644E+02  0.32664428441E+02  0.00000000000E+00 0. -1.
        -12    1    6    6    0    0  0.71390625814E+01  0.54564273416E+02 -0.18033985933E+03  0.18854890881E+03  0.00000000000E+00 0.  1.
</event>
<event>
12    1  0.8494789E-002  0.2088817E+03  0.7818608E-02  0.1143277E+00
         21   -1    0    0  503  502  0.00000000000E+00  0.00000000000E+00  0.50867806085E+03  0.50867806085E+03  0.00000000000E+00 0.  1.
         21   -1    0    0  501  503 -0.00000000000E+00 -0.00000000000E+00 -0.85292624266E+02  0.85292624266E+02  0.00000000000E+00 0. -1.
          6    2    1    2  501    0 -0.65069708707E+02  0.96312382565E+02  0.17871965127E+03  0.27490410572E+03  0.17355521186E+03 0.  0.
         24    2    3    3    0    0  0.80264671298E+00  0.11121442281E+03  0.94819287219E+02  0.16709594694E+03  0.81000408468E+02 0.  0.
         -6    2    1    2    0  502  0.65069708707E+02 -0.96312382565E+02  0.24466578532E+03  0.31906657940E+03  0.16861789216E+03 0.  0.
        -24    2    5    5    0    0 -0.49816070380E+01 -0.74737854522E+02  0.19798310264E+03  0.23203779129E+03  0.95045590895E+02 0.  0.
          5    1    3    3  501    0 -0.65872355420E+02 -0.14902040244E+02  0.83900364048E+02  0.10780815878E+03  0.47000000000E+01 0. -1.
        -11    1    4    4    0    0  0.14162464535E+02  0.41151820662E+01  0.46612591218E+02  0.48890119505E+02  0.00000000000E+00 0.  1.
         12    1    4    4    0    0 -0.13359817822E+02  0.10709924074E+03  0.48206696001E+02  0.11820582743E+03  0.00000000000E+00 0. -1.
         -5    1    5    5    0  502  0.70051315745E+02 -0.21574528043E+02  0.46682682679E+02  0.87028788110E+02  0.47000000000E+01 0.  1.
         13    1    6    6    0    0  0.41128193582E+02 -0.11572299946E+02  0.65875309678E+02  0.78517532173E+02  0.00000000000E+00 0. -1.
        -14    1    6    6    0    0 -0.46109800620E+02 -0.63165554576E+02  0.13210779296E+03  0.15352025912E+03  0.00000000000E+00 0.  1.
</event>
<event>
12    1  0.8494789E-002  0.1909345E+03  0.7818608E-02  0.1158494E+00
         21   -1    0    0  503  502  0.00000000000E+00  0.00000000000E+00  0.14073260528E+03  0.14073260528E+03  0.00000000000E+00 0.  1.
         21   -1    0    0  501  503 -0.00000000000E+00 -0.00000000000E+00 -0.38237146686E+03  0.38237146686E+03  0.00000000000E+00 0.  1.
          6    2    1    2  501    0 -0.78280122747E+02 -0.50968687513E+00 -0.27327146471E+03  0.33336658110E+03  0.17414920779E+03 0.  0.
         24    2    3    3    0    0 -0.34914723376E+02  0.47886499786E+02 -0.24308043016E+03  0.26155894005E+03  0.76241909903E+02 0.  0.
         -6    2    1    2    0  502  0.78280122747E+02  0.50968687513E+00  0.31632603129E+02  0.18973749103E+03  0.16991661639E+03 0.  0.
        -24    2    5    5    0    0 -0.17645284334E+02 -0.24557939345E+02 -0.20615753804E+01  0.84916418374E+02  0.79322755703E+02 0.  0.
          5    1    3    3  501    0 -0.43365399372E+02 -0.48396186661E+02 -0.30191034553E+02  0.71807641052E+02  0.47000000000E+01 0. -1.
        -13    1    4    4    0    0  0.18310362494E+02  0.28368812398E+02 -0.50037719696E+02  0.60364163905E+02  0.00000000000E+00 0.  1.
         14    1    4    4    0    0 -0.53225085870E+02  0.19517687388E+02 -0.19304271046E+03  0.20119477615E+03  0.00000000000E+00 0. -1.
         -5    1    5    5    0  502  0.95925407082E+02  0.25067626220E+02  0.33694178509E+02  0.10482107266E+03  0.47000000000E+01 0.  1.
         11    1    6    6    0    0 -0.20587149831E+02  0.80132827892E+01  0.31226694457E+02  0.38251142283E+02  0.00000000000E+00 0. -1.
        -12    1    6    6    0    0  0.29418654966E+01 -0.32571222134E+02 -0.33288269837E+02  0.46665276091E+02  0.00000000000E+00 0.  1.
</event>
<event>
12    1  0.8494789E-002  0.2089260E+03  0.7818608E-02  0.1142643E+00
         21   -1    0    0  503  502  0.00000000000E+00  0.00000000000E+00  0.16858429458E+04  0.16858429458E+04  0.00000000000E+00 0.  1.
         21   -1    0    0  501  503 -0.00000000000E+00 -0.00000000000E+00 -0.43785102826E+02  0.43785102826E+02  0.00000000000E+00 0.  1.
          6    2    1    2  501    0 -0.85942672912E+01 -0.11617227959E+03  0.26475295029E+03  0.33656708208E+03  0.17208549060E+03 0.  0.
         24    2    3    3    0    0  0.18364711668E+02 -0.25878966455E+02  0.21032115115E+03  0.22764243059E+03  0.81111688700E+02 0.  0.
         -6    2    1    2    0  502  0.85942672912E+01  0.11617227959E+03  0.13773048927E+04  0.13930609666E+04  0.17343652770E+03 0.  0.
        -24    2    5    5    0    0 -0.40400229335E+01  0.14537041366E+03  0.94980220715E+03  0.96435035033E+03  0.81844282152E+02 0.  0.
          5    1    3    3  501    0 -0.26958978959E+02 -0.90293313138E+02  0.54431799141E+02  0.10892465149E+03  0.47000000000E+01 0. -1.
        -11    1    4    4    0    0 -0.50631949243E+01 -0.49591550110E+02  0.91076003803E+02  0.10382579763E+03  0.00000000000E+00 0.  1.
         12    1    4    4    0    0  0.23427906592E+02  0.23712583656E+02  0.11924514735E+03  0.12381663296E+03  0.00000000000E+00 0. -1.
         -5    1    5    5    0  502  0.12634290225E+02 -0.29198134064E+02  0.42750268554E+03  0.42871061622E+03  0.47000000000E+01 0.  1.
         13    1    6    6    0    0 -0.35149507662E+02  0.11085224253E+03  0.76536702719E+03  0.77415140242E+03  0.00000000000E+00 0. -1.
        -14    1    6    6    0    0  0.31109484729E+02  0.34518171127E+02  0.18443517997E+03  0.19019894791E+03  0.00000000000E+00 0.  1.
</event>
<event>
12    1  0.8494789E-002  0.1827930E+03  0.7818608E-02  0.1165812E+00
         21   -1    0    0  501  502  0.00000000000E+00  0.00000000000E+00  0.11901065985E+04  0.11901065985E+04  0.00000000000E+00 0. -1.
         21   -1    0    0  502  503 -0.00000000000E+00 -0.00000000000E+00 -0.45018956821E+02  0.45018956821E+02  0.00000000000E+00 0. -1.
         -6    2    1    2    0  503  0.48819785991E+02 -0.20329904379E+02  0.18604811061E+03  0.25882124386E+03  0.17198215110E+03 0.  0.
        -24    2    3    3    0    0  0.63552440383E+02  0.45046027541E+02  0.11462977688E+03  0.16077160351E+03  0.81482915219E+02 0.  0.
          6    2    1    2  501    0 -0.48819785991E+02  0.20329904379E+02  0.95903953105E+03  0.97630431144E+03  0.17497602665E+03 0.  0.
         24    2    5    5    0    0  0.13301216225E+02 -0.14648662716E+02  0.23340268059E+03  0.24715861419E+03  0.78861039742E+02 0.  0.
          5    1    5    5  501    0 -0.62121002216E+02  0.34978567095E+02  0.72563685046E+03  0.72914569725E+03  0.47000000000E+01 0. -1.
        -13    1    6    6    0    0  0.12207379391E+02 -0.17426583034E+01  0.23387294592E+03  0.23419780486E+03  0.00000000000E+00 0.  1.
         14    1    6    6    0    0  0.10938368341E+01 -0.12906004413E+02 -0.47026532971E+00  0.12960809327E+02  0.00000000000E+00 0. -1.
         -5    1    3    3    0  503 -0.14732654392E+02 -0.65375931920E+02  0.71418333732E+02  0.98049640351E+02  0.47000000000E+01 0.  1.
         13    1    4    4    0    0  0.95572407550E+01  0.26698988658E+02 -0.44839730016E+01  0.28710326715E+02  0.00000000000E+00 0. -1.
        -14    1    4    4    0    0  0.53995199628E+02  0.18347038883E+02  0.11911374988E+03  0.13206127680E+03  0.00000000000E+00 0.  1.
</event>
<event>
12    1  0.8494789E-002  0.1848360E+03  0.7818608E-02  0.1163309E+00
         21   -1    0    0  503  502  0.00000000000E+00  0.00000000000E+00  0.11776911251E+03  0.11776911251E+03  0.00000000000E+00 0. -1.
         21   -1    0    0  501  503 -0.00000000000E+00 -0.00000000000E+00 -0.32503688603E+03  0.32503688603E+03  0.00000000000E+00 0. -1.
          6    2    1    2  501    0  0.10075081028E+02 -0.66201734322E+02 -0.30197083562E+02  0.18684040128E+03  0.17179433870E+03 0.  0.
         24    2    3    3    0    0 -0.48787244201E+02 -0.75768124708E+02 -0.43477680117E+00  0.12002592635E+03  0.79278181408E+02 0.  0.
         -6    2    1    2    0  502 -0.10075081028E+02  0.66201734322E+02 -0.17707068996E+03  0.25596559725E+03  0.17227936862E+03 0.  0.
        -24    2    5    5    0    0 -0.12603981607E+02  0.11076393359E+03 -0.14885726138E+03  0.20295359395E+03  0.81266030386E+02 0.  0.
          5    1    3    3  501    0  0.58862325229E+02  0.95663903855E+01 -0.29762306761E+02  0.66814474929E+02  0.47000000000E+01 0. -1.
        -13    1    4    4    0    0  0.52499020612E+01  0.13410548697E+02 -0.60071802746E+01  0.15604182223E+02  0.00000000000E+00 0.  1.
         14    1    4    4    0    0 -0.54037146262E+02 -0.89178673405E+02  0.55724034734E+01  0.10442174413E+03  0.00000000000E+00 0. -1.
         -5    1    5    5    0  502  0.25289005787E+01 -0.44562199272E+02 -0.28213428582E+02  0.53012003305E+02  0.47000000000E+01 0.  1.
         11    1    6    6    0    0  0.15477736886E+02  0.10444849717E+03 -0.13387737019E+03  0.17050571589E+03  0.00000000000E+00 0. -1.
        -12    1    6    6    0    0 -0.28081718493E+02  0.63154364199E+01 -0.14979891183E+02  0.32447878059E+02  0.00000000000E+00 0.  1.
</event>
<event>
12    1  0.8494789E-002  0.1972211E+03  0.7818608E-02  0.1152126E+00
         21   -1    0    0  501  502  0.00000000000E+00  0.00000000000E+00  0.37618398660E+02  0.37618398660E+02  0.00000000000E+00 0.  1.
         21   -1    0    0  502  503 -0.00000000000E+00 -0.00000000000E+00 -0.24495895478E+04  0.24495895478E+04  0.00000000000E+00 0.  1.
         -6    2    1    2    0  503 -0.93173507446E+02 -0.23612125048E+02 -0.21514172357E+04  0.21604289670E+04  0.17209986769E+03 0.  0.
        -24    2    3    3    0    0 -0.12284039907E+03 -0.48152181692E+02 -0.15390328738E+04  0.15468174975E+04  0.81325196621E+02 0.  0.
          6    2    1    2  501    0  0.93173507446E+02  0.23612125048E+02 -0.26055391339E+03  0.32677897940E+03  0.17221302117E+03 0.  0.
         24    2    5    5    0    0  0.11261002128E+03  0.34888581302E+02 -0.12266050316E+03  0.18698763805E+03  0.77592188701E+02 0.  0.
          5    1    5    5  501    0 -0.19436513836E+02 -0.11276456254E+02 -0.13789341022E+03  0.13979134136E+03  0.47000000000E+01 0. -1.
        -11    1    6    6    0    0  0.90645082511E+02  0.11472222748E+02 -0.12495912047E+03  0.15479962747E+03  0.00000000000E+00 0.  1.
         12    1    6    6    0    0  0.21964938771E+02  0.23416358554E+02  0.22986173024E+01  0.32188010573E+02  0.00000000000E+00 0. -1.
         -5    1    3    3    0  503  0.29666891629E+02  0.24540056645E+02 -0.61238436190E+03  0.61361146953E+03  0.47000000000E+01 0.  1.
         13    1    4    4    0    0  0.27105893286E+01 -0.11023500109E+02 -0.29362402510E+02  0.31480399145E+02  0.00000000000E+00 0. -1.
        -14    1    4    4    0    0 -0.12555098840E+03 -0.37128681584E+02 -0.15096704713E+04  0.15153370984E+04  0.00000000000E+00 0.  1.
</event>
<event>
12    1  0.8494789E-002  0.2313643E+03  0.7818608E-02  0.1125792E+00
         21   -1    0    0  503  502  0.00000000000E+00  0.00000000000E+00  0.51213337432E+02  0.51213337432E+02  0.00000000000E+00 0.  1.
         21   -1    0    0  501  503 -0.00000000000E+00 -0.00000000000E+00 -0.10467630021E+04  0.10467630021E+04  0.00000000000E+00 0. -1.
          6    2    1    2  501    0 -0.13090831909E+03 -0.81823399266E+02 -0.46168829392E+03  0.51613667106E+03  0.17149030816E+03 0.  0.
         24    2    3    3    0    0 -0.11978476775E+03 -0.91186909527E+02 -0.46912573592E+03  0.49914213481E+03  0.80002947360E+02 0.  0.
         -6    2    1    2    0  502  0.13090831909E+03  0.81823399266E+02 -0.53386137075E+03  0.58183966848E+03  0.17232927772E+03 0.  0.
        -24    2    5    5    0    0  0.97894194770E+02  0.11770478094E+03 -0.31425641461E+03  0.35683781800E+03  0.71682950595E+02 0.  0.
          5    1    3    3  501    0 -0.11123551332E+02  0.93635102607E+01  0.74374420018E+01  0.16994536245E+02  0.47000000000E+01 0. -1.
        -11    1    4    4    0    0 -0.36950553028E+02 -0.54267170968E+02 -0.10453616155E+03  0.12344261131E+03  0.00000000000E+00 0.  1.
         12    1    4    4    0    0 -0.82834214726E+02 -0.36919738558E+02 -0.36458957436E+03  0.37569952350E+03  0.00000000000E+00 0. -1.
         -5    1    5    5    0  502  0.33014124315E+02 -0.35881381678E+02 -0.21960495614E+03  0.22500185048E+03  0.47000000000E+01 0.  1.
         13    1    6    6    0    0  0.70826125174E+02  0.39490876971E+02 -0.19947996562E+03  0.21533259404E+03  0.00000000000E+00 0. -1.
        -14    1    6    6    0    0  0.27068069596E+02  0.78213903973E+02 -0.11477644898E+03  0.14150522396E+03  0.00000000000E+00 0.  1.
</event>
<event>
12    1  0.8494789E-002  0.1811456E+03  0.7818608E-02  0.1166914E+00
         21   -1    0    0  501  502  0.00000000000E+00  0.00000000000E+00  0.16003779039E+03  0.16003779039E+03  0.00000000000E+00 0.  1.
         21   -1    0    0  502  503 -0.00000000000E+00 -0.00000000000E+00 -0.21203889382E+03  0.21203889382E+03  0.00000000000E+00 0.  1.
         -6    2    1    2    0  503 -0.32244943086E+02 -0.44061868558E+02  0.10223435841E+02  0.18054180840E+03  0.17178370506E+03 0.  0.
        -24    2    3    3    0    0 -0.47328826752E+02  0.32202723889E+02  0.26704034756E+02  0.10093331797E+03  0.78723541183E+02 0.  0.
          6    2    1    2  501    0  0.32244943086E+02  0.44061868558E+02 -0.62224539264E+02  0.19153487581E+03  0.17272096211E+03 0.  0.
         24    2    5    5    0    0  0.69029849066E+02  0.15579966069E+02  0.79284327702E+01  0.10722664631E+03  0.80167563436E+02 0.  0.
          5    1    5    5  501    0 -0.36784905981E+02  0.28481902489E+02 -0.70152972034E+02  0.84308229507E+02  0.47000000000E+01 0. -1.
        -13    1    6    6    0    0  0.28602627940E+02  0.33087760558E+01 -0.36120030711E+02  0.46192152392E+02  0.00000000000E+00 0.  1.
         14    1    6    6    0    0  0.40427221127E+02  0.12271190013E+02  0.44048463482E+02  0.61034493915E+02  0.00000000000E+00 0. -1.
         -5    1    3    3    0  503  0.15083883666E+02 -0.76264592447E+02 -0.16480598914E+02  0.79608490427E+02  0.47000000000E+01 0.  1.
         13    1    4    4    0    0 -0.37983425769E+02 -0.13004815881E+01  0.47170610936E+02  0.60576385016E+02  0.00000000000E+00 0. -1.
        -14    1    4    4    0    0 -0.93454009821E+01  0.33503205477E+02 -0.20466576181E+02  0.40356932952E+02  0.00000000000E+00 0.  1.
</event>
<event>
12    1  0.8494789E-002  0.3085278E+03  0.7818608E-02  0.1081102E+00
         21   -1    0    0  503  502  0.00000000000E+00  0.00000000000E+00  0.17881742123E+04  0.17881742123E+04  0.00000000000E+00 0. -1.
         21   -1    0    0  501  503 -0.00000000000E+00 -0.00000000000E+00 -0.67719224161E+02  0.67719224161E+02  0.00000000000E+00 0.  1.
          6    2    1    2  501    0  0.17704133965E+03  0.18441420341E+03  0.42956426504E+03  0.52864506322E+03  0.17201136794E+03 0.  0.
         24    2    3    3    0    0  0.12014778484E+03  0.20132056041E+03  0.36157567387E+03  0.43827227962E+03  0.79875934425E+02 0.  0.
         -6    2    1    2    0  502 -0.17704133965E+03 -0.18441420341E+03  0.12908907231E+04  0.13272483733E+04  0.17273433629E+03 0.  0.
        -24    2    5    5    0    0 -0.12837446784E+03 -0.20558994452E+03  0.10743565813E+04  0.11042550976E+04  0.79937647478E+02 0.  0.
          5    1    3    3  501    0  0.56893554816E+02 -0.16906357003E+02  0.67988591170E+02  0.90372783602E+02  0.47000000000E+01 0. -1.
        -13    1    4    4    0    0  0.11163666513E+03  0.14173488755E+03  0.22059411275E+03  0.28497944826E+03  0.00000000000E+00 0.  1.
         14    1    4    4    0    0  0.85111197008E+01  0.59585672858E+02  0.14098156112E+03  0.15329283135E+03  0.00000000000E+00 0. -1.
         -5    1    5    5    0  502 -0.48666871813E+02  0.21175741111E+02  0.21653414180E+03  0.22299327566E+03  0.47000000000E+01 0.  1.
         11    1    6    6    0    0  0.63411485903E+01 -0.38659310800E+02  0.12642476117E+03  0.13235547860E+03  0.00000000000E+00 0. -1.
        -12    1    6    6    0    0 -0.13471561643E+03 -0.16693063372E+03  0.94793182016E+03  0.97189961902E+03  0.00000000000E+00 0.  1.
</event>
<event>
12    1  0.8494789E-002  0.3194256E+03  0.7818608E-02  0.1075981E+00
         21   -1    0    0  501  502  0.00000000000E+00  0.00000000000E+00  0.62112650702E+03  0.62112650702E+03  0.00000000000E+00 0.  1.
         21   -1    0    0  502  503 -0.00000000000E+00 -0.00000000000E+00 -0.16867272971E+03  0.16867272971E+03  0.00000000000E+00 0. -1.
         -6    2    1    2    0  503 -0.26366226000E+03  0.52322059883E+02  0.29196455847E+03  0.43232265452E+03  0.17147649667E+03 0.  0.
        -24    2    3    3    0    0 -0.18780519333E+03  0.31831930161E+02  0.10986554321E+03  0.23393847839E+03  0.79829265731E+02 0.  0.
          6    2    1    2  501    0  0.26366226000E+03 -0.52322059883E+02  0.16048921884E+03  0.35747658221E+03  0.17256109691E+03 0.  0.
         24    2    5    5    0    0  0.24948413491E+03 -0.88219522918E+02  0.12036580178E+03  0.30160507176E+03  0.80328545830E+02 0.  0.
          5    1    5    5  501    0  0.14178125085E+02  0.35897463036E+02  0.40123417058E+02  0.55871510448E+02  0.47000000000E+01 0. -1.
        -11    1    6    6    0    0  0.48859379734E+02 -0.11360264929E+02 -0.87918548548E+01  0.50927314077E+02  0.00000000000E+00 0.  1.
         12    1    6    6    0    0  0.20062475518E+03 -0.76859257989E+02  0.12915765663E+03  0.25067775768E+03  0.00000000000E+00 0. -1.
         -5    1    3    3    0  503 -0.75857066668E+02  0.20490129722E+02  0.18209901526E+03  0.19838417613E+03  0.47000000000E+01 0.  1.
         13    1    4    4    0    0 -0.69807986449E+01  0.24324236877E+01 -0.11867972688E+02  0.13982024547E+02  0.00000000000E+00 0. -1.
        -14    1    4    4    0    0 -0.18082439469E+03  0.29399506473E+02  0.12173351590E+03  0.21995645384E+03  0.00000000000E+00 0.  1.
</event>
<event>
12    1  0.8494789E-002  0.1996905E+03  0.7818608E-02  0.1150081E+00
         21   -1    0    0  503  502  0.00000000000E+00  0.00000000000E+00  0.12503205178E+03  0.12503205178E+03  0.00000000000E+00 0. -1.
         21   -1    0    0  501  503 -0.00000000000E+00 -0.00000000000E+00 -0.68843730145E+03  0.68843730145E+03  0.00000000000E+00 0. -1.
          6    2    1    2  501    0  0.69190920931E+02  0.74791251601E+02 -0.57980557163E+03  0.61310652491E+03  0.17130089065E+03 0.  0.
         24    2    3    3    0    0  0.11305377244E+03  0.51870641701E+02 -0.45969997034E+03  0.48311902720E+03  0.81290914457E+02 0.  0.
         -6    2    1    2    0  502 -0.69190920931E+02 -0.74791251601E+02  0.16400321959E+02  0.20036282832E+03  0.17174160112E+03 0.  0.
        -24    2    5    5    0    0 -0.11219627371E+03 -0.43537357344E+02 -0.16483135052E+01  0.14402359229E+03  0.79098501130E+02 0.  0.
          5    1    3    3  501    0 -0.43862851508E+02  0.22920609900E+02 -0.12010560128E+03  0.12998749771E+03  0.47000000000E+01 0. -1.
        -11    1    4    4    0    0  0.43778187823E+02  0.64403981099E+02 -0.25717823999E+03  0.26870997308E+03  0.00000000000E+00 0.  1.
         12    1    4    4    0    0  0.69275584617E+02 -0.12533339398E+02 -0.20252173035E+03  0.21440905411E+03  0.00000000000E+00 0. -1.
         -5    1    5    5    0  502  0.43005352777E+02 -0.31253894258E+02  0.18048635464E+02  0.56339236025E+02  0.47000000000E+01 0.  1.
         13    1    6    6    0    0 -0.14995464515E+02 -0.39507922681E+02  0.15935773256E+02  0.45162913767E+02  0.00000000000E+00 0. -1.
        -14    1    6    6    0    0 -0.97200809193E+02 -0.40294346622E+01 -0.17584086761E+02  0.98860678527E+02  0.00000000000E+00 0.  1.
</event>
<event>
12    1  0.8494789E-002  0.2024586E+03  0.7818608E-02  0.1148457E+00
         21   -1    0    0  501  502  0.00000000000E+00  0.00000000000E+00  0.16200328226E+03  0.16200328226E+03  0.00000000000E+00 0. -1.
         21   -1    0    0  502  503 -0.00000000000E+00 -0.00000000000E+00 -0.95518684259E+03  0.95518684259E+03  0.00000000000E+00 0. -1.
         -6    2    1    2    0  503  0.10696396882E+03 -0.69258945042E+01 -0.87613531161E+03  0.89839690204E+03  0.16737577689E+03 0.  0.
        -24    2    3    3    0    0  0.64949845900E+02 -0.46741981890E+02 -0.32101599929E+03  0.34024813311E+03  0.79462097448E+02 0.  0.
          6    2    1    2  501    0 -0.10696396882E+03  0.69258945042E+01  0.82951751279E+02  0.21879322281E+03  0.17175628858E+03 0.  0.
         24    2    5    5    0    0 -0.10168060270E+03 -0.11807100022E+02 -0.35052746017E+01  0.13004782087E+03  0.80136110378E+02 0.  0.
          5    1    5    5  501    0 -0.52833661176E+01  0.18732994526E+02  0.86457025880E+02  0.88745401940E+02  0.47000000000E+01 0. -1.
        -13    1    6    6    0    0 -0.51889382866E+02 -0.13061881131E+01 -0.41569612436E+02  0.66499976388E+02  0.00000000000E+00 0.  1.
         14    1    6    6    0    0 -0.49791219836E+02 -0.10500911909E+02  0.38064337834E+02  0.63547844483E+02  0.00000000000E+00 0. -1.
         -5    1    3    3    0  503  0.42014122920E+02  0.39816087386E+02 -0.55511931232E+03  0.55814876892E+03  0.47000000000E+01 0.  1.
         11    1    4    4    0    0  0.53117081058E+02 -0.32758362305E+02 -0.31476645849E+03  0.32089321899E+03  0.00000000000E+00 0. -1.
        -12    1    4    4    0    0  0.11832764842E+02 -0.13983619585E+02 -0.62495408008E+01  0.19354914124E+02  0.00000000000E+00 0.  1.
</event>
<event>
12    1  0.8494789E-002  0.1833609E+03  0.7818608E-02  0.1164863E+00
         21   -1    0    0  501  502  0.00000000000E+00  0.00000000000E+00  0.33895642267E+03  0.33895642267E+03  0.00000000000E+00 0.  1.
         21   -1    0    0  502  503 -0.00000000000E+00 -0.00000000000E+00 -0.14186087947E+03  0.14186087947E+03  0.00000000000E+00 0. -1.
         -6    2    1    2    0  503 -0.61088768630E+02 -0.14114238160E+02  0.23114046306E+03  0.29432263341E+03  0.17108141192E+03 0.  0.
        -24    2    3    3    0    0  0.91204225896E+01 -0.12258232045E+02  0.50438858798E+02  0.10039497919E+03  0.85449558268E+02 0.  0.
          6    2    1    2  501    0  0.61088768630E+02  0.14114238160E+02 -0.34044919851E+02  0.18649466873E+03  0.17230831531E+03 0.  0.
         24    2    5    5    0    0  0.36072613183E+02 -0.41887282375E+02 -0.68244540652E+02  0.11611226753E+03  0.75953693098E+02 0.  0.
          5    1    5    5  501    0  0.25016155447E+02  0.56001520535E+02  0.34199620800E+02  0.70382401198E+02  0.47000000000E+01 0. -1.
        -11    1    6    6    0    0 -0.22172793821E+02 -0.18632797808E+02 -0.10339679446E+02  0.30752608199E+02  0.00000000000E+00 0.  1.
         12    1    6    6    0    0  0.58245407004E+02 -0.23254484567E+02 -0.57904861206E+02  0.85359659329E+02  0.00000000000E+00 0. -1.
         -5    1    3    3    0  503 -0.70209191219E+02 -0.18560061146E+01  0.18070160426E+03  0.19392765422E+03  0.47000000000E+01 0.  1.
         13    1    4    4    0    0  0.35724909639E+01 -0.49006470793E+02  0.23329632914E+02  0.54393645246E+02  0.00000000000E+00 0. -1.
        -14    1    4    4    0    0  0.55479316257E+01  0.36748238748E+02  0.27109225884E+02  0.46001333942E+02  0.00000000000E+00 0.  1.
</event>
<event>
12    1  0.8494789E-002  0.1788172E+03  0.7818608E-02  0.1168981E+00
         21   -1    0    0  503  502  0.00000000000E+00  0.00000000000E+00  0.72170703676E+03  0.72170703676E+03  0.00000000000E+00 0.  1.
         21   -1    0    0  501  503 -0.00000000000E+00 -0.00000000000E+00 -0.76893979407E+02  0.76893979407E+02  0.00000000000E+00 0.  1.
          6    2    1    2  501    0  0.16506838217E+02  0.43678042441E+02  0.62405407245E+02  0.18939383598E+03  0.17261327630E+03 0.  0.
         24    2    3    3    0    0 -0.17449043465E+02 -0.37967918782E+02  0.28693481465E+02  0.94643380440E+02  0.79925099987E+02 0.  0.
         -6    2    1    2    0  502 -0.16506838217E+02 -0.43678042441E+02  0.58240765011E+03  0.60920718019E+03  0.17249484164E+03 0.  0.
        -24    2    5    5    0    0 -0.75011588233E+02 -0.17742000574E+02  0.42420284937E+03  0.43848420863E+03  0.79867558180E+02 0.  0.
          5    1    3    3  501    0  0.33955881682E+02  0.81645961223E+02  0.33711925780E+02  0.94750455538E+02  0.47000000000E+01 0. -1.
        -13    1    4    4    0    0 -0.74825324868E+01  0.23736085256E+02 -0.20807653621E+01  0.24974379275E+02  0.00000000000E+00 0.  1.
         14    1    4    4    0    0 -0.99665109785E+01 -0.61704004038E+02  0.30774246827E+02  0.69669001164E+02  0.00000000000E+00 0. -1.
         -5    1    5    5    0  502  0.58504750016E+02 -0.25936041866E+02  0.15820480074E+03  0.17072297156E+03  0.47000000000E+01 0.  1.
         13    1    6    6    0    0 -0.24116418697E+02 -0.20649624137E+02  0.40753259917E+02  0.51660786111E+02  0.00000000000E+00 0. -1.
        -14    1    6    6    0    0 -0.50895169536E+02  0.29076235621E+01  0.38344958945E+03  0.38682342252E+03  0.00000000000E+00 0.  1.
</event>
<event>
12    1  0.8494789E-002  0.2406886E+03  0.7818608E-02  0.1119402E+00
         21   -1    0    0  503  502  0.00000000000E+00  0.00000000000E+00  0.70421591837E+03  0.70421591837E+03  0.00000000000E+00 0. -1.
         21   -1    0    0  501  503 -0.00000000000E+00 -0.00000000000E+00 -0.85828745003E+02  0.85828745003E+02  0.00000000000E+00 0.  1.
          6    2    1    2  501    0  0.11252395805E+03 -0.12522176956E+03  0.22738564202E+03  0.33111212139E+03  0.17201416810E+03 0.  0.
         24    2    3    3    0    0  0.11103174023E+03 -0.29006077537E+02  0.14479031110E+03  0.20421151148E+03  0.86998318147E+02 0.  0.
         -6    2    1    2    0  502 -0.11252395805E+03  0.12522176956E+03  0.39100153135E+03  0.45893254198E+03  0.17144896578E+03 0.  0.
        -24    2    5    5    0    0 -0.74628489439E+02  0.14224983218E+03  0.22578473993E+03  0.28850748624E+03  0.80333023349E+02 0.  0.
          5    1    3    3  501    0  0.14922178209E+01 -0.96215692026E+02  0.82595330922E+02  0.12690060991E+03  0.47000000000E+01 0. -1.
        -13    1    4    4    0    0  0.95609710394E+02 -0.56233624707E+02  0.98537930399E+02  0.14836832882E+03  0.00000000000E+00 0.  1.
         14    1    4    4    0    0  0.15422029834E+02  0.27227547171E+02  0.46252380703E+02  0.55843182662E+02  0.00000000000E+00 0. -1.
         -5    1    5    5    0  502 -0.37895468611E+02 -0.17028062622E+02  0.16521679142E+03  0.17042505574E+03  0.47000000000E+01 0.  1.
         11    1    6    6    0    0 -0.23088050300E+01  0.73496809106E+02  0.13439314896E+03  0.15319474540E+03  0.00000000000E+00 0. -1.
        -12    1    6    6    0    0 -0.72319684409E+02  0.68753023079E+02  0.91391590967E+02  0.13531274084E+03  0.00000000000E+00 0.  1.
</event>
<event>
12    1  0.8494789E-002  0.2133245E+03  0.7818608E-02  0.1139207E+00
         21   -1    0    0  503  502  0.00000000000E+00  0.00000000000E+00  0.11461413433E+04  0.11461413433E+04  0.00000000000E+00 0. -1.
         21   -1    0    0  501  503 -0.00000000000E+00 -0.00000000000E+00 -0.47152688771E+02  0.47152688771E+02  0.00000000000E+00 0.  1.
          6    2    1    2  501    0 -0.10647148991E+03 -0.62960931329E+02  0.31001525673E+03  0.37632009425E+03  0.17380188979E+03 0.  0.
         24    2    3    3    0    0 -0.24056253364E+02 -0.17625229658E+02  0.46888110657E+02  0.96846335087E+02  0.79318129406E+02 0.  0.
         -6    2    1    2    0  502  0.10647148991E+03  0.62960931329E+02  0.78897339784E+03  0.81697393786E+03  0.17224150372E+03 0.  0.
        -24    2    5    5    0    0  0.13163002025E+03  0.58546589351E+02  0.76187810192E+03  0.77944151021E+03  0.79477420099E+02 0.  0.
          5    1    3    3  501    0 -0.82415236548E+02 -0.45335701670E+02  0.26312714607E+03  0.27947375916E+03  0.47000000000E+01 0. -1.
        -13    1    4    4    0    0 -0.40135847720E+02  0.18572675271E+02  0.17657048323E+02  0.47619343700E+02  0.00000000000E+00 0.  1.
         14    1    4    4    0    0  0.16079594356E+02 -0.36197904929E+02  0.29231062334E+02  0.49226991388E+02  0.00000000000E+00 0. -1.
         -5    1    5    5    0  502 -0.25158530340E+02  0.44143419778E+01  0.27095295926E+02  0.37532427650E+02  0.47000000000E+01 0.  1.
         13    1    6    6    0    0  0.43160592944E+02  0.21934428612E+02  0.46481791801E+03  0.46733248640E+03  0.00000000000E+00 0. -1.
        -14    1    6    6    0    0  0.88469427309E+02  0.36612160739E+02  0.29706018391E+03  0.31210902381E+03  0.00000000000E+00 0.  1.
</event>
<event>
12    1  0.8494789E-002  0.2754874E+03  0.7818608E-02  0.1098331E+00
         21   -1    0    0  503  502  0.00000000000E+00  0.00000000000E+00  0.42436063446E+02  0.42436063446E+02  0.00000000000E+00 0. -1.
         21   -1    0    0  501  503 -0.00000000000E+00 -0.00000000000E+00 -0.18012878909E+04  0.18012878909E+04  0.00000000000E+00 0.  1.
          6    2    1    2  501    0 -0.11961958397E+03 -0.17793243240E+03 -0.97461889500E+03  0.10125112339E+04  0.17125481889E+03 0.  0.
         24    2    3    3    0    0  0.46604775691E+01 -0.79814988351E+02 -0.33347320899E+03  0.35208527502E+03  0.79796662566E+02 0.  0.
         -6    2    1    2    0  502  0.11961958397E+03  0.17793243240E+03 -0.78423293241E+03  0.83121272036E+03  0.17298699040E+03 0.  0.
        -24    2    5    5    0    0  0.25309443300E+02  0.12430662704E+03 -0.59060744021E+03  0.60921485807E+03  0.78948650490E+02 0.  0.
          5    1    3    3  501    0 -0.12428006153E+03 -0.98117444053E+02 -0.64114568601E+03  0.66042595892E+03  0.47000000000E+01 0. -1.
        -11    1    4    4    0    0 -0.77508827067E+01 -0.74861239910E+02 -0.32972611568E+03  0.33820643517E+03  0.00000000000E+00 0.  1.
         12    1    4    4    0    0  0.12411360276E+02 -0.49537484416E+01 -0.37470933061E+01  0.13878839856E+02  0.00000000000E+00 0. -1.
         -5    1    5    5    0  502  0.94310140665E+02  0.53625805363E+02 -0.19362549220E+03  0.22199786229E+03  0.47000000000E+01 0.  1.
         13    1    6    6    0    0  0.19609398247E+01 -0.83434241571E+01 -0.99112899967E+01  0.13103117227E+02  0.00000000000E+00 0. -1.
        -14    1    6    6    0    0  0.23348503476E+02  0.13265005120E+03 -0.58069615022E+03  0.59611174084E+03  0.00000000000E+00 0.  1.
</event>
<event>
12    1  0.8494789E-002  0.3158389E+03  0.7818608E-02  0.1077769E+00
         21   -1    0    0  501  502  0.00000000000E+00  0.00000000000E+00  0.54939452623E+03  0.54939452623E+03  0.00000000000E+00 0.  1.
         21   -1    0    0  502  503 -0.00000000000E+00 -0.00000000000E+00 -0.26974815956E+03  0.26974815956E+03  0.00000000000E+00 0. -1.
         -6    2    1    2    0  503 -0.25626075385E+02 -0.26229155450E+03 -0.95327791599E+02  0.32991153353E+03  0.17407089591E+03 0.  0.
        -24    2    3    3    0    0  0.40301545094E+02 -0.14516102737E+03 -0.97311622277E+02  0.19540489015E+03  0.77573067894E+02 0.  0.
          6    2    1    2  501    0  0.25626075385E+02  0.26229155450E+03  0.37497415827E+03  0.48923115226E+03  0.17113721299E+03 0.  0.
         24    2    5    5    0    0  0.59440063448E+02  0.98441041748E+02  0.12333789356E+03  0.18701719488E+03  0.80866775316E+02 0.  0.
          5    1    5    5  501    0 -0.33813988063E+02  0.16385051275E+03  0.25163626471E+03  0.30221395738E+03  0.47000000000E+01 0. -1.
        -13    1    6    6    0    0  0.73947706709E+02  0.77858365046E+02  0.12092672405E+03  0.16172031698E+03  0.00000000000E+00 0.  1.
         14    1    6    6    0    0 -0.14507643261E+02  0.20582676702E+02  0.24111695155E+01  0.25296877902E+02  0.00000000000E+00 0. -1.
         -5    1    3    3    0  503 -0.65927620480E+02 -0.11713052714E+03  0.19838306773E+01  0.13450664338E+03  0.47000000000E+01 0.  1.
         13    1    4    4    0    0  0.32896469429E+02 -0.14077259918E+03 -0.10888348175E+03  0.18098263723E+03  0.00000000000E+00 0. -1.
        -14    1    4    4    0    0  0.74050756659E+01 -0.43884281836E+01  0.11571859476E+02  0.14422252919E+02  0.00000000000E+00 0.  1.
</event>
<event>
12    1  0.8494789E-002  0.2170391E+03  0.7818608E-02  0.1136185E+00
         21   -1    0    0  501  502  0.00000000000E+00  0.00000000000E+00  0.21917829438E+03  0.21917829438E+03  0.00000000000E+00 0.  1.
         21   -1    0    0  502  503 -0.00000000000E+00 -0.00000000000E+00 -0.21553186942E+03  0.21553186942E+03  0.00000000000E+00 0.  1.
         -6    2    1    2    0  503 -0.38857965038E+02  0.12639778708E+03  0.16652646548E+02  0.21767698035E+03  0.17210350116E+03 0.  0.
        -24    2    3    3    0    0 -0.58183245703E+02  0.14010579457E+02  0.26700944826E+02  0.10310207381E+03  0.79595921704E+02 0.  0.
          6    2    1    2  501    0  0.38857965038E+02 -0.12639778708E+03 -0.13006221589E+02  0.21703318346E+03  0.17160390117E+03 0.  0.
         24    2    5    5    0    0  0.13840811424E+02 -0.13578200139E+03 -0.54504792502E+02  0.16745352189E+03  0.80259514225E+02 0.  0.
          5    1    5    5  501    0  0.25017153614E+02  0.93842143157E+01  0.41498570914E+02  0.49579661567E+02  0.47000000000E+01 0. -1.
        -11    1    6    6    0    0  0.17300978634E+01 -0.50923730334E+02  0.19154557989E+02  0.54434517004E+02  0.00000000000E+00 0.  1.
         12    1    6    6    0    0  0.12110713561E+02 -0.84858271061E+02 -0.73659350491E+02  0.11301900488E+03  0.00000000000E+00 0. -1.
         -5    1    3    3    0  503  0.19325280665E+02  0.11238720762E+03 -0.10048298278E+02  0.11457490654E+03  0.47000000000E+01 0.  1.
         11    1    4    4    0    0  0.10001959741E+02  0.27160558777E+02  0.15273727006E+02  0.32726470759E+02  0.00000000000E+00 0. -1.
        -12    1    4    4    0    0 -0.68185205444E+02 -0.13149979319E+02  0.11427217820E+02  0.70375603050E+02  0.00000000000E+00 0.  1.
</event>
<event>
12    1  0.8494789E-002  0.2217162E+03  0.7818608E-02  0.1132752E+00
         21   -1    0    0  501  502  0.00000000000E+00  0.00000000000E+00  0.15412317143E+03  0.15412317143E+03  0.00000000000E+00 0. -1.
         21   -1    0    0  502  503 -0.00000000000E+00 -0.00000000000E+00 -0.43523808847E+03  0.43523808847E+03  0.00000000000E+00 0. -1.
         -6    2    1    2    0  503  0.79350922115E+02 -0.11418542795E+03 -0.29341919930E+03  0.36730395481E+03  0.17170465312E+03 0.  0.
        -24    2    3    3    0    0  0.80180531552E+02 -0.13972878262E+03 -0.29598214703E+03  0.34119246460E+03  0.53421121390E+02 0.  0.
          6    2    1    2  501    0 -0.79350922115E+02  0.11418542795E+03  0.12304282251E+02  0.22205730509E+03  0.17269386378E+03 0.  0.
         24    2    5    5    0    0 -0.52130338922E+02 -0.52514777739E+01 -0.16523381035E+02  0.96123756072E+02  0.78877145647E+02 0.  0.
          5    1    5    5  501    0 -0.27220583192E+02  0.11943690573E+03  0.28827663287E+02  0.12593354902E+03  0.47000000000E+01 0. -1.
        -13    1    6    6    0    0 -0.64382299424E+02  0.94272453409E+01 -0.31063277779E+02  0.72103263867E+02  0.00000000000E+00 0.  1.
         14    1    6    6    0    0  0.12251960502E+02 -0.14678723115E+02  0.14539896744E+02  0.24020492205E+02  0.00000000000E+00 0. -1.
         -5    1    3    3    0  503 -0.82960943733E+00  0.25543354672E+02  0.25629477275E+01  0.26111490205E+02  0.47000000000E+01 0.  1.
         11    1    4    4    0    0  0.24429261775E+02 -0.41587737242E+02 -0.44854406296E+02  0.65865366346E+02  0.00000000000E+00 0. -1.
        -12    1    4    4    0    0  0.55751269777E+02 -0.98141045381E+02 -0.25112774073E+03  0.27532709826E+03  0.00000000000E+00 0.  1.
</event>
<event>
12    1  0.8494789E-002  0.1931309E+03  0.7818608E-02  0.1156556E+00
         21   -1    0    0  501  502  0.00000000000E+00  0.00000000000E+00  0.76420373892E+02  0.76420373892E+02  0.00000000000E+00 0. -1.
         21   -1    0    0  502  503 -0.00000000000E+00 -0.00000000000E+00 -0.61566727652E+03  0.61566727652E+03  0.00000000000E+00 0. -1.
         -6    2    1    2    0  503 -0.78603947851E+02  0.14309996710E+02 -0.43102547336E+03  0.47070241892E+03  0.17144810255E+03 0.  0.
        -24    2    3    3    0    0 -0.11882993487E+03  0.29974404434E+02 -0.33090412425E+03  0.36157003029E+03  0.78843699890E+02 0.  0.
          6    2    1    2  501    0  0.78603947851E+02 -0.14309996710E+02 -0.10822142926E+03  0.22138523149E+03  0.17582999274E+03 0.  0.
         24    2    5    5    0    0  0.39561113393E+02 -0.19835461242E+02  0.13484278771E+02  0.93364752467E+02  0.81096387180E+02 0.  0.
          5    1    5    5  501    0  0.39042834459E+02  0.55254645318E+01 -0.12170570804E+03  0.12802047902E+03  0.47000000000E+01 0. -1.
        -11    1    6    6    0    0  0.45585297217E+01  0.29097123309E+02 -0.61339161541E+01  0.30084010794E+02  0.00000000000E+00 0.  1.
         12    1    6    6    0    0  0.35002583671E+02 -0.48932584551E+02  0.19618194925E+02  0.63280741673E+02  0.00000000000E+00 0. -1.
         -5    1    3    3    0  503  0.40225987021E+02 -0.15664407724E+02 -0.10012134911E+03  0.10913238863E+03  0.47000000000E+01 0.  1.
         13    1    4    4    0    0  0.55681642343E+01  0.16351561822E+02 -0.71513464389E+02  0.73570059235E+02  0.00000000000E+00 0. -1.
        -14    1    4    4    0    0 -0.12439809911E+03  0.13622842612E+02 -0.25939065986E+03  0.28799997105E+03  0.00000000000E+00 0.  1.
</event>
<event>
12    1  0.8494789E-002  0.1960775E+03  0.7818608E-02  0.1153178E+00
         21   -1    0    0  503  502  0.00000000000E+00  0.00000000000E+00  0.58596931372E+02  0.58596931372E+02  0.00000000000E+00 0.  1.
         21   -1    0    0  501  503 -0.00000000000E+00 -0.00000000000E+00 -0.67188234636E+03  0.67188234636E+03  0.00000000000E+00 0.  1.
          6    2    1    2  501    0  0.34943090908E+01  0.92321533872E+02 -0.36523014387E+03  0.41453522884E+03  0.17294774397E+03 0.  0.
         24    2    3    3    0    0  0.24031561289E+02 -0.84413820374E+01 -0.10535546216E+03  0.13501441719E+03  0.80500599835E+02 0.  0.
         -6    2    1    2    0  502 -0.34943090908E+01 -0.92321533872E+02 -0.24805527111E+03  0.31594404889E+03  0.17249274967E+03 0.  0.
        -24    2    5    5    0    0 -0.94456646067E+01 -0.11943435367E+03 -0.24891587079E+03  0.28777750381E+03  0.80641152932E+02 0.  0.
          5    1    3    3  501    0 -0.20537252198E+02  0.10076291591E+03 -0.25987468171E+03  0.27952081165E+03  0.47000000000E+01 0. -1.
        -11    1    4    4    0    0  0.37719185314E+02  0.97386700883E+01 -0.10528152530E+03  0.11225764208E+03  0.00000000000E+00 0.  1.
         12    1    4    4    0    0 -0.13687624025E+02 -0.18180052126E+02 -0.73936858229E-01  0.22756775110E+02  0.00000000000E+00 0. -1.
         -5    1    5    5    0  502  0.59513555159E+01  0.27112819802E+02  0.86059967940E+00  0.28166545083E+02  0.47000000000E+01 0.  1.
         13    1    6    6    0    0 -0.90142386060E+01 -0.60734973971E+01 -0.10017126666E+03  0.10075925035E+03  0.00000000000E+00 0. -1.
        -14    1    6    6    0    0 -0.43142600074E+00 -0.11336085628E+03 -0.14874460414E+03  0.18701825345E+03  0.00000000000E+00 0.  1.
</event>
<event>
12    1  0.8494789E-002  0.1832326E+03  0.7818608E-02  0.1165064E+00
         21   -1    0    0  503  502  0.00000000000E+00  0.00000000000E+00  0.26700703308E+02  0.26700703308E+02  0.00000000000E+00 0.  1.
         21   -1    0    0  501  503 -0.00000000000E+00 -0.00000000000E+00 -0.14240445110E+04  0.14240445110E+04  0.00000000000E+00 0.  1.
          6    2    1    2  501    0 -0.59452888338E+02 -0.47688847141E+01 -0.44557759956E+03  0.48178168563E+03  0.17325359214E+03 0.  0.
         24    2    3    3    0    0  0.34992935867E+02  0.47923584800E+01 -0.22748201157E+03  0.24387580806E+03  0.80497651589E+02 0.  0.
         -6    2    1    2    0  502  0.59452888338E+02  0.47688847141E+01 -0.95176620810E+03  0.96896352864E+03  0.17167998358E+03 0.  0.
        -24    2    5    5    0    0  0.25856738939E+02 -0.42454595970E+02 -0.29706511370E+03  0.31168552704E+03  0.80182431492E+02 0.  0.
          5    1    3    3  501    0 -0.94445824205E+02 -0.95612431941E+01 -0.21809558799E+03  0.23790587757E+03  0.47000000000E+01 0. -1.
        -11    1    4    4    0    0  0.47847983684E+02  0.98904882530E+01 -0.67663902409E+02  0.83460499578E+02  0.00000000000E+00 0.  1.
         12    1    4    4    0    0 -0.12855047818E+02 -0.50981297730E+01 -0.15981810916E+03  0.16041530848E+03  0.00000000000E+00 0. -1.
         -5    1    5    5    0  502  0.33596149399E+02  0.47223480685E+02 -0.65470109439E+03  0.65727800160E+03  0.47000000000E+01 0.  1.
         11    1    6    6    0    0  0.11105160231E+02  0.21645744455E+02 -0.44724269220E+02  0.50912897128E+02  0.00000000000E+00 0. -1.
        -12    1    6    6    0    0  0.14751578708E+02 -0.64100340426E+02 -0.25234084448E+03  0.26077262991E+03  0.00000000000E+00 0.  1.
</event>
<event>
12    1  0.8494789E-002  0.1782307E+03  0.7818608E-02  0.1169619E+00
         21   -1    0    0  501  502  0.00000000000E+00  0.00000000000E+00  0.83698320617E+03  0.83698320617E+03  0.00000000000E+00 0. -1.
         21   -1    0    0  502  503 -0.00000000000E+00 -0.00000000000E+00 -0.52811651376E+02  0.52811651376E+02  0.00000000000E+00 0. -1.
         -6    2    1    2    0  503 -0.40881627546E+02  0.13954669486E+02  0.15576306375E+03  0.23670301182E+03  0.17291657961E+03 0.  0.
        -24    2    3    3    0    0 -0.28675685214E+02  0.10677545819E+02  0.18527909432E+03  0.20425288657E+03  0.80340487756E+02 0.  0.
          6    2    1    2  501    0  0.40881627546E+02 -0.13954669486E+02  0.62840849105E+03  0.65309184573E+03  0.17252735165E+03 0.  0.
         24    2    5    5    0    0  0.84843338182E+02  0.47872584030E+01  0.37042777912E+03  0.39067989938E+03  0.90513724677E+02 0.  0.
          5    1    5    5  501    0 -0.43961710636E+02 -0.18741927889E+02  0.25798071192E+03  0.26241194635E+03  0.47000000000E+01 0. -1.
        -13    1    6    6    0    0  0.34887265786E+02  0.45755969109E+02  0.13991112010E+03  0.15128070449E+03  0.00000000000E+00 0.  1.
         14    1    6    6    0    0  0.49956072396E+02 -0.40968710706E+02  0.23051665903E+03  0.23939919489E+03  0.00000000000E+00 0. -1.
         -5    1    3    3    0  503 -0.12205942332E+02  0.32771236667E+01 -0.29516030573E+02  0.32450125247E+02  0.47000000000E+01 0.  1.
         11    1    4    4    0    0 -0.41410816040E+02  0.37759230385E+02  0.12152839732E+03  0.13382737583E+03  0.00000000000E+00 0. -1.
        -12    1    4    4    0    0  0.12735130826E+02 -0.27081684566E+02  0.63750697000E+02  0.70425510747E+02  0.00000000000E+00 0.  1.
</event>
<event>
12    1  0.8494789E-002  0.1954420E+03  0.7818608E-02  0.1153894E+00
         21   -1    0    0  503  502  0.00000000000E+00  0.00000000000E+00  0.40828085249E+02  0.40828085249E+02  0.00000000000E+00 0.  1.
         21   -1    0    0  501  503 -0.00000000000E+00 -0.00000000000E+00 -0.12779865310E+04  0.12779865310E+04  0.00000000000E+00 0. -1.
          6    2    1    2  501    0 -0.48525868727E+01 -0.90319388573E+02 -0.96130747684E+03  0.98074460435E+03  0.17194991822E+03 0.  0.
         24    2    3    3    0    0  0.15754805215E+02 -0.12780977043E+03 -0.77072993562E+03  0.78536783357E+03  0.78704822267E+02 0.  0.
         -6    2    1    2    0  502  0.48525868727E+01  0.90319388573E+02 -0.27585096891E+03  0.33807001190E+03  0.17325252191E+03 0.  0.
        -24    2    5    5    0    0 -0.62719585744E+02  0.72249124792E+02 -0.17543194593E+03  0.21560122763E+03  0.80955785667E+02 0.  0.
          5    1    3    3  501    0 -0.20607392088E+02  0.37490381854E+02 -0.19057754122E+03  0.19537677078E+03  0.47000000000E+01 0. -1.
        -13    1    4    4    0    0  0.15187670382E+02  0.64277922699E+01 -0.97523167010E+02  0.98907785076E+02  0.00000000000E+00 0.  1.
         14    1    4    4    0    0  0.56713483281E+00 -0.13423756270E+03 -0.67320676861E+03  0.68646004850E+03  0.00000000000E+00 0. -1.
         -5    1    5    5    0  502  0.67572172617E+02  0.18070263781E+02 -0.10041902298E+03  0.12246878428E+03  0.47000000000E+01 0.  1.
         11    1    6    6    0    0 -0.63051427076E+02  0.11529155774E+02 -0.99799232218E+02  0.11860982523E+03  0.00000000000E+00 0. -1.
        -12    1    6    6    0    0  0.33184133195E+00  0.60719969018E+02 -0.75632713709E+02  0.96991402399E+02  0.00000000000E+00 0.  1.
</event>
<event>
12    1  0.8494789E-002  0.2177439E+03  0.7818608E-02  0.1135602E+00
         21   -1    0    0  501  502  0.00000000000E+00  0.00000000000E+00  0.25334630541E+03  0.25334630541E+03  0.00000000000E+00 0. -1.
         21   -1    0    0  502  503 -0.00000000000E+00 -0.00000000000E+00 -0.20199101508E+03  0.20199101508E+03  0.00000000000E+00 0. -1.
         -6    2    1    2    0  503 -0.11178678441E+03 -0.73718432581E+02  0.87631991511E+02  0.23459217407E+03  0.17153259087E+03 0.  0.
        -24    2    3    3    0    0  0.11194203995E+02 -0.16376807516E+02  0.36338270951E+02  0.89452512909E+02  0.79295473405E+02 0.  0.
          6    2    1    2  501    0  0.11178678441E+03  0.73718432581E+02 -0.36276701181E+02  0.22074514642E+03  0.17170244072E+03 0.  0.
         24    2    5    5    0    0 -0.12098914552E+02  0.14652726241E+02 -0.22289081560E+02  0.82708312294E+02  0.77348404290E+02 0.  0.
          5    1    5    5  501    0  0.12388569896E+03  0.59065706340E+02 -0.13987619621E+02  0.13803683413E+03  0.47000000000E+01 0. -1.
        -11    1    6    6    0    0  0.13873049738E+02  0.72708436246E+01  0.24270736974E+02  0.28885902259E+02  0.00000000000E+00 0.  1.
         12    1    6    6    0    0 -0.25971964290E+02  0.73818826162E+01 -0.46559818535E+02  0.53822410035E+02  0.00000000000E+00 0. -1.
         -5    1    3    3    0  503 -0.12298098841E+03 -0.57341625065E+02  0.51293720560E+02  0.14513966117E+03  0.47000000000E+01 0.  1.
         11    1    4    4    0    0  0.45198388861E+01  0.13053551598E+02  0.53144587070E+02  0.54910575373E+02  0.00000000000E+00 0. -1.
        -12    1    4    4    0    0  0.66743651088E+01 -0.29430359115E+02 -0.16806316119E+02  0.34541937536E+02  0.00000000000E+00 0.  1.
</event>
<event>
12    1  0.8494789E-002  0.2039720E+03  0.7818608E-02  0.1146553E+00
         21   -1    0    0  503  502  0.00000000000E+00  0.00000000000E+00  0.10091629308E+03  0.10091629308E+03  0.00000000000E+00 0.  1.
         21   -1    0    0  501  503 -0.00000000000E+00 -0.00000000000E+00 -0.44838264381E+03  0.44838264381E+03  0.00000000000E+00 0. -1.
          6    2    1    2  501    0 -0.40682792965E+02 -0.10143023310E+03 -0.25319408957E+03  0.32513354581E+03  0.17222483499E+03 0.  0.
         24    2    3    3    0    0 -0.77958804883E+02 -0.51344598502E+02 -0.12196628300E+03  0.17973444308E+03  0.93353375871E+02 0.  0.
         -6    2    1    2    0  502  0.40682792965E+02  0.10143023310E+03 -0.94272261155E+02  0.22416539107E+03  0.17152166482E+03 0.  0.
        -24    2    5    5    0    0  0.85771584039E+02  0.30947275669E+02 -0.60989621456E+02  0.13399516054E+03  0.76944594507E+02 0.  0.
          5    1    3    3  501    0  0.37276011918E+02 -0.50085634597E+02 -0.13122780657E+03  0.14539910273E+03  0.47000000000E+01 0. -1.
        -13    1    4    4    0    0 -0.89745996649E+02 -0.11777848182E+02 -0.88466670992E+02  0.12656782174E+03  0.00000000000E+00 0.  1.
         14    1    4    4    0    0  0.11787191766E+02 -0.39566750321E+02 -0.33499612012E+02  0.53166621348E+02  0.00000000000E+00 0. -1.
         -5    1    5    5    0  502 -0.45088791074E+02  0.70482957430E+02 -0.33282639699E+02  0.90170230531E+02  0.47000000000E+01 0.  1.
         11    1    6    6    0    0  0.86752275940E+02 -0.13736611492E+01 -0.40833577010E+02  0.95891737585E+02  0.00000000000E+00 0. -1.
        -12    1    6    6    0    0 -0.98069190039E+00  0.32320936819E+02 -0.20156044446E+02  0.38103422958E+02  0.00000000000E+00 0.  1.
</event>
<event>
12    1  0.8494789E-002  0.1908960E+03  0.7818608E-02  0.1157746E+00
         21   -1    0    0  503  502  0.00000000000E+00  0.00000000000E+00  0.54143705148E+03  0.54143705148E+03  0.00000000000E+00 0. -1.
         21   -1    0    0  501  503 -0.00000000000E+00 -0.00000000000E+00 -0.96183098171E+02  0.96183098171E+02  0.00000000000E+00 0.  1.
          6    2    1    2  501    0  0.74252035021E+02  0.33433364058E+02  0.47673384416E+02  0.19675878480E+03  0.17265605485E+03 0.  0.
         24    2    3    3    0    0  0.30213766468E+01  0.14645508471E+02  0.82883985775E+02  0.11497451579E+03  0.78267263574E+02 0.  0.
         -6    2    1    2    0  502 -0.74252035021E+02 -0.33433364058E+02  0.39758056889E+03  0.44086136485E+03  0.17221289069E+03 0.  0.
        -24    2    5    5    0    0 -0.63261156801E+02  0.33894085602E+01  0.10553448173E+03  0.14626040929E+03  0.79000749631E+02 0.  0.
          5    1    3    3  501    0  0.71230658374E+02  0.18787855587E+02 -0.35210601359E+02  0.81784269013E+02  0.47000000000E+01 0. -1.
        -13    1    4    4    0    0 -0.10083322428E+02  0.65515434013E+01 -0.13088596216E+02  0.17773785839E+02  0.00000000000E+00 0.  1.
         14    1    4    4    0    0  0.13104699075E+02  0.80939650700E+01  0.95972581992E+02  0.97200729949E+02  0.00000000000E+00 0. -1.
         -5    1    5    5    0  502 -0.10990878220E+02 -0.36822772618E+02  0.29204608716E+03  0.29460095556E+03  0.47000000000E+01 0.  1.
         11    1    6    6    0    0  0.13883996332E+02 -0.16527132841E+02  0.21885912184E+02  0.30739301004E+02  0.00000000000E+00 0. -1.
        -12    1    6    6    0    0 -0.77145153133E+02  0.19916541401E+02  0.83648569545E+02  0.11552110829E+03  0.00000000000E+00 0.  1.
</event>
<event>
12    1  0.8494789E-002  0.1793504E+03  0.7818608E-02  0.1168543E+00
         21   -1    0    0  501  502  0.00000000000E+00  0.00000000000E+00  0.35421608357E+02  0.35421608357E+02  0.00000000000E+00 0. -1.
         21   -1    0    0  502  503 -0.00000000000E+00 -0.00000000000E+00 -0.16906552947E+04  0.16906552947E+04  0.00000000000E+00 0. -1.
         -6    2    1    2    0  503  0.42600752594E+02 -0.29191271462E+02 -0.14150775176E+04  0.14263410825E+04  0.17128207311E+03 0.  0.
        -24    2    3    3    0    0  0.19208871064E+02 -0.85682820174E+02 -0.89313634780E+03  0.90080978005E+03  0.77815150684E+02 0.  0.
          6    2    1    2  501    0 -0.42600752594E+02  0.29191271462E+02 -0.24015616877E+03  0.29973582051E+03  0.17175454069E+03 0.  0.
         24    2    5    5    0    0 -0.33772745762E+02  0.63932447569E+02 -0.24113492445E+03  0.26357049202E+03  0.78073018799E+02 0.  0.
          5    1    5    5  501    0 -0.88280068320E+01 -0.34741176107E+02  0.97875568488E+00  0.36165328488E+02  0.47000000000E+01 0. -1.
        -13    1    6    6    0    0 -0.23028665430E+02  0.17281484693E+02 -0.19490495761E+03  0.19702007930E+03  0.00000000000E+00 0.  1.
         14    1    6    6    0    0 -0.10744080332E+02  0.46650962876E+02 -0.46229966842E+02  0.66550412723E+02  0.00000000000E+00 0. -1.
         -5    1    3    3    0  503  0.23391881530E+02  0.56491548712E+02 -0.52194116978E+03  0.52553130250E+03  0.47000000000E+01 0.  1.
         13    1    4    4    0    0  0.33815231681E+02 -0.26822768900E+02 -0.18012756231E+03  0.18522653570E+03  0.00000000000E+00 0. -1.
        -14    1    4    4    0    0 -0.14606360616E+02 -0.58860051274E+02 -0.71300878549E+03  0.71558324435E+03  0.00000000000E+00 0.  1.
</event>
<event>
12    1  0.8494789E-002  0.1852104E+03  0.7818608E-02  0.1162974E+00
         21   -1    0    0  501  502  0.00000000000E+00  0.00000000000E+00  0.13981691624E+03  0.13981691624E+03  0.00000000000E+00 0.  1.
         21   -1    0    0  502  503 -0.00000000000E+00 -0.00000000000E+00 -0.30327183366E+03  0.30327183366E+03  0.00000000000E+00 0.  1.
         -6    2    1    2    0  503 -0.22222222220E+01  0.66865648163E+02 -0.17921589880E+03  0.25772318170E+03  0.17270479678E+03 0.  0.
        -24    2    3    3    0    0 -0.31567424512E+02 -0.23928179518E+02 -0.81901110567E+02  0.12135266418E+03  0.80309508314E+02 0.  0.
          6    2    1    2  501    0  0.22222222220E+01 -0.66865648163E+02  0.15760981381E+02  0.18536556820E+03  0.17215118984E+03 0.  0.
         24    2    5    5    0    0  0.16416455172E+02 -0.11890640605E+02  0.67385505452E+02  0.10848313073E+03  0.82564495846E+02 0.  0.
          5    1    5    5  501    0 -0.14194232950E+02 -0.54975007558E+02 -0.51624524071E+02  0.76882437465E+02  0.47000000000E+01 0. -1.
        -13    1    6    6    0    0  0.17701055448E+02 -0.41969236032E+02  0.14807385666E+02  0.47895749367E+02  0.00000000000E+00 0.  1.
         14    1    6    6    0    0 -0.12846002754E+01  0.30078595427E+02  0.52578119786E+02  0.60587381367E+02  0.00000000000E+00 0. -1.
         -5    1    3    3    0  503  0.29345202290E+02  0.90793827681E+02 -0.97314788228E+02  0.13637051753E+03  0.47000000000E+01 0.  1.
         11    1    4    4    0    0  0.12872906203E+02 -0.21377645691E+02 -0.71375039189E+02  0.75611584222E+02  0.00000000000E+00 0. -1.
        -12    1    4    4    0    0 -0.44440330715E+02 -0.25505338267E+01 -0.10526071379E+02  0.45741079956E+02  0.00000000000E+00 0.  1.
</event>
<event>
12    1  0.8494789E-002  0.2073294E+03  0.7818608E-02  0.1144445E+00
         21   -1    0    0  501  502  0.00000000000E+00  0.00000000000E+00  0.14370569023E+04  0.14370569023E+04  0.00000000000E+00 0.  1.
         21   -1    0    0  502  503 -0.00000000000E+00 -0.00000000000E+00 -0.44537909022E+02  0.44537909022E+02  0.00000000000E+00 0. -1.
         -6    2    1    2    0  503 -0.69649804258E+02  0.92799095504E+02  0.26827008210E+03  0.33904911349E+03  0.17182170135E+03 0.  0.
        -24    2    3    3    0    0 -0.90040572458E+02  0.10105626171E+03  0.27361111954E+03  0.31592810784E+03  0.81411619956E+02 0.  0.
          6    2    1    2  501    0  0.69649804258E+02 -0.92799095504E+02  0.11242489112E+04  0.11425456979E+04  0.16736872460E+03 0.  0.
         24    2    5    5    0    0  0.10353959474E+03 -0.43120631962E+02  0.62144585567E+03  0.63613729519E+03  0.76784570144E+02 0.  0.
          5    1    5    5  501    0 -0.33889790482E+02 -0.49678463542E+02  0.50280305555E+03  0.50640840268E+03  0.47000000000E+01 0. -1.
        -13    1    6    6    0    0  0.39198337102E+02 -0.24756500656E+02  0.97782336455E+02  0.10821635403E+03  0.00000000000E+00 0.  1.
         14    1    6    6    0    0  0.64341257638E+02 -0.18364131306E+02  0.52366351922E+03  0.52792094116E+03  0.00000000000E+00 0. -1.
         -5    1    3    3    0  503  0.20390768200E+02 -0.82571662046E+01 -0.53410374497E+01  0.23121005656E+02  0.47000000000E+01 0.  1.
         13    1    4    4    0    0 -0.28607895808E+02  0.90220909707E+02  0.14793387316E+03  0.17562077063E+03  0.00000000000E+00 0. -1.
        -14    1    4    4    0    0 -0.61432676649E+02  0.10835352001E+02  0.12567724639E+03  0.14030733720E+03  0.00000000000E+00 0.  1.
</event>
<event>
12    1  0.8494789E-002  0.1951181E+03  0.7818608E-02  0.1156508E+00
         21   -1    0    0  503  502  0.00000000000E+00  0.00000000000E+00  0.24782107324E+04  0.24782107324E+04  0.00000000000E+00 0.  1.
         21   -1    0    0  501  503 -0.00000000000E+00 -0.00000000000E+00 -0.16680238781E+02  0.16680238781E+02  0.00000000000E+00 0.  1.
          6    2    1    2  501    0 -0.59532799396E+02 -0.32323261969E+02  0.16521384292E+04  0.16623126914E+04  0.17068434957E+03 0.  0.
         24    2    3    3    0    0 -0.83697683275E+02 -0.70133031722E+02  0.10408149797E+04  0.10493265821E+04  0.76593142795E+02 0.  0.
         -6    2    1    2    0  502  0.59532799396E+02  0.32323261969E+02  0.80939206440E+03  0.83257827979E+03  0.18298123018E+03 0.  0.
        -24    2    5    5    0    0  0.41517763283E+02  0.88995192324E+02  0.64002934514E+03  0.65301751043E+03  0.84560258810E+02 0.  0.
          5    1    3    3  501    0  0.24164883880E+02  0.37809769753E+02  0.61132344950E+03  0.61298610931E+03  0.47000000000E+01 0. -1.
        -13    1    4    4    0    0 -0.47797693192E+02 -0.11543997290E+01  0.58274850943E+03  0.58470657372E+03  0.00000000000E+00 0.  1.
         14    1    4    4    0    0 -0.35899990083E+02 -0.68978631993E+02  0.45806647030E+03  0.46462000837E+03  0.00000000000E+00 0. -1.
         -5    1    5    5    0  502  0.18015036112E+02 -0.56671930354E+02  0.16936271926E+03  0.17956076935E+03  0.47000000000E+01 0.  1.
         13    1    6    6    0    0  0.12799668238E+00  0.81493228868E+02  0.31903333614E+03  0.32927713601E+03  0.00000000000E+00 0. -1.
        -14    1    6    6    0    0  0.41389766601E+02  0.75019634557E+01  0.32099600900E+03  0.32374037442E+03  0.00000000000E+00 0.  1.
</event>
<event>
12    1  0.8494789E-002  0.1854505E+03  0.7818608E-02  0.1162706E+00
         21   -1    0    0  503  502  0.00000000000E+00  0.00000000000E+00  0.44474984118E+03  0.44474984118E+03  0.00000000000E+00 0. -1.
         21   -1    0    0  501  503 -0.00000000000E+00 -0.00000000000E+00 -0.89399283289E+02  0.89399283289E+02  0.00000000000E+00 0. -1.
          6    2    1    2  501    0  0.13429828361E+02 -0.68149641923E+02  0.78847986269E+02  0.20121438032E+03  0.17159687621E+03 0.  0.
         24    2    3    3    0    0  0.74887751903E+02 -0.51257057726E+02  0.44835321549E+02  0.12881695545E+03  0.79675219489E+02 0.  0.
         -6    2    1    2    0  502 -0.13429828361E+02  0.68149641923E+02  0.27650257162E+03  0.33293474414E+03  0.17195097488E+03 0.  0.
        -24    2    5    5    0    0 -0.62475587858E+02  0.49274600972E+02  0.24969893535E+03  0.27375469165E+03  0.79125770196E+02 0.  0.
          5    1    3    3  501    0 -0.61457923541E+02 -0.16892584197E+02  0.34012664720E+02  0.72397424873E+02  0.47000000000E+01 0. -1.
        -13    1    4    4    0    0  0.66975199764E+02 -0.27424724574E+00  0.13100219380E+02  0.68244914410E+02  0.00000000000E+00 0.  1.
         14    1    4    4    0    0  0.79125521386E+01 -0.50982810480E+02  0.31735102169E+02  0.60572041038E+02  0.00000000000E+00 0. -1.
         -5    1    5    5    0  502  0.49045759497E+02  0.18875040951E+02  0.26803636268E+02  0.59180052490E+02  0.47000000000E+01 0.  1.
         11    1    6    6    0    0  0.16004516896E+00  0.32476890300E+02  0.28377962237E+02  0.43128676756E+02  0.00000000000E+00 0. -1.
        -12    1    6    6    0    0 -0.62635633027E+02  0.16797710672E+02  0.22132097311E+03  0.23062601490E+03  0.00000000000E+00 0.  1.
</event>
<event>
12    1  0.8494789E-002  0.1942945E+03  0.7818608E-02  0.1154861E+00
         21   -1    0    0  501  502  0.00000000000E+00  0.00000000000E+00  0.31678485014E+03  0.31678485014E+03  0.00000000000E+00 0. -1.
         21   -1    0    0  502  503 -0.00000000000E+00 -0.00000000000E+00 -0.12261193756E+03  0.12261193756E+03  0.00000000000E+00 0. -1.
         -6    2    1    2    0  503 -0.87036554106E+02  0.21205041325E+02  0.13726143740E+03  0.23788874235E+03  0.17241037094E+03 0.  0.
        -24    2    3    3    0    0 -0.81942719660E+02  0.48248908134E+00  0.17156721572E+02  0.11581251990E+03  0.80020900836E+02 0.  0.
          6    2    1    2  501    0  0.87036554106E+02 -0.21205041325E+02  0.56911475185E+02  0.20150804535E+03  0.17129378508E+03 0.  0.
         24    2    5    5    0    0 -0.12776975233E+02  0.18931966786E+02  0.26217164096E+02  0.89535054001E+02  0.82507670791E+02 0.  0.
          5    1    5    5  501    0  0.99813529339E+02 -0.40137008111E+02  0.30694311090E+02  0.11197299135E+03  0.47000000000E+01 0. -1.
        -13    1    6    6    0    0  0.17422069036E+02  0.34327294530E+02  0.37567274810E+02  0.53788398153E+02  0.00000000000E+00 0.  1.
         14    1    6    6    0    0 -0.30199044269E+02 -0.15395327744E+02 -0.11350110714E+02  0.35746655848E+02  0.00000000000E+00 0. -1.
         -5    1    3    3    0  503 -0.50938344463E+01  0.20722552244E+02  0.12010471583E+03  0.12207622244E+03  0.47000000000E+01 0.  1.
         13    1    4    4    0    0 -0.55642053708E+02 -0.35460786824E+02  0.25057754836E+02  0.70579009772E+02  0.00000000000E+00 0. -1.
        -14    1    4    4    0    0 -0.26300665952E+02  0.35943275905E+02 -0.79010332636E+01  0.45233510133E+02  0.00000000000E+00 0.  1.
</event>
<event>
12    1  0.8494789E-002  0.1909417E+03  0.7818608E-02  0.1158014E+00
         21   -1    0    0  501  502  0.00000000000E+00  0.00000000000E+00  0.77709724106E+03  0.77709724106E+03  0.00000000000E+00 0. -1.
         21   -1    0    0  502  503 -0.00000000000E+00 -0.00000000000E+00 -0.87736575100E+02  0.87736575100E+02  0.00000000000E+00 0. -1.
         -6    2    1    2    0  503  0.78335485782E+02  0.20112064623E+00  0.47310590180E+02  0.19499275501E+03  0.17218418563E+03 0.  0.
        -24    2    3    3    0    0  0.51443666958E+02  0.36051957987E+02 -0.28983972823E+02  0.10638461317E+03  0.80817205429E+02 0.  0.
          6    2    1    2  501    0 -0.78335485782E+02 -0.20112064623E+00  0.64205007578E+03  0.66984106115E+03  0.17413287629E+03 0.  0.
         24    2    5    5    0    0 -0.86359453941E+02  0.51535121551E+02  0.35321079801E+03  0.37625761270E+03  0.81841916167E+02 0.  0.
          5    1    5    5  501    0  0.80239681597E+01 -0.51736242197E+02  0.28883927777E+03  0.29358344845E+03  0.47000000000E+01 0. -1.
        -13    1    6    6    0    0  0.10107761371E+02 -0.37200343625E+01  0.75342245205E+01  0.13144201562E+02  0.00000000000E+00 0.  1.
         14    1    6    6    0    0 -0.96467215312E+02  0.55255155913E+02  0.34567657349E+03  0.36311341114E+03  0.00000000000E+00 0. -1.
         -5    1    3    3    0  503  0.26891818823E+02 -0.35850837340E+02  0.76294563003E+02  0.88608141846E+02  0.47000000000E+01 0.  1.
         11    1    4    4    0    0  0.20480486012E+02  0.52891359431E+02  0.56140177012E+01  0.56995292827E+02  0.00000000000E+00 0. -1.
        -12    1    4    4    0    0  0.30963180946E+02 -0.16839401444E+02 -0.34597990524E+02  0.49389320340E+02  0.00000000000E+00 0.  1.
</event>
<event>
12    1  0.8494789E-002  0.2107930E+03  0.7818608E-02  0.1141099E+00
         21   -1    0    0  501  502  0.00000000000E+00  0.00000000000E+00  0.92278544378E+02  0.92278544378E+02  0.00000000000E+00 0.  1.
         21   -1    0    0  502  503 -0.00000000000E+00 -0.00000000000E+00 -0.48071094513E+03  0.48071094513E+03  0.00000000000E+00 0. -1.
         -6    2    1    2    0  503 -0.10276085868E+03 -0.63210335191E+02 -0.20714084215E+03  0.29496017626E+03  0.17186866074E+03 0.  0.
        -24    2    3    3    0    0 -0.78384956456E+02 -0.37366711326E+02 -0.22584577545E+03  0.25453689048E+03  0.79007859181E+02 0.  0.
          6    2    1    2  501    0  0.10276085868E+03  0.63210335191E+02 -0.18129155860E+03  0.27802931325E+03  0.17285349072E+03 0.  0.
         24    2    5    5    0    0  0.11231851808E+03  0.35237463887E+02 -0.19739515871E+03  0.24404039860E+03  0.82059363273E+02 0.  0.
          5    1    5    5  501    0 -0.95576594088E+01  0.27972871304E+02  0.16103600107E+02  0.33988914646E+02  0.47000000000E+01 0. -1.
        -11    1    6    6    0    0  0.93238498888E+02 -0.59009321502E+01 -0.10142566743E+03  0.13789635488E+03  0.00000000000E+00 0.  1.
         12    1    6    6    0    0  0.19080019195E+02  0.41138396037E+02 -0.95969491278E+02  0.10614404372E+03  0.00000000000E+00 0. -1.
         -5    1    3    3    0  503 -0.24375902219E+02 -0.25843623864E+02  0.18704933304E+02  0.40423285781E+02  0.47000000000E+01 0.  1.
         11    1    4    4    0    0 -0.89004373382E+02 -0.12666270385E+02 -0.16226673214E+03  0.18550661780E+03  0.00000000000E+00 0. -1.
        -12    1    4    4    0    0  0.10619416926E+02 -0.24700440941E+02 -0.63579043314E+02  0.69030272687E+02  0.00000000000E+00 0.  1.
</event>
<event>
12    1  0.8494789E-002  0.1959441E+03  0.7818608E-02  0.1153245E+00
         21   -1    0    0  501  502  0.00000000000E+00  0.00000000000E+00  0.10616564237E+04  0.10616564237E+04  0.00000000000E+00 0. -1.
         21   -1    0    0  502  503 -0.00000000000E+00 -0.00000000000E+00 -0.57889451573E+02  0.57889451573E+02  0.00000000000E+00 0. -1.
         -6    2    1    2    0  503 -0.21158040572E+02  0.92108871262E+02  0.15884596221E+03  0.25224221010E+03  0.17164610685E+03 0.  0.
        -24    2    3    3    0    0 -0.23508242286E+02  0.40977120218E+02  0.17578558865E+03  0.19812178552E+03  0.78229833713E+02 0.  0.
          6    2    1    2  501    0  0.21158040572E+02 -0.92108871262E+02  0.84492100992E+03  0.86730366519E+03  0.17144219956E+03 0.  0.
         24    2    5    5    0    0  0.39715032828E+02 -0.96638793149E+01  0.23564247113E+03  0.25217443771E+03  0.79961856149E+02 0.  0.
          5    1    5    5  501    0 -0.18556992256E+02 -0.82444991947E+02  0.60927853880E+03  0.61512922748E+03  0.47000000000E+01 0. -1.
        -11    1    6    6    0    0  0.16847536406E+01  0.22777180534E+02  0.15925853838E+03  0.16088791252E+03  0.00000000000E+00 0.  1.
         12    1    6    6    0    0  0.38030279188E+02 -0.32441059849E+02  0.76383932748E+02  0.91286525190E+02  0.00000000000E+00 0. -1.
         -5    1    3    3    0  503  0.23502017136E+01  0.51131751045E+02 -0.16939626437E+02  0.54120424581E+02  0.47000000000E+01 0.  1.
         13    1    4    4    0    0 -0.40346296662E+02  0.54924232398E+02  0.14648961203E+03  0.16156639933E+03  0.00000000000E+00 0. -1.
        -14    1    4    4    0    0  0.16838054376E+02 -0.13947112180E+02  0.29295976617E+02  0.36555386187E+02  0.00000000000E+00 0.  1.
</event>
<event>
12    1  0.8494789E-002  0.2519631E+03  0.7818608E-02  0.1113447E+00
         21   -1    0    0  501  502  0.00000000000E+00  0.00000000000E+00  0.11210930658E+04  0.11210930658E+04  0.00000000000E+00 0.  1.
         21   -1    0    0  502  503 -0.00000000000E+00 -0.00000000000E+00 -0.80383477375E+02  0.80383477375E+02  0.00000000000E+00 0. -1.
         -6    2    1    2    0  503  0.16704140417E+03 -0.58122530923E+02  0.17466000761E+03  0.29951906774E+03  0.16710623679E+03 0.  0.
        -24    2    3    3    0    0  0.12284973653E+03 -0.10041803916E+03  0.15240274860E+03  0.23425583855E+03  0.80457192089E+02 0.  0.
          6    2    1    2  501    0 -0.16704140417E+03  0.58122530923E+02  0.86604958080E+03  0.90195747541E+03  0.17945570970E+03 0.  0.
         24    2    5    5    0    0 -0.11878533590E+03 -0.21371212384E+02  0.66276415227E+03  0.67836195040E+03  0.79698992994E+02 0.  0.
          5    1    5    5  501    0 -0.48256068276E+02  0.79493743307E+02  0.20328542853E+03  0.22359552501E+03  0.47000000000E+01 0. -1.
        -11    1    6    6    0    0 -0.40269450427E+01 -0.21372967270E+02  0.21608589941E+03  0.21717765986E+03  0.00000000000E+00 0.  1.
         12    1    6    6    0    0 -0.11475839086E+03  0.17548861039E-02  0.44667825286E+03  0.46118429055E+03  0.00000000000E+00 0. -1.
         -5    1    3    3    0  503  0.44191667642E+02  0.42295508239E+02  0.22257259011E+02  0.65263229194E+02  0.47000000000E+01 0.  1.
         13    1    4    4    0    0  0.43726391571E+02 -0.68711032309E+02  0.33753600002E+02  0.88161832977E+02  0.00000000000E+00 0. -1.
        -14    1    4    4    0    0  0.79123344962E+02 -0.31707006853E+02  0.11864914860E+03  0.14609400557E+03  0.00000000000E+00 0.  1.
</event>
<event>
12    1  0.8494789E-002  0.2111748E+03  0.7818608E-02  0.1141823E+00
         21   -1    0    0  501  502  0.00000000000E+00  0.00000000000E+00  0.34832389212E+03  0.34832389212E+03  0.00000000000E+00 0. -1.
         21   -1    0    0  502  503 -0.00000000000E+00 -0.00000000000E+00 -0.19862778922E+03  0.19862778922E+03  0.00000000000E+00 0. -1.
         -6    2    1    2    0  503 -0.11226897163E+03  0.61875009963E+00 -0.92927236880E+02  0.22529831944E+03  0.17181139818E+03 0.  0.
        -24    2    3    3    0    0 -0.45747418678E+02 -0.13159085577E+02 -0.11952944212E+03  0.15219077477E+03  0.81294258981E+02 0.  0.
          6    2    1    2  501    0  0.11226897163E+03 -0.61875009963E+00  0.24262333977E+03  0.32165336190E+03  0.17885775180E+03 0.  0.
         24    2    5    5    0    0  0.21054497333E+02  0.50791052886E+02  0.68010669522E+02  0.11799992398E+03  0.79218103865E+02 0.  0.
          5    1    5    5  501    0  0.91214474297E+02 -0.51409802986E+02  0.17461267025E+03  0.20365343792E+03  0.47000000000E+01 0. -1.
        -11    1    6    6    0    0  0.44174697538E+02  0.17772710751E+02  0.12197683250E+02  0.49153398933E+02  0.00000000000E+00 0.  1.
         12    1    6    6    0    0 -0.23120200205E+02  0.33018342135E+02  0.55812986272E+02  0.68846525050E+02  0.00000000000E+00 0. -1.
         -5    1    3    3    0  503 -0.66521552953E+02  0.13777835676E+02  0.26602205239E+02  0.73107544664E+02  0.47000000000E+01 0.  1.
         13    1    4    4    0    0 -0.43950326510E+02  0.15153155602E+01 -0.14765879637E+02  0.46389207614E+02  0.00000000000E+00 0. -1.
        -14    1    4    4    0    0 -0.17970921674E+01 -0.14674401137E+02 -0.10476356248E+03  0.10580156716E+03  0.00000000000E+00 0.  1.
</event>
<event>
12    1  0.8494789E-002  0.2009457E+03  0.7818608E-02  0.1150045E+00
         21   -1    0    0  503  502  0.00000000000E+00  0.00000000000E+00  0.74552963402E+03  0.74552963402E+03  0.00000000000E+00 0. -1.
         21   -1    0    0  501  503 -0.00000000000E+00 -0.00000000000E+00 -0.58258060915E+02  0.58258060915E+02  0.00000000000E+00 0. -1.
          6    2    1    2  501    0 -0.91176277989E+02 -0.21921186714E+02  0.47100097088E+03  0.51207529550E+03  0.17772321624E+03 0.  0.
         24    2    3    3    0    0 -0.10496056308E+03  0.13313939719E+02  0.23283306706E+03  0.27087504453E+03  0.89264056846E+02 0.  0.
         -6    2    1    2    0  502  0.91176277989E+02  0.21921186714E+02  0.21627060222E+03  0.29171239944E+03  0.17184149239E+03 0.  0.
        -24    2    5    5    0    0  0.10449405128E+03 -0.20013979968E+02  0.20797316497E+03  0.24669175134E+03  0.79274312901E+02 0.  0.
          5    1    3    3  501    0  0.13784285088E+02 -0.35235126434E+02  0.23816790383E+03  0.24120025096E+03  0.47000000000E+01 0. -1.
        -11    1    4    4    0    0 -0.43171815319E+02 -0.10015109496E+02  0.21108915784E+02  0.49088638010E+02  0.00000000000E+00 0.  1.
         12    1    4    4    0    0 -0.61788747758E+02  0.23329049216E+02  0.21172415127E+03  0.22178640652E+03  0.00000000000E+00 0. -1.
         -5    1    5    5    0  502 -0.13317773290E+02  0.41935166682E+02  0.82974372491E+01  0.45020648096E+02  0.47000000000E+01 0.  1.
         11    1    6    6    0    0  0.65747944602E+02 -0.24755112734E+02  0.56164397140E+02  0.89944690404E+02  0.00000000000E+00 0. -1.
        -12    1    6    6    0    0  0.38746106677E+02  0.47411327665E+01  0.15180876783E+03  0.15674706094E+03  0.00000000000E+00 0.  1.
</event>
<event>
12    1  0.8494789E-002  0.1946078E+03  0.7818608E-02  0.1156676E+00
         21   -1    0    0  503  502  0.00000000000E+00  0.00000000000E+00  0.41292188128E+02  0.41292188128E+02  0.00000000000E+00 0.  1.
         21   -1    0    0  501  503 -0.00000000000E+00 -0.00000000000E+00 -0.88806509959E+03  0.88806509959E+03  0.00000000000E+00 0.  1.
          6    2    1    2  501    0 -0.55948106447E+02  0.86239821771E+01 -0.47931709047E+03  0.51354966703E+03  0.17545319490E+03 0.  0.
         24    2    3    3    0    0 -0.89130379989E+01 -0.51961963393E+02 -0.35221705752E+03  0.36502538335E+03  0.80044906132E+02 0.  0.
         -6    2    1    2    0  502  0.55948106447E+02 -0.86239821771E+01 -0.36745582099E+03  0.41580762069E+03  0.18619246323E+03 0.  0.
        -24    2    5    5    0    0  0.77949895736E+02 -0.42224480571E+02 -0.35304722473E+03  0.37288012519E+03  0.80858839125E+02 0.  0.
          5    1    3    3  501    0 -0.47035068448E+02  0.60585945570E+02 -0.12710003296E+03  0.14852428368E+03  0.47000000000E+01 0. -1.
        -13    1    4    4    0    0  0.98340733347E+01 -0.48317325297E+02 -0.94398751328E+02  0.10650069096E+03  0.00000000000E+00 0.  1.
         14    1    4    4    0    0 -0.18747111334E+02 -0.36446380960E+01 -0.25781830619E+03  0.25852469239E+03  0.00000000000E+00 0. -1.
         -5    1    5    5    0  502 -0.22001789289E+02  0.33600498393E+02 -0.14408596261E+02  0.42927495506E+02  0.47000000000E+01 0.  1.
         13    1    6    6    0    0  0.39166175714E+02 -0.43331375725E+02 -0.92068738023E+02  0.10903325164E+03  0.00000000000E+00 0. -1.
        -14    1    6    6    0    0  0.38783720022E+02  0.11068951546E+01 -0.26097848671E+03  0.26384687355E+03  0.00000000000E+00 0.  1.
</event>
<event>
12    1  0.8494789E-002  0.1792913E+03  0.7818608E-02  0.1168921E+00
         21   -1    0    0  503  502  0.00000000000E+00  0.00000000000E+00  0.65610910367E+03  0.65610910367E+03  0.00000000000E+00 0.  1.
         21   -1    0    0  501  503 -0.00000000000E+00 -0.00000000000E+00 -0.66151620907E+02  0.66151620907E+02  0.00000000000E+00 0.  1.
          6    2    1    2  501    0  0.26583063536E+02  0.37476238120E+02  0.10744065511E+03  0.20751044245E+03  0.17148166568E+03 0.  0.
         24    2    3    3    0    0  0.73270331502E+02  0.13739397420E+02  0.28351006713E+02  0.11253465038E+03  0.79391154632E+02 0.  0.
         -6    2    1    2    0  502 -0.26583063536E+02 -0.37476238120E+02  0.48251682765E+03  0.51475028213E+03  0.17330388423E+03 0.  0.
        -24    2    5    5    0    0 -0.60943621171E+01 -0.91266196542E+02  0.32748515971E+03  0.34931130674E+03  0.80032489037E+02 0.  0.
          5    1    3    3  501    0 -0.46687267966E+02  0.23736840700E+02  0.79089648392E+02  0.94975792070E+02  0.47000000000E+01 0. -1.
        -13    1    4    4    0    0  0.33668057349E+02  0.19488266240E+02 -0.24701936654E+02  0.46081626286E+02  0.00000000000E+00 0.  1.
         14    1    4    4    0    0  0.39602274154E+02 -0.57488688198E+01  0.53052943368E+02  0.66453024091E+02  0.00000000000E+00 0. -1.
         -5    1    5    5    0  502 -0.20488701419E+02  0.53789958422E+02  0.15503166794E+03  0.16543897539E+03  0.47000000000E+01 0.  1.
         13    1    6    6    0    0 -0.33942159335E+02 -0.11923428899E+02  0.74789975228E+02  0.82992642636E+02  0.00000000000E+00 0. -1.
        -14    1    6    6    0    0  0.27847797218E+02 -0.79342767644E+02  0.25269518449E+03  0.26631866410E+03  0.00000000000E+00 0.  1.
</event>
<event>
12    1  0.8494789E-002  0.2350753E+03  0.7818608E-02  0.1123210E+00
         21   -1    0    0  501  502  0.00000000000E+00  0.00000000000E+00  0.99879884405E+03  0.99879884405E+03  0.00000000000E+00 0. -1.
         21   -1    0    0  502  503 -0.00000000000E+00 -0.00000000000E+00 -0.68918727895E+02  0.68918727895E+02  0.00000000000E+00 0. -1.
         -6    2    1    2    0  503  0.11716051891E+03  0.10810767415E+03  0.22718388309E+03  0.32691425233E+03  0.17276155603E+03 0.  0.
        -24    2    3    3    0    0  0.34748333438E+01  0.47219483460E+02  0.45260658004E+02  0.10386726918E+03  0.80610969226E+02 0.  0.
          6    2    1    2  501    0 -0.11716051891E+03 -0.10810767415E+03  0.70269623306E+03  0.74080331961E+03  0.17202821274E+03 0.  0.
         24    2    5    5    0    0 -0.10388485533E+03 -0.11348562276E+03  0.37715181437E+03  0.41491004855E+03  0.78967129680E+02 0.  0.
          5    1    5    5  501    0 -0.13275663577E+02  0.53779486063E+01  0.32554441869E+03  0.32589327105E+03  0.47000000000E+01 0. -1.
        -11    1    6    6    0    0 -0.31510143448E+02 -0.18105153096E+02  0.18479182352E+03  0.18833136687E+03  0.00000000000E+00 0.  1.
         12    1    6    6    0    0 -0.72374711885E+02 -0.95380469660E+02  0.19235999085E+03  0.22657868168E+03  0.00000000000E+00 0. -1.
         -5    1    3    3    0  503  0.11368568557E+03  0.60888190690E+02  0.18192322508E+03  0.22304698315E+03  0.47000000000E+01 0.  1.
         13    1    4    4    0    0  0.18934454195E+01  0.67877854209E+02  0.47731407227E+02  0.83001659402E+02  0.00000000000E+00 0. -1.
        -14    1    4    4    0    0  0.15813879243E+01 -0.20658370749E+02 -0.24707492237E+01  0.20865609780E+02  0.00000000000E+00 0.  1.
</event>
<event>
12    1  0.8494789E-002  0.2831666E+03  0.7818608E-02  0.1094730E+00
         21   -1    0    0  501  502  0.00000000000E+00  0.00000000000E+00  0.10305574490E+04  0.10305574490E+04  0.00000000000E+00 0. -1.
         21   -1    0    0  502  503 -0.00000000000E+00 -0.00000000000E+00 -0.11837649313E+03  0.11837649313E+03  0.00000000000E+00 0.  1.
         -6    2    1    2    0  503  0.31711605148E+02 -0.21595156104E+03  0.11645390604E+03  0.30617775724E+03  0.18039568781E+03 0.  0.
        -24    2    3    3    0    0 -0.37450963883E+02 -0.18776846044E+03  0.74690568707E+02  0.22048053174E+03  0.79833667016E+02 0.  0.
          6    2    1    2  501    0 -0.31711605148E+02  0.21595156104E+03  0.79572704982E+03  0.84275618488E+03  0.17151019422E+03 0.  0.
         24    2    5    5    0    0 -0.14901263007E+02  0.15251146096E+03  0.33645395523E+03  0.37879379490E+03  0.82472308705E+02 0.  0.
          5    1    5    5  501    0 -0.16810342141E+02  0.63440100086E+02  0.45927309459E+03  0.46396238998E+03  0.47000000000E+01 0. -1.
        -13    1    6    6    0    0 -0.40023515711E+02  0.14050699164E+03  0.28676013145E+03  0.32183143025E+03  0.00000000000E+00 0.  1.
         14    1    6    6    0    0  0.25122252703E+02  0.12004469319E+02  0.49693823787E+02  0.56962364655E+02  0.00000000000E+00 0. -1.
         -5    1    3    3    0  503  0.69162569031E+02 -0.28183100604E+02  0.41763337334E+02  0.85697225509E+02  0.47000000000E+01 0.  1.
         11    1    4    4    0    0 -0.10627377246E+02 -0.26610468415E+02  0.46604865304E+02  0.54708972266E+02  0.00000000000E+00 0. -1.
        -12    1    4    4    0    0 -0.26823586637E+02 -0.16115799202E+03  0.28085703403E+02  0.16577155947E+03  0.00000000000E+00 0.  1.
</event>
<event>
12    1  0.8494789E-002  0.1835280E+03  0.7818608E-02  0.1164796E+00
         21   -1    0    0  501  502  0.00000000000E+00  0.00000000000E+00  0.95417591364E+02  0.95417591364E+02  0.00000000000E+00 0.  1.
         21   -1    0    0  502  503 -0.00000000000E+00 -0.00000000000E+00 -0.36090375523E+03  0.36090375523E+03  0.00000000000E+00 0.  1.
         -6    2    1    2    0  503 -0.16962575486E+02 -0.58791934077E+02 -0.17176323440E+03  0.25024726171E+03  0.17139679934E+03 0.  0.
        -24    2    3    3    0    0 -0.35596732749E+02 -0.93072036553E+02 -0.80608680068E+02  0.15098196053E+03  0.79801389299E+02 0.  0.
          6    2    1    2  501    0  0.16962575486E+02  0.58791934077E+02 -0.93722929461E+02  0.20607408488E+03  0.17302693568E+03 0.  0.
         24    2    5    5    0    0  0.32001528400E+02  0.53686184685E+02 -0.13090009896E+03  0.16537432182E+03  0.79419935557E+02 0.  0.
          5    1    5    5  501    0 -0.15038952914E+02  0.51057493929E+01  0.37177169494E+02  0.40699763060E+02  0.47000000000E+01 0. -1.
        -11    1    6    6    0    0  0.35839074082E+02 -0.20674024250E+01 -0.19767709216E+02  0.40981406900E+02  0.00000000000E+00 0.  1.
         12    1    6    6    0    0 -0.38375456817E+01  0.55753587110E+02 -0.11113238974E+03  0.12439291492E+03  0.00000000000E+00 0. -1.
         -5    1    3    3    0  503  0.18634157263E+02  0.34280102475E+02 -0.91154554332E+02  0.99265301178E+02  0.47000000000E+01 0.  1.
         13    1    4    4    0    0 -0.25675215429E+02 -0.10191496116E+03 -0.86810698132E+02  0.13631571188E+03  0.00000000000E+00 0. -1.
        -14    1    4    4    0    0 -0.99215173197E+01  0.88429246056E+01  0.62020180643E+01  0.14666248654E+02  0.00000000000E+00 0.  1.
</event>
<event>
12    1  0.8494789E-002  0.2220490E+03  0.7818608E-02  0.1132899E+00
         21   -1    0    0  501  502  0.00000000000E+00  0.00000000000E+00  0.42726532584E+02  0.42726532584E+02  0.00000000000E+00 0.  1.
         21   -1    0    0  502  503 -0.00000000000E+00 -0.00000000000E+00 -0.11929362728E+04  0.11929362728E+04  0.00000000000E+00 0. -1.
         -6    2    1    2    0  503 -0.13626175512E+03 -0.18882284556E+02 -0.70997283636E+03  0.74388653790E+03  0.17430417757E+03 0.  0.
        -24    2    3    3    0    0 -0.13849777369E+03 -0.44752373223E+02 -0.69301060317E+03  0.71251666985E+03  0.78942387106E+02 0.  0.
          6    2    1    2  501    0  0.13626175512E+03  0.18882284556E+02 -0.44023690383E+03  0.49177626746E+03  0.17062109824E+03 0.  0.
         24    2    5    5    0    0  0.70965195081E+01  0.41182439577E+02 -0.19415465696E+03  0.21292233217E+03  0.76769361056E+02 0.  0.
          5    1    5    5  501    0  0.12916523561E+03 -0.22300155021E+02 -0.24608224686E+03  0.27885393529E+03  0.47000000000E+01 0. -1.
        -13    1    6    6    0    0  0.10214230824E+02  0.62421186893E+02 -0.16507240677E+03  0.17677566167E+03  0.00000000000E+00 0.  1.
         14    1    6    6    0    0 -0.31177113161E+01 -0.21238747315E+02 -0.29082250197E+02  0.36146670495E+02  0.00000000000E+00 0. -1.
         -5    1    3    3    0  503  0.22360185688E+01  0.25870088667E+02 -0.16962233194E+02  0.31369868052E+02  0.47000000000E+01 0.  1.
         13    1    4    4    0    0 -0.52195742483E+02 -0.45835965859E+02 -0.43349244642E+03  0.43902281535E+03  0.00000000000E+00 0. -1.
        -14    1    4    4    0    0 -0.86302031206E+02  0.10835926358E+01 -0.25951815675E+03  0.27349385450E+03  0.00000000000E+00 0.  1.
</event>
<event>
12    1  0.8494789E-002  0.2348303E+03  0.7818608E-02  0.1124718E+00
         21   -1    0    0  503  502  0.00000000000E+00  0.00000000000E+00  0.97739361788E+02  0.97739361788E+02  0.00000000000E+00 0. -1.
         21   -1    0    0  501  503 -0.00000000000E+00 -0.00000000000E+00 -0.55498648650E+03  0.55498648650E+03  0.00000000000E+00 0. -1.
          6    2    1    2  501    0  0.38632750861E+02  0.13957127600E+03 -0.26914606776E+03  0.35184832693E+03  0.17431296236E+03 0.  0.
         24    2    3    3    0    0 -0.20491735589E+02  0.10598276468E+03 -0.24506168008E+03  0.27955696699E+03  0.80278347746E+02 0.  0.
         -6    2    1    2    0  502 -0.38632750861E+02 -0.13957127600E+03 -0.18810105695E+03  0.30087752136E+03  0.18485844506E+03 0.  0.
        -24    2    5    5    0    0 -0.65865358112E+02 -0.27746693978E+02 -0.53150668785E+02  0.12345134148E+03  0.85481668759E+02 0.  0.
          5    1    3    3  501    0  0.59124486450E+02  0.33588511325E+02 -0.24084387687E+02  0.72291359935E+02  0.47000000000E+01 0. -1.
        -13    1    4    4    0    0  0.23423275365E+02  0.10719717304E+02 -0.25613635585E+02  0.36326581118E+02  0.00000000000E+00 0.  1.
         14    1    4    4    0    0 -0.43915010954E+02  0.95263047374E+02 -0.21944804449E+03  0.24323038587E+03  0.00000000000E+00 0. -1.
         -5    1    5    5    0  502  0.27232607252E+02 -0.11182458202E+03 -0.13495038817E+03  0.17742617989E+03  0.47000000000E+01 0.  1.
         13    1    6    6    0    0 -0.20288234719E+02 -0.48039937823E+02 -0.51857928783E+02  0.73543815999E+02  0.00000000000E+00 0. -1.
        -14    1    6    6    0    0 -0.45577123393E+02  0.20293243844E+02 -0.12927400022E+01  0.49907525477E+02  0.00000000000E+00 0.  1.
</event>
<event>
12    1  0.8494789E-002  0.1862783E+03  0.7818608E-02  0.1163303E+00
         21   -1    0    0  501  502  0.00000000000E+00  0.00000000000E+00  0.45303431930E+03  0.45303431930E+03  0.00000000000E+00 0.  1.
         21   -1    0    0  502  503 -0.00000000000E+00 -0.00000000000E+00 -0.24598675466E+03  0.24598675466E+03  0.00000000000E+00 0.  1.
         -6    2    1    2    0  503 -0.28929974670E+02 -0.33442456919E+02 -0.18810741393E+03  0.26473383377E+03  0.18095375709E+03 0.  0.
        -24    2    3    3    0    0 -0.61525651166E+02 -0.79917070148E+02 -0.14361229826E+03  0.19245470040E+03  0.79007440436E+02 0.  0.
          6    2    1    2  501    0  0.28929974670E+02  0.33442456919E+02  0.39515497857E+03  0.43428724020E+03  0.17464996005E+03 0.  0.
         24    2    5    5    0    0 -0.12380524729E+02  0.75215332506E+02  0.32157556356E+03  0.34001343255E+03  0.79922885304E+02 0.  0.
          5    1    5    5  501    0  0.41310499399E+02 -0.41772875587E+02  0.73579415014E+02  0.94273807652E+02  0.47000000000E+01 0. -1.
        -13    1    6    6    0    0  0.43446309914E-01 -0.17090737295E+02  0.58012870122E+02  0.60477998385E+02  0.00000000000E+00 0.  1.
         14    1    6    6    0    0 -0.12423971039E+02  0.92306069801E+02  0.26356269344E+03  0.27953543416E+03  0.00000000000E+00 0. -1.
         -5    1    3    3    0  503  0.32595676496E+02  0.46474613229E+02 -0.44495115675E+02  0.72279133365E+02  0.47000000000E+01 0.  1.
         11    1    4    4    0    0 -0.27786081494E+02 -0.17690136689E+02 -0.67038807755E+00  0.32946269607E+02  0.00000000000E+00 0. -1.
        -12    1    4    4    0    0 -0.33739569673E+02 -0.62226933459E+02 -0.14294191018E+03  0.15950843080E+03  0.00000000000E+00 0.  1.
</event>
<event>
12    1  0.8494789E-002  0.1891190E+03  0.7818608E-02  0.1161544E+00
         21   -1    0    0  501  502  0.00000000000E+00  0.00000000000E+00  0.67622606311E+03  0.67622606311E+03  0.00000000000E+00 0.  1.
         21   -1    0    0  502  503 -0.00000000000E+00 -0.00000000000E+00 -0.56237969155E+02  0.56237969155E+02  0.00000000000E+00 0.  1.
         -6    2    1    2    0  503 -0.50815883521E+02 -0.16579652336E+02  0.19725883067E+03  0.27327102045E+03  0.18140800823E+03 0.  0.
        -24    2    3    3    0    0  0.11994103762E+02 -0.60395192730E+02  0.15706346360E+03  0.18665316076E+03  0.79868848714E+02 0.  0.
          6    2    1    2  501    0  0.50815883521E+02  0.16579652336E+02  0.42272926328E+03  0.45919301181E+03  0.17117550402E+03 0.  0.
         24    2    5    5    0    0  0.58876687390E+02  0.72228087965E+02  0.29597164944E+03  0.32044393033E+03  0.80010838032E+02 0.  0.
          5    1    5    5  501    0 -0.80608038693E+01 -0.55648435628E+02  0.12675761384E+03  0.13874908148E+03  0.47000000000E+01 0. -1.
        -13    1    6    6    0    0  0.24304431929E+02  0.17312228408E+02  0.21314654046E+03  0.21522515274E+03  0.00000000000E+00 0.  1.
         14    1    6    6    0    0  0.34572255462E+02  0.54915859557E+02  0.82825108980E+02  0.10521877758E+03  0.00000000000E+00 0. -1.
         -5    1    3    3    0  503 -0.62809987283E+02  0.43815540394E+02  0.40195367078E+02  0.86617859689E+02  0.47000000000E+01 0.  1.
         13    1    4    4    0    0 -0.94975732574E+01 -0.56096631723E+02  0.45203729423E+02  0.72666451284E+02  0.00000000000E+00 0. -1.
        -14    1    4    4    0    0  0.21491677020E+02 -0.42985610070E+01  0.11185973417E+03  0.11398670948E+03  0.00000000000E+00 0.  1.
</event>
<event>
12    1  0.8494789E-002  0.2441188E+03  0.7818608E-02  0.1117103E+00
         21   -1    0    0  503  502  0.00000000000E+00  0.00000000000E+00  0.67318383268E+03  0.67318383268E+03  0.00000000000E+00 0.  1.
         21   -1    0    0  501  503 -0.00000000000E+00 -0.00000000000E+00 -0.16920242907E+03  0.16920242907E+03  0.00000000000E+00 0. -1.
          6    2    1    2  501    0 -0.16569483757E+03  0.48859621305E+02 -0.38905626905E+02  0.24719960754E+03  0.17248755425E+03 0.  0.
         24    2    3    3    0    0 -0.75878626308E+02  0.48170907224E+02 -0.84225014886E+02  0.14648534311E+03  0.79284931609E+02 0.  0.
         -6    2    1    2    0  502  0.16569483757E+03 -0.48859621305E+02  0.54288703052E+03  0.59518665421E+03  0.17227531354E+03 0.  0.
        -24    2    5    5    0    0  0.51623725376E+02 -0.26841768421E+02  0.11526753721E+03  0.15204161527E+03  0.80278004994E+02 0.  0.
          5    1    3    3  501    0 -0.89816211261E+02  0.68871408024E+00  0.45319387981E+02  0.10071426443E+03  0.47000000000E+01 0. -1.
        -11    1    4    4    0    0 -0.19156876923E+02 -0.16853495115E+02 -0.44934951283E+02  0.51673746504E+02  0.00000000000E+00 0.  1.
         12    1    4    4    0    0 -0.56721749385E+02  0.65024402339E+02 -0.39290063603E+02  0.94811596605E+02  0.00000000000E+00 0. -1.
         -5    1    5    5    0  502  0.11407111219E+03 -0.22017852884E+02  0.42761949330E+03  0.44314503894E+03  0.47000000000E+01 0.  1.
         11    1    6    6    0    0 -0.30354911706E+01 -0.22168619105E+02  0.87961566135E+02  0.90762872346E+02  0.00000000000E+00 0. -1.
        -12    1    6    6    0    0  0.54659216546E+02 -0.46731493153E+01  0.27305971077E+02  0.61278742925E+02  0.00000000000E+00 0.  1.
</event>
<event>
12    1  0.8494789E-002  0.2635754E+03  0.7818608E-02  0.1105427E+00
         21   -1    0    0  501  502  0.00000000000E+00  0.00000000000E+00  0.11759279505E+03  0.11759279505E+03  0.00000000000E+00 0.  1.
         21   -1    0    0  502  503 -0.00000000000E+00 -0.00000000000E+00 -0.58794043566E+03  0.58794043566E+03  0.00000000000E+00 0. -1.
         -6    2    1    2    0  503  0.18380357351E+03 -0.70669370905E+02 -0.20969610072E+03  0.33681513475E+03  0.17519722235E+03 0.  0.
        -24    2    3    3    0    0  0.72900649034E+02 -0.32038624648E+02 -0.18560648438E+03  0.21683933373E+03  0.78921172772E+02 0.  0.
          6    2    1    2  501    0 -0.18380357351E+03  0.70669370905E+02 -0.26065153989E+03  0.36871809596E+03  0.17098507368E+03 0.  0.
         24    2    5    5    0    0 -0.83976910021E+02  0.92661194840E+02 -0.10183085538E+03  0.17978661925E+03  0.79470037805E+02 0.  0.
          5    1    5    5  501    0 -0.99826663488E+02 -0.21991823935E+02 -0.15882068451E+03  0.18893147671E+03  0.47000000000E+01 0. -1.
        -11    1    6    6    0    0  0.11308077709E+02  0.33856786501E+02 -0.18449469457E+02  0.40181308302E+02  0.00000000000E+00 0.  1.
         12    1    6    6    0    0 -0.95284987730E+02  0.58804408339E+02 -0.83381385925E+02  0.13960531095E+03  0.00000000000E+00 0. -1.
         -5    1    3    3    0  503  0.11090292448E+03 -0.38630746257E+02 -0.24089616345E+02  0.11997580102E+03  0.47000000000E+01 0.  1.
         13    1    4    4    0    0  0.78597658315E+02 -0.11683716318E+01 -0.11213276996E+03  0.13694055310E+03  0.00000000000E+00 0. -1.
        -14    1    4    4    0    0 -0.56970092807E+01 -0.30870253016E+02 -0.73473714417E+02  0.79898780630E+02  0.00000000000E+00 0.  1.
</event>
<event>
12    1  0.8494789E-002  0.1750796E+03  0.7818608E-02  0.1172849E+00
         21   -1    0    0  501  502  0.00000000000E+00  0.00000000000E+00  0.12057252096E+03  0.12057252096E+03  0.00000000000E+00 0.  1.
         21   -1    0    0  502  503 -0.00000000000E+00 -0.00000000000E+00 -0.35070654096E+03  0.35070654096E+03  0.00000000000E+00 0.  1.
         -6    2    1    2    0  503 -0.21312907478E+01 -0.24229631692E+02 -0.23957043306E+03  0.29672692278E+03  0.17338182388E+03 0.  0.
        -24    2    3    3    0    0  0.50023627424E+02  0.25178719601E+02 -0.16238391824E+03  0.19117518789E+03  0.83923085869E+02 0.  0.
          6    2    1    2  501    0  0.21312907478E+01  0.24229631692E+02  0.94364130674E+01  0.17455213914E+03  0.17259138430E+03 0.  0.
         24    2    5    5    0    0 -0.21511384791E+02  0.73435212818E+02 -0.20282299472E+02  0.11221870353E+03  0.79537384868E+02 0.  0.
          5    1    5    5  501    0  0.23642675539E+02 -0.49205581126E+02  0.29718712540E+02  0.62333435615E+02  0.47000000000E+01 0. -1.
        -13    1    6    6    0    0  0.14401407031E+02  0.70418977131E+02 -0.24491220056E+02  0.75934529197E+02  0.00000000000E+00 0.  1.
         14    1    6    6    0    0 -0.35912791822E+02  0.30162356876E+01  0.42089205838E+01  0.36284174328E+02  0.00000000000E+00 0. -1.
         -5    1    3    3    0  503 -0.52154918172E+02 -0.49408351293E+02 -0.77186514827E+02  0.10555173489E+03  0.47000000000E+01 0.  1.
         13    1    4    4    0    0 -0.20331427474E+02 -0.69593430833E+01 -0.53143702504E+02  0.57324100648E+02  0.00000000000E+00 0. -1.
        -14    1    4    4    0    0  0.70355054898E+02  0.32138062684E+02 -0.10924021573E+03  0.13385108724E+03  0.00000000000E+00 0.  1.
</event>
<event>
12    1  0.8494789E-002  0.2877317E+03  0.7818608E-02  0.1091649E+00
         21   -1    0    0  501  502  0.00000000000E+00  0.00000000000E+00  0.88122096488E+03  0.88122096488E+03  0.00000000000E+00 0.  1.
         21   -1    0    0  502  503 -0.00000000000E+00 -0.00000000000E+00 -0.11714441764E+03  0.11714441764E+03  0.00000000000E+00 0. -1.
         -6    2    1    2    0  503  0.22322087668E+03 -0.56547631126E+02  0.15906069748E+03  0.32877021727E+03  0.17252349380E+03 0.  0.
        -24    2    3    3    0    0  0.14195303117E+03 -0.14754691130E+02  0.17090576314E+03  0.23650154367E+03  0.79723499158E+02 0.  0.
          6    2    1    2  501    0 -0.22322087668E+03  0.56547631126E+02  0.60501584976E+03  0.66959516525E+03  0.17113828473E+03 0.  0.
         24    2    5    5    0    0 -0.11340870712E+03 -0.26017976335E+02  0.38903958050E+03  0.41358026138E+03  0.78475266617E+02 0.  0.
          5    1    5    5  501    0 -0.10981216956E+03  0.82565607461E+02  0.21597626926E+03  0.25601490387E+03  0.47000000000E+01 0. -1.
        -11    1    6    6    0    0 -0.41515499936E+02 -0.28428875905E+02  0.26877776592E+03  0.27344693301E+03  0.00000000000E+00 0.  1.
         12    1    6    6    0    0 -0.71893207182E+02  0.24108995691E+01  0.12026181458E+03  0.14013332837E+03  0.00000000000E+00 0. -1.
         -5    1    3    3    0  503  0.81267845508E+02 -0.41792939995E+02 -0.11845065662E+02  0.92268673598E+02  0.47000000000E+01 0.  1.
         11    1    4    4    0    0  0.90819628286E+02 -0.52835862166E+01  0.47589688700E+02  0.10266888348E+03  0.00000000000E+00 0. -1.
        -12    1    4    4    0    0  0.51133402882E+02 -0.94711049139E+01  0.12331607444E+03  0.13383266019E+03  0.00000000000E+00 0.  1.
</event>
<event>
12    1  0.8494789E-002  0.1877445E+03  0.7818608E-02  0.1160628E+00
         21   -1    0    0  503  502  0.00000000000E+00  0.00000000000E+00  0.69006878250E+02  0.69006878250E+02  0.00000000000E+00 0. -1.
         21   -1    0    0  501  503 -0.00000000000E+00 -0.00000000000E+00 -0.58350982306E+03  0.58350982306E+03  0.00000000000E+00 0. -1.
          6    2    1    2  501    0  0.72518439450E+02  0.16118670582E+02 -0.37321405796E+03  0.41754744789E+03  0.17186739823E+03 0.  0.
         24    2    3    3    0    0  0.65772371270E+02 -0.50468128378E+01 -0.38016170021E+03  0.39380198817E+03  0.78775709676E+02 0.  0.
         -6    2    1    2    0  502 -0.72518439450E+02 -0.16118670582E+02 -0.14128888685E+03  0.23496925343E+03  0.17242176460E+03 0.  0.
        -24    2    5    5    0    0 -0.37895787692E+01 -0.66233120704E+02 -0.65380440272E+02  0.12086712083E+03  0.77026435344E+02 0.  0.
          5    1    3    3  501    0  0.67460681803E+01  0.21165483420E+02  0.69476422508E+01  0.23745459716E+02  0.47000000000E+01 0. -1.
        -13    1    4    4    0    0  0.26357030460E+02 -0.88743434689E+01 -0.28154561100E+02  0.39574314111E+02  0.00000000000E+00 0.  1.
         14    1    4    4    0    0  0.39415340810E+02  0.38275306312E+01 -0.35200713911E+03  0.35422767406E+03  0.00000000000E+00 0. -1.
         -5    1    5    5    0  502 -0.68728860681E+02  0.50114450122E+02 -0.75908446579E+02  0.11410213260E+03  0.47000000000E+01 0.  1.
         11    1    6    6    0    0 -0.38867352871E+02 -0.32411695913E+02 -0.20440186625E+02  0.54580128073E+02  0.00000000000E+00 0. -1.
        -12    1    6    6    0    0  0.35077774102E+02 -0.33821424791E+02 -0.44940253647E+02  0.66286992756E+02  0.00000000000E+00 0.  1.
</event>
<event>
12    1  0.8494789E-002  0.1726654E+03  0.7818608E-02  0.1175259E+00
         21   -1    0    0  501  502  0.00000000000E+00  0.00000000000E+00  0.66134181394E+03  0.66134181394E+03  0.00000000000E+00 0.  1.
         21   -1    0    0  502  503 -0.00000000000E+00 -0.00000000000E+00 -0.87446699196E+02  0.87446699196E+02  0.00000000000E+00 0.  1.
         -6    2    1    2    0  503 -0.13628014565E+02 -0.14076515235E+02  0.26112765994E+02  0.17462883537E+03  0.17155023326E+03 0.  0.
        -24    2    3    3    0    0  0.46714347989E+02 -0.21920748777E+02 -0.21299069939E+02  0.97345558358E+02  0.79748089737E+02 0.  0.
          6    2    1    2  501    0  0.13628014565E+02  0.14076515235E+02  0.54778234875E+03  0.57415967777E+03  0.17090922419E+03 0.  0.
         24    2    5    5    0    0  0.23584822289E+02  0.93122499477E+01  0.12179345407E+03  0.14800188466E+03  0.80174500718E+02 0.  0.
          5    1    5    5  501    0 -0.99568077235E+01  0.47642652871E+01  0.42598889468E+03  0.42615779312E+03  0.47000000000E+01 0. -1.
        -11    1    6    6    0    0  0.14663385767E+02 -0.98505745841E+01  0.12533130625E+03  0.12657007951E+03  0.00000000000E+00 0.  1.
         12    1    6    6    0    0  0.89214365218E+01  0.19162824532E+02 -0.35378521772E+01  0.21431805143E+02  0.00000000000E+00 0. -1.
         -5    1    3    3    0  503 -0.60342362554E+02  0.78442335423E+01  0.47411835933E+02  0.77283277008E+02  0.47000000000E+01 0.  1.
         13    1    4    4    0    0  0.32710364304E+02 -0.77782307949E+01  0.28271367316E+02  0.43928794851E+02  0.00000000000E+00 0. -1.
        -14    1    4    4    0    0  0.14003983686E+02 -0.14142517982E+02 -0.49570437254E+02  0.53416763507E+02  0.00000000000E+00 0.  1.
</event>
<event>
12    1  0.8494789E-002  0.1862138E+03  0.7818608E-02  0.1161961E+00
         21   -1    0    0  503  502  0.00000000000E+00  0.00000000000E+00  0.37461629269E+02  0.37461629269E+02  0.00000000000E+00 0.  1.
         21   -1    0    0  501  503 -0.00000000000E+00 -0.00000000000E+00 -0.11197117945E+04  0.11197117945E+04  0.00000000000E+00 0. -1.
          6    2    1    2  501    0  0.64544850679E+02  0.28170124817E+02 -0.78233383414E+03  0.80415020713E+03  0.17219678829E+03 0.  0.
         24    2    3    3    0    0  0.73637647824E+02  0.17276086460E+01 -0.26368062873E+03  0.28472251908E+03  0.78191758498E+02 0.  0.
         -6    2    1    2    0  502 -0.64544850679E+02 -0.28170124817E+02 -0.29991633104E+03  0.35302321660E+03  0.17238327108E+03 0.  0.
        -24    2    5    5    0    0 -0.29339140047E+02 -0.25307305705E+01 -0.29686220460E+03  0.30911150647E+03  0.80966444734E+02 0.  0.
          5    1    3    3  501    0 -0.90927971445E+01  0.26442516171E+02 -0.51865320542E+03  0.51942768805E+03  0.47000000000E+01 0. -1.
        -13    1    4    4    0    0  0.25219195533E+02  0.26478608118E+02 -0.38616098117E+02  0.53182022761E+02  0.00000000000E+00 0.  1.
         14    1    4    4    0    0  0.48418452291E+02 -0.24750999472E+02 -0.22506453061E+03  0.23154049632E+03  0.00000000000E+00 0. -1.
         -5    1    5    5    0  502 -0.35205710633E+02 -0.25639394246E+02 -0.30541264431E+01  0.43911710133E+02  0.47000000000E+01 0.  1.
         13    1    6    6    0    0  0.21528759887E+02  0.20529907347E+02 -0.87043753011E+02  0.91986844365E+02  0.00000000000E+00 0. -1.
        -14    1    6    6    0    0 -0.50867899933E+02 -0.23060637917E+02 -0.20981845159E+03  0.21712466210E+03  0.00000000000E+00 0.  1.
</event>
<event>
12    1  0.8494789E-002  0.1965831E+03  0.7818608E-02  0.1152993E+00
         21   -1    0    0  501  502  0.00000000000E+00  0.00000000000E+00  0.19656759023E+03  0.19656759023E+03  0.00000000000E+00 0.  1.
         21   -1    0    0  502  503 -0.00000000000E+00 -0.00000000000E+00 -0.22583345156E+03  0.22583345156E+03  0.00000000000E+00 0. -1.
         -6    2    1    2    0  503 -0.93992583246E+02  0.46365347628E+01 -0.92671519157E+02  0.21733134910E+03  0.17259432691E+03 0.  0.
        -24    2    3    3    0    0 -0.56532383982E+02 -0.36815340848E+02 -0.11647301731E+03  0.15642054682E+03  0.79687790439E+02 0.  0.
          6    2    1    2  501    0  0.93992583246E+02 -0.46365347628E+01  0.63405657825E+02  0.20506969268E+03  0.17081334331E+03 0.  0.
         24    2    5    5    0    0  0.86833109751E+01  0.24298961924E+02  0.75990424725E+02  0.11399059924E+03  0.80953521389E+02 0.  0.
          5    1    5    5  501    0  0.85309272271E+02 -0.28935496687E+02 -0.12584766900E+02  0.91079093440E+02  0.47000000000E+01 0. -1.
        -11    1    6    6    0    0 -0.26823829934E+02  0.20208130421E+02  0.42659284133E+01  0.33853870277E+02  0.00000000000E+00 0.  1.
         12    1    6    6    0    0  0.35507140909E+02  0.40908315025E+01  0.71724496312E+02  0.80136728964E+02  0.00000000000E+00 0. -1.
         -5    1    3    3    0  503 -0.37460199264E+02  0.41451875610E+02  0.23801498154E+02  0.60910802284E+02  0.47000000000E+01 0.  1.
         13    1    4    4    0    0 -0.29890395536E+02 -0.51341075068E+02 -0.33790741009E+02  0.68345855122E+02  0.00000000000E+00 0. -1.
        -14    1    4    4    0    0 -0.26641988446E+02  0.14525734220E+02 -0.82682276301E+02  0.88074691696E+02  0.00000000000E+00 0.  1.
</event>
<event>
12    1  0.8494789E-002  0.2524846E+03  0.7818608E-02  0.1111789E+00
         21   -1    0    0  503  502  0.00000000000E+00  0.00000000000E+00  0.16417041207E+03  0.16417041207E+03  0.00000000000E+00 0. -1.
         21   -1    0    0  501  503 -0.00000000000E+00 -0.00000000000E+00 -0.49584552376E+03  0.49584552376E+03  0.00000000000E+00 0. -1.
          6    2    1    2  501    0 -0.16503278685E+03 -0.83173347734E+02 -0.31976207419E+03  0.40725042007E+03  0.17161437600E+03 0.  0.
         24    2    3    3    0    0 -0.42860399971E+02  0.13557271021E+02 -0.79063594160E+02  0.12047393392E+03  0.79006982919E+02 0.  0.
         -6    2    1    2    0  502  0.16503278685E+03  0.83173347734E+02 -0.11913037502E+02  0.25276551576E+03  0.17203156392E+03 0.  0.
        -24    2    5    5    0    0  0.12571767148E+03  0.12397814744E+03  0.74998770319E+00  0.19451474596E+03  0.81608271328E+02 0.  0.
          5    1    3    3  501    0 -0.12217238688E+03 -0.96730618756E+02 -0.24069848003E+03  0.28677648615E+03  0.47000000000E+01 0. -1.
        -11    1    4    4    0    0 -0.39884430825E+02  0.91661692068E+01 -0.95127490814E+02  0.10355687321E+03  0.00000000000E+00 0.  1.
         12    1    4    4    0    0 -0.29759691463E+01  0.43911018144E+01  0.16063896654E+02  0.16917060714E+02  0.00000000000E+00 0. -1.
         -5    1    5    5    0  502  0.39315115372E+02 -0.40804799702E+02 -0.12663025205E+02  0.58250769804E+02  0.47000000000E+01 0.  1.
         13    1    6    6    0    0  0.82554433052E+02  0.36365831877E+02 -0.24808206156E+02  0.93558298602E+02  0.00000000000E+00 0. -1.
        -14    1    6    6    0    0  0.43163238428E+02  0.87612315559E+02  0.25558193859E+02  0.10095644736E+03  0.00000000000E+00 0.  1.
</event>
<event>
12    1  0.8494789E-002  0.2572703E+03  0.7818608E-02  0.1109638E+00
         21   -1    0    0  503  502  0.00000000000E+00  0.00000000000E+00  0.37023928580E+03  0.37023928580E+03  0.00000000000E+00 0. -1.
         21   -1    0    0  501  503 -0.00000000000E+00 -0.00000000000E+00 -0.24644688050E+03  0.24644688050E+03  0.00000000000E+00 0.  1.
          6    2    1    2  501    0 -0.15337180687E+03  0.10118277125E+03 -0.10460640601E+03  0.27265997473E+03  0.17216299632E+03 0.  0.
         24    2    3    3    0    0 -0.11106542784E+03  0.11194877737E+03 -0.13038883763E+03  0.22174278338E+03  0.85443285217E+02 0.  0.
         -6    2    1    2    0  502  0.15337180687E+03 -0.10118277125E+03  0.22839881131E+03  0.34402619157E+03  0.18007537070E+03 0.  0.
        -24    2    5    5    0    0  0.13370138582E+03 -0.13346756510E+03  0.13855104604E+03  0.24643549374E+03  0.76448732569E+02 0.  0.
          5    1    3    3  501    0 -0.42306379034E+02 -0.10766006124E+02  0.25782431615E+02  0.50917191349E+02  0.47000000000E+01 0. -1.
        -13    1    4    4    0    0 -0.66848235141E+02  0.27155593123E+02 -0.96055715890E+02  0.12013664443E+03  0.00000000000E+00 0.  1.
         14    1    4    4    0    0 -0.44217192697E+02  0.84793184247E+02 -0.34333121735E+02  0.10160613895E+03  0.00000000000E+00 0. -1.
         -5    1    5    5    0  502  0.19670421051E+02  0.32284793849E+02  0.89847765273E+02  0.97590697829E+02  0.47000000000E+01 0.  1.
         13    1    6    6    0    0  0.24586478623E+02 -0.14648438499E+02  0.61133803178E+02  0.67501211637E+02  0.00000000000E+00 0. -1.
        -14    1    6    6    0    0  0.10911490720E+03 -0.11881912660E+03  0.77417242863E+02  0.17893428210E+03  0.00000000000E+00 0.  1.
</event>
<event>
12    1  0.8494789E-002  0.1799727E+03  0.7818608E-02  0.1167841E+00
         21   -1    0    0  501  502  0.00000000000E+00  0.00000000000E+00  0.72032026569E+03  0.72032026569E+03  0.00000000000E+00 0.  1.
         21   -1    0    0  502  503 -0.00000000000E+00 -0.00000000000E+00 -0.11688552809E+03  0.11688552809E+03  0.00000000000E+00 0. -1.
         -6    2    1    2    0  503 -0.27449403082E+01  0.50953792547E+02 -0.26681842558E+02  0.18189130639E+03  0.17253609172E+03 0.  0.
        -24    2    3    3    0    0 -0.44220555028E+02 -0.11369576174E+02  0.34495622403E+00  0.10216071779E+03  0.91389105019E+02 0.  0.
          6    2    1    2  501    0  0.27449403082E+01 -0.50953792547E+02  0.63011658016E+03  0.65531448739E+03  0.17258722179E+03 0.  0.
         24    2    5    5    0    0  0.30230000672E+02 -0.92807374556E+02  0.50516937246E+03  0.52062578860E+03  0.79549074005E+02 0.  0.
          5    1    5    5  501    0 -0.27485060364E+02  0.41853582009E+02  0.12494720769E+03  0.13468869879E+03  0.47000000000E+01 0. -1.
        -11    1    6    6    0    0  0.14601144612E+02 -0.43756955751E+02  0.79963062762E+02  0.92314440944E+02  0.00000000000E+00 0.  1.
         12    1    6    6    0    0  0.15628856060E+02 -0.49050418804E+02  0.42520630970E+03  0.42831134766E+03  0.00000000000E+00 0. -1.
         -5    1    3    3    0  503  0.41475614720E+02  0.62323368721E+02 -0.27026798782E+02  0.79730588594E+02  0.47000000000E+01 0.  1.
         11    1    4    4    0    0 -0.50325721687E+02  0.58363889073E+01 -0.35548751003E+02  0.61890672937E+02  0.00000000000E+00 0. -1.
        -12    1    4    4    0    0  0.61051666588E+01 -0.17205965081E+02  0.35893707227E+02  0.40270044857E+02  0.00000000000E+00 0.  1.
</event>
<event>
12    1  0.8494789E-002  0.1950945E+03  0.7818608E-02  0.1154346E+00
         21   -1    0    0  501  502  0.00000000000E+00  0.00000000000E+00  0.20469203504E+02  0.20469203504E+02  0.00000000000E+00 0. -1.
         21   -1    0    0  502  503 -0.00000000000E+00 -0.00000000000E+00 -0.29864987123E+04  0.29864987123E+04  0.00000000000E+00 0. -1.
         -6    2    1    2    0  503 -0.55353416168E+02  0.68679329777E+02 -0.24094057555E+04  0.24171443205E+04  0.17195848452E+03 0.  0.
        -24    2    3    3    0    0 -0.67732835352E+02  0.11496234383E+02 -0.83696966743E+03  0.84361310139E+03  0.80280385161E+02 0.  0.
          6    2    1    2  501    0  0.55353416168E+02 -0.68679329777E+02 -0.55662375333E+03  0.58982359535E+03  0.17401442424E+03 0.  0.
         24    2    5    5    0    0  0.72069049224E+02 -0.88454425199E+02 -0.54155459725E+03  0.55949809037E+03  0.82088964749E+02 0.  0.
          5    1    5    5  501    0 -0.16715633056E+02  0.19775095421E+02 -0.15069156079E+02  0.30325504980E+02  0.47000000000E+01 0. -1.
        -11    1    6    6    0    0  0.58974122335E+02 -0.76996997886E+02 -0.26154670493E+03  0.27895010960E+03  0.00000000000E+00 0.  1.
         12    1    6    6    0    0  0.13094926889E+02 -0.11457427312E+02 -0.28000789232E+03  0.28054798077E+03  0.00000000000E+00 0. -1.
         -5    1    3    3    0  503  0.12379419184E+02  0.57183095395E+02 -0.15724360880E+04  0.15735312191E+04  0.47000000000E+01 0.  1.
         11    1    4    4    0    0  0.21121333617E+00 -0.20796547028E+02 -0.71717906464E+02  0.74672612697E+02  0.00000000000E+00 0. -1.
        -12    1    4    4    0    0 -0.67944048688E+02  0.32292781411E+02 -0.76525176097E+03  0.76894048869E+03  0.00000000000E+00 0.  1.
</event>
<event>
12    1  0.8494789E-002  0.2294135E+03  0.7818608E-02  0.1127346E+00
         21   -1    0    0  501  502  0.00000000000E+00  0.00000000000E+00  0.26336464331E+03  0.26336464331E+03  0.00000000000E+00 0.  1.
         21   -1    0    0  502  503 -0.00000000000E+00 -0.00000000000E+00 -0.20055936007E+03  0.20055936007E+03  0.00000000000E+00 0.  1.
         -6    2    1    2    0  503  0.52556187810E+00  0.14953819594E+03  0.55562118001E+02  0.23604594475E+03  0.17397870794E+03 0.  0.
        -24    2    3    3    0    0 -0.27082605070E+01  0.12193356759E+03  0.10425699629E+03  0.17978090867E+03  0.81095772190E+02 0.  0.
          6    2    1    2  501    0 -0.52556187810E+00 -0.14953819594E+03  0.72431652441E+01  0.22787805862E+03  0.17179638500E+03 0.  0.
         24    2    5    5    0    0 -0.31377220904E+01  0.11353580889E+01  0.18998336420E+01  0.77013932810E+02  0.76918152221E+02 0.  0.
          5    1    5    5  501    0  0.26121602123E+01 -0.15067355403E+03  0.53433316021E+01  0.15086412581E+03  0.47000000000E+01 0. -1.
        -11    1    6    6    0    0  0.46351803621E+01  0.99081175788E+01  0.37746586789E+02  0.39299624746E+02  0.00000000000E+00 0.  1.
         12    1    6    6    0    0 -0.77729024526E+01 -0.87727594899E+01 -0.35846753147E+02  0.37714308065E+02  0.00000000000E+00 0. -1.
         -5    1    3    3    0  503  0.32338223851E+01  0.27604628349E+02 -0.48694878288E+02  0.56265036079E+02  0.47000000000E+01 0.  1.
         13    1    4    4    0    0 -0.21896547082E+02  0.73725269214E+02  0.17787424545E+02  0.78938371954E+02  0.00000000000E+00 0. -1.
        -14    1    4    4    0    0  0.19188286575E+02  0.48208298378E+02  0.86469571745E+02  0.10084253672E+03  0.00000000000E+00 0.  1.
</event>
<event>
12    1  0.8494789E-002  0.1896508E+03  0.7818608E-02  0.1158831E+00
         21   -1    0    0  503  502  0.00000000000E+00  0.00000000000E+00  0.18738047315E+03  0.18738047315E+03  0.00000000000E+00 0.  1.
         21   -1    0    0  501  503 -0.00000000000E+00 -0.00000000000E+00 -0.60068044102E+03  0.60068044102E+03  0.00000000000E+00 0.  1.
          6    2    1    2  501    0 -0.79376610585E+02 -0.10143076834E+02 -0.53182238037E+03  0.56462595915E+03  0.17194156324E+03 0.  0.
         24    2    3    3    0    0 -0.13605043800E+02  0.20898732767E+02 -0.43627859621E+03  0.44445858574E+03  0.81133018441E+02 0.  0.
         -6    2    1    2    0  502  0.79376610585E+02  0.10143076834E+02  0.11852241251E+03  0.22343495502E+03  0.17167436774E+03 0.  0.
        -24    2    5    5    0    0  0.74968904888E+02  0.53976292700E+02  0.31659004294E+02  0.12592536385E+03  0.79505520775E+02 0.  0.
          5    1    3    3  501    0 -0.65771566785E+02 -0.31041809601E+02 -0.95543784161E+02  0.12016737341E+03  0.47000000000E+01 0. -1.
        -11    1    4    4    0    0 -0.41994393971E+02  0.31650196178E+02 -0.22841766956E+03  0.23439261040E+03  0.00000000000E+00 0.  1.
         12    1    4    4    0    0  0.28389350171E+02 -0.10751463412E+02 -0.20786092665E+03  0.21006597535E+03  0.00000000000E+00 0. -1.
         -5    1    5    5    0  502  0.44077056967E+01 -0.43833215866E+02  0.86863408217E+02  0.97509591167E+02  0.47000000000E+01 0.  1.
         13    1    6    6    0    0 -0.61253140680E+01  0.32665400584E+02  0.25428005215E+02  0.41846520966E+02  0.00000000000E+00 0. -1.
        -14    1    6    6    0    0  0.81094218956E+02  0.21310892116E+02  0.62309990787E+01  0.84078842882E+02  0.00000000000E+00 0.  1.
</event>
<event>
12    1  0.8494789E-002  0.2898309E+03  0.7818608E-02  0.1091305E+00
         21   -1    0    0  503  502  0.00000000000E+00  0.00000000000E+00  0.18463559111E+03  0.18463559111E+03  0.00000000000E+00 0.  1.
         21   -1    0    0  501  503 -0.00000000000E+00 -0.00000000000E+00 -0.12654847093E+04  0.12654847093E+04  0.00000000000E+00 0. -1.
          6    2    1    2  501    0  0.66207671215E+02 -0.21936549078E+03 -0.11221582288E+04  0.11573603244E+04  0.16655076070E+03 0.  0.
         24    2    3    3    0    0 -0.45784225240E+01 -0.18079371499E+03 -0.89187514929E+03  0.91332991721E+03  0.77607515141E+02 0.  0.
         -6    2    1    2    0  502 -0.66207671215E+02  0.21936549078E+03  0.41309110568E+02  0.29275997600E+03  0.17747474937E+03 0.  0.
        -24    2    5    5    0    0 -0.34490350090E+02  0.11948232305E+03  0.93699221049E+02  0.17550193009E+03  0.80967732282E+02 0.  0.
          5    1    3    3  501    0  0.70786093739E+02 -0.38571775784E+02 -0.23028307948E+03  0.24403040722E+03  0.47000000000E+01 0. -1.
        -11    1    4    4    0    0 -0.68669859249E+01 -0.66628267099E+02 -0.52061293952E+03  0.52490410007E+03  0.00000000000E+00 0.  1.
         12    1    4    4    0    0  0.22885634009E+01 -0.11416544789E+03 -0.37126220977E+03  0.38842581714E+03  0.00000000000E+00 0. -1.
         -5    1    5    5    0  502 -0.31717321125E+02  0.99883167728E+02 -0.52390110481E+02  0.11725804591E+03  0.47000000000E+01 0.  1.
         13    1    6    6    0    0 -0.33399825414E+02  0.15228264180E+02  0.21797044400E+01  0.36772265079E+02  0.00000000000E+00 0. -1.
        -14    1    6    6    0    0 -0.10905246762E+01  0.10425405887E+03  0.91519516609E+02  0.13872966501E+03  0.00000000000E+00 0.  1.
</event>
<event>
12    1  0.8494789E-002  0.1888765E+03  0.7818608E-02  0.1159898E+00
         21   -1    0    0  501  502  0.00000000000E+00  0.00000000000E+00  0.58840040638E+03  0.58840040638E+03  0.00000000000E+00 0. -1.
         21   -1    0    0  502  503 -0.00000000000E+00 -0.00000000000E+00 -0.17089279137E+03  0.17089279137E+03  0.00000000000E+00 0. -1.
         -6    2    1    2    0  503  0.38211161510E+02 -0.64845903535E+02 -0.96651635871E+02  0.21216940212E+03  0.17323173038E+03 0.  0.
        -24    2    3    3    0    0 -0.62697096243E+01  0.26121580487E+02 -0.64181308603E+02  0.10572672647E+03  0.79606872135E+02 0.  0.
          6    2    1    2  501    0 -0.38211161510E+02  0.64845903535E+02  0.51415925089E+03  0.54712379563E+03  0.17122975325E+03 0.  0.
         24    2    5    5    0    0 -0.51927010190E+02  0.54394550742E+02  0.16933717606E+03  0.20183882844E+03  0.80054056305E+02 0.  0.
          5    1    5    5  501    0  0.13715848680E+02  0.10451352793E+02  0.34482207482E+03  0.34528496719E+03  0.47000000000E+01 0. -1.
        -11    1    6    6    0    0 -0.15483987053E+02  0.43184084927E+02  0.15409120056E+03  0.16077536234E+03  0.00000000000E+00 0.  1.
         12    1    6    6    0    0 -0.36443023136E+02  0.11210465815E+02  0.15245975508E+02  0.41063466102E+02  0.00000000000E+00 0. -1.
         -5    1    3    3    0  503  0.44480871134E+02 -0.90967484022E+02 -0.32470327268E+02  0.10644267565E+03  0.47000000000E+01 0.  1.
         13    1    4    4    0    0  0.21208424569E+02 -0.17297180711E+02 -0.41145747157E+02  0.49416214367E+02  0.00000000000E+00 0. -1.
        -14    1    4    4    0    0 -0.27478134194E+02  0.43418761198E+02 -0.23035561447E+02  0.56310512108E+02  0.00000000000E+00 0.  1.
</event>
<event>
12    1  0.8494789E-002  0.3293665E+03  0.7818608E-02  0.1072271E+00
         21   -1    0    0  501  502  0.00000000000E+00  0.00000000000E+00  0.29774244540E+03  0.29774244540E+03  0.00000000000E+00 0. -1.
         21   -1    0    0  502  503 -0.00000000000E+00 -0.00000000000E+00 -0.59976165325E+03  0.59976165325E+03  0.00000000000E+00 0.  1.
         -6    2    1    2    0  503 -0.21610619604E+03 -0.17884057773E+03 -0.43813796593E+03  0.54813060905E+03  0.17261647423E+03 0.  0.
        -24    2    3    3    0    0 -0.23765122478E+03 -0.17562675234E+03 -0.42147231714E+03  0.52030344988E+03  0.75854499328E+02 0.  0.
          6    2    1    2  501    0  0.21610619604E+03  0.17884057773E+03  0.13611875809E+03  0.34937348960E+03  0.15763146489E+03 0.  0.
         24    2    5    5    0    0  0.40524306097E+02  0.60288304119E+02  0.61850350501E+02  0.12482610481E+03  0.80493425729E+02 0.  0.
          5    1    5    5  501    0  0.17558188994E+03  0.11855227361E+03  0.74268407587E+02  0.22454738480E+03  0.47000000000E+01 0. -1.
        -11    1    6    6    0    0  0.47147188840E+02  0.16528652668E+01  0.40168768292E+02  0.61960627217E+02  0.00000000000E+00 0.  1.
         12    1    6    6    0    0 -0.66228827431E+01  0.58635438853E+02  0.21681582209E+02  0.62865477588E+02  0.00000000000E+00 0. -1.
         -5    1    3    3    0  503  0.21545028749E+02 -0.32138253953E+01 -0.16665648793E+02  0.27827159164E+02  0.47000000000E+01 0.  1.
         13    1    4    4    0    0 -0.65615512287E+02 -0.10874144323E+02 -0.81650482935E+02  0.10531117619E+03  0.00000000000E+00 0. -1.
        -14    1    4    4    0    0 -0.17203571250E+03 -0.16475260801E+03 -0.33982183421E+03  0.41499227369E+03  0.00000000000E+00 0.  1.
</event>
<event>
12    1  0.8494789E-002  0.2469054E+03  0.7818608E-02  0.1116287E+00
         21   -1    0    0  501  502  0.00000000000E+00  0.00000000000E+00  0.14657215930E+03  0.14657215930E+03  0.00000000000E+00 0.  1.
         21   -1    0    0  502  503 -0.00000000000E+00 -0.00000000000E+00 -0.41373001082E+03  0.41373001082E+03  0.00000000000E+00 0.  1.
         -6    2    1    2    0  503  0.18191425063E+02 -0.17003423598E+03 -0.92465371263E+02  0.25784598787E+03  0.16938754154E+03 0.  0.
        -24    2    3    3    0    0  0.39527129653E+02 -0.14809073243E+03 -0.12582198358E+03  0.21233243798E+03  0.75898838319E+02 0.  0.
          6    2    1    2  501    0 -0.18191425063E+02  0.17003423598E+03 -0.17469248026E+03  0.30245618224E+03  0.17810028120E+03 0.  0.
         24    2    5    5    0    0 -0.94299855362E+01  0.16219661681E+03 -0.74702266279E+02  0.20166767105E+03  0.93234938875E+02 0.  0.
          5    1    5    5  501    0 -0.87614395266E+01  0.78376191755E+01 -0.99990213979E+02  0.10078851119E+03  0.47000000000E+01 0. -1.
        -13    1    6    6    0    0  0.44278682081E+01  0.11952251875E+03 -0.61817015574E+01  0.11976415131E+03  0.00000000000E+00 0.  1.
         14    1    6    6    0    0 -0.13857853744E+02  0.42674098060E+02 -0.68520564721E+02  0.81903519737E+02  0.00000000000E+00 0. -1.
         -5    1    3    3    0  503 -0.21335704591E+02 -0.21943503556E+02  0.33356612315E+02  0.45513549893E+02  0.47000000000E+01 0.  1.
         11    1    4    4    0    0  0.41924362232E+02 -0.27820952761E+02 -0.44088694959E+02  0.66898958021E+02  0.00000000000E+00 0. -1.
        -12    1    4    4    0    0 -0.23972325785E+01 -0.12026977967E+03 -0.81733288619E+02  0.14543347996E+03  0.00000000000E+00 0.  1.
</event>
<event>
12    1  0.8494789E-002  0.2085683E+03  0.7818608E-02  0.1142882E+00
         21   -1    0    0  503  502  0.00000000000E+00  0.00000000000E+00  0.39971715885E+02  0.39971715885E+02  0.00000000000E+00 0.  1.
         21   -1    0    0  501  503 -0.00000000000E+00 -0.00000000000E+00 -0.14014210836E+04  0.14014210836E+04  0.00000000000E+00 0.  1.
          6    2    1    2  501    0 -0.51457061616E+02 -0.10584493597E+03 -0.10250159529E+04  0.10460202815E+04  0.17219101600E+03 0.  0.
         24    2    3    3    0    0 -0.65656661772E+02 -0.13670433675E+03 -0.77204026289E+03  0.79073079682E+03  0.78804521423E+02 0.  0.
         -6    2    1    2    0  502  0.51457061616E+02  0.10584493597E+03 -0.33643341483E+03  0.39537251798E+03  0.17111693575E+03 0.  0.
        -24    2    5    5    0    0 -0.27912857984E+02  0.93925891242E+02 -0.21797465783E+03  0.25220752619E+03  0.80588362211E+02 0.  0.
          5    1    3    3  501    0  0.14199600156E+02  0.30859400781E+02 -0.25297569004E+03  0.25528948473E+03  0.47000000000E+01 0. -1.
        -11    1    4    4    0    0 -0.41070506280E+02 -0.69732929945E+02 -0.58455962810E+03  0.59013509200E+03  0.00000000000E+00 0.  1.
         12    1    4    4    0    0 -0.24586155493E+02 -0.66971406809E+02 -0.18748063479E+03  0.20059570482E+03  0.00000000000E+00 0. -1.
         -5    1    5    5    0  502  0.79369919600E+02  0.11919044730E+02 -0.11845875700E+03  0.14316499179E+03  0.47000000000E+01 0.  1.
         11    1    6    6    0    0  0.12421693177E+02 -0.33629498525E+01 -0.36058252315E+01  0.13364500315E+02  0.00000000000E+00 0. -1.
        -12    1    6    6    0    0 -0.40334551161E+02  0.97288841094E+02 -0.21436883260E+03  0.23884302587E+03  0.00000000000E+00 0.  1.
</event>
<event>
12    1  0.8494789E-002  0.2802956E+03  0.7818608E-02  0.1095591E+00
         21   -1    0    0  503  502  0.00000000000E+00  0.00000000000E+00  0.15945222602E+03  0.15945222602E+03  0.00000000000E+00 0. -1.
         21   -1    0    0  501  503 -0.00000000000E+00 -0.00000000000E+00 -0.70447180837E+03  0.70447180837E+03  0.00000000000E+00 0. -1.
          6    2    1    2  501    0 -0.21564607785E+03 -0.49866694507E+02 -0.50963371415E+03  0.58140365808E+03  0.17121265407E+03 0.  0.
         24    2    3    3    0    0 -0.37860451155E+02 -0.10967693517E+02 -0.24040343236E+03  0.25639920277E+03  0.79956468320E+02 0.  0.
         -6    2    1    2    0  502  0.21564607785E+03  0.49866694507E+02 -0.35385868201E+02  0.28252037632E+03  0.17197582752E+03 0.  0.
        -24    2    5    5    0    0  0.72711521180E+02  0.68379594972E+02 -0.51185352699E+02  0.13745236232E+03  0.79438512418E+02 0.  0.
          5    1    3    3  501    0 -0.17778562670E+03 -0.38899000991E+02 -0.26923028179E+03  0.32500445531E+03  0.47000000000E+01 0. -1.
        -13    1    4    4    0    0  0.10842523219E+02  0.19862387138E+02 -0.26410507600E+02  0.34779155313E+02  0.00000000000E+00 0.  1.
         14    1    4    4    0    0 -0.48702974374E+02 -0.30830080655E+02 -0.21399292476E+03  0.22162004745E+03  0.00000000000E+00 0. -1.
         -5    1    5    5    0  502  0.14293455667E+03 -0.18512900465E+02  0.15799484498E+02  0.14506801400E+03  0.47000000000E+01 0.  1.
         11    1    6    6    0    0  0.87806241368E+02  0.42396243887E+02 -0.39890919335E+02  0.10535019205E+03  0.00000000000E+00 0. -1.
        -12    1    6    6    0    0 -0.15094720188E+02  0.25983351085E+02 -0.11294433364E+02  0.32102170272E+02  0.00000000000E+00 0.  1.
</event>
<event>
12    1  0.8494789E-002  0.1775037E+03  0.7818608E-02  0.1170772E+00
         21   -1    0    0  501  502  0.00000000000E+00  0.00000000000E+00  0.32344224491E+02  0.32344224491E+02  0.00000000000E+00 0. -1.
         21   -1    0    0  502  503 -0.00000000000E+00 -0.00000000000E+00 -0.97384612488E+03  0.97384612488E+03  0.00000000000E+00 0. -1.
         -6    2    1    2    0  503  0.33723168756E+01 -0.34858648859E+02 -0.52805541040E+03  0.55709071962E+03  0.17401452674E+03 0.  0.
        -24    2    3    3    0    0 -0.26587292463E+02 -0.20910014143E+02 -0.51355086821E+03  0.52069546793E+03  0.79026345391E+02 0.  0.
          6    2    1    2  501    0 -0.33723168756E+01  0.34858648859E+02 -0.41344648999E+03  0.44909962975E+03  0.17183125279E+03 0.  0.
         24    2    5    5    0    0 -0.25428554974E+02 -0.29531369862E+00 -0.10873399432E+03  0.14153813388E+03  0.86967023656E+02 0.  0.
          5    1    5    5  501    0  0.22056238098E+02  0.35153962558E+02 -0.30471249567E+03  0.30756149587E+03  0.47000000000E+01 0. -1.
        -13    1    6    6    0    0 -0.10085321592E+02 -0.27730271229E+02 -0.10594881731E+03  0.10998105993E+03  0.00000000000E+00 0.  1.
         14    1    6    6    0    0 -0.15343233382E+02  0.27434957530E+02 -0.27851770085E+01  0.31557073949E+02  0.00000000000E+00 0. -1.
         -5    1    3    3    0  503  0.29959609338E+02 -0.13948634716E+02 -0.14504542191E+02  0.36395251700E+02  0.47000000000E+01 0.  1.
         11    1    4    4    0    0  0.16423414802E+02 -0.34824634153E+02 -0.17825214006E+03  0.18236312438E+03  0.00000000000E+00 0. -1.
        -12    1    4    4    0    0 -0.43010707265E+02  0.13914620009E+02 -0.33529872815E+03  0.33833234354E+03  0.00000000000E+00 0.  1.
</event>
<event>
12    1  0.8494789E-002  0.2162540E+03  0.7818608E-02  0.1136761E+00
         21   -1    0    0  503  502  0.00000000000E+00  0.00000000000E+00  0.82700334993E+03  0.82700334993E+03  0.00000000000E+00 0. -1.
         21   -1    0    0  501  503 -0.00000000000E+00 -0.00000000000E+00 -0.12245717394E+03  0.12245717394E+03  0.00000000000E+00 0.  1.
          6    2    1    2  501    0  0.11733666507E+03  0.57419448479E+02  0.36927429880E+01  0.21600204317E+03  0.17198360466E+03 0.  0.
         24    2    3    3    0    0  0.70450465783E+02  0.33185806772E+02 -0.61839290980E+02  0.13172795137E+03  0.86392067702E+02 0.  0.
         -6    2    1    2    0  502 -0.11733666507E+03 -0.57419448479E+02  0.70085343300E+03  0.73345848070E+03  0.17233955529E+03 0.  0.
        -24    2    5    5    0    0 -0.11474135584E+03 -0.78853135436E+02  0.69091489020E+03  0.70923033179E+03  0.79125737372E+02 0.  0.
          5    1    3    3  501    0  0.46886199290E+02  0.24233641706E+02  0.65532033968E+02  0.84274091809E+02  0.47000000000E+01 0. -1.
        -13    1    4    4    0    0  0.81129290112E+02  0.37580721467E+02 -0.24591093513E+02  0.92730761995E+02  0.00000000000E+00 0.  1.
         14    1    4    4    0    0 -0.10678824329E+02 -0.43949146949E+01 -0.37248197467E+02  0.38997189370E+02  0.00000000000E+00 0. -1.
         -5    1    5    5    0  502 -0.25953092366E+01  0.21433686958E+02  0.99385428016E+01  0.24228148911E+02  0.47000000000E+01 0.  1.
         13    1    6    6    0    0 -0.56308901921E+02 -0.31857761578E+02  0.15303242352E+03  0.16614611658E+03  0.00000000000E+00 0. -1.
        -14    1    6    6    0    0 -0.58432453916E+02 -0.46995373858E+02  0.53788246668E+03  0.54308421520E+03  0.00000000000E+00 0.  1.
</event>
<event>
12    1  0.8494789E-002  0.2130908E+03  0.7818608E-02  0.1139163E+00
         21   -1    0    0  501  502  0.00000000000E+00  0.00000000000E+00  0.66100696085E+02  0.66100696085E+02  0.00000000000E+00 0.  1.
         21   -1    0    0  502  503 -0.00000000000E+00 -0.00000000000E+00 -0.72560064268E+03  0.72560064268E+03  0.00000000000E+00 0. -1.
         -6    2    1    2    0  503 -0.12409099950E+03  0.10355527451E+02 -0.42144786966E+03  0.47220721505E+03  0.17278754005E+03 0.  0.
        -24    2    3    3    0    0 -0.11487670584E+03 -0.53616949578E+02 -0.28104631258E+03  0.31757194011E+03  0.76114863884E+02 0.  0.
          6    2    1    2  501    0  0.12409099950E+03 -0.10355527451E+02 -0.23805207693E+03  0.31949412371E+03  0.17292163153E+03 0.  0.
         24    2    5    5    0    0  0.77872713464E+02  0.37405512487E+02 -0.64777228839E+02  0.13385062159E+03  0.79098468105E+02 0.  0.
          5    1    5    5  501    0  0.46218286036E+02 -0.47761039938E+02 -0.17327484809E+03  0.18564350213E+03  0.47000000000E+01 0. -1.
        -11    1    6    6    0    0  0.66718591967E+02 -0.10848078098E+02 -0.36468802621E+02  0.76805109707E+02  0.00000000000E+00 0.  1.
         12    1    6    6    0    0  0.11154121498E+02  0.48253590585E+02 -0.28308426218E+02  0.57045511880E+02  0.00000000000E+00 0. -1.
         -5    1    3    3    0  503 -0.92142936642E+01  0.63972477029E+02 -0.14040155708E+03  0.15463527494E+03  0.47000000000E+01 0.  1.
         11    1    4    4    0    0 -0.15296576580E+02 -0.19209436825E+02 -0.13657327795E+03  0.13876328033E+03  0.00000000000E+00 0. -1.
        -12    1    4    4    0    0 -0.99580129256E+02 -0.34407512754E+02 -0.14447303463E+03  0.17880865978E+03  0.00000000000E+00 0.  1.
</event>
<event>
12    1  0.8494789E-002  0.2153333E+03  0.7818608E-02  0.1137630E+00
         21   -1    0    0  503  502  0.00000000000E+00  0.00000000000E+00  0.16846717242E+03  0.16846717242E+03  0.00000000000E+00 0. -1.
         21   -1    0    0  501  503 -0.00000000000E+00 -0.00000000000E+00 -0.13125158273E+04  0.13125158273E+04  0.00000000000E+00 0.  1.
          6    2    1    2  501    0  0.74741617085E+02 -0.10370917672E+03 -0.12304562983E+04  0.12489598829E+04  0.17186094448E+03 0.  0.
         24    2    3    3    0    0  0.12669315159E+02 -0.11540253620E+03 -0.10047587602E+04  0.10145432152E+04  0.79243375527E+02 0.  0.
         -6    2    1    2    0  502 -0.74741617085E+02  0.10370917672E+03  0.86407643421E+02  0.23202311689E+03  0.17328168764E+03 0.  0.
        -24    2    5    5    0    0 -0.10291010238E+03  0.32892504815E+02  0.32696891902E+02  0.13866681334E+03  0.80541866982E+02 0.  0.
          5    1    3    3  501    0  0.62072301926E+02  0.11693359479E+02 -0.22569753816E+03  0.23441666761E+03  0.47000000000E+01 0. -1.
        -13    1    4    4    0    0 -0.19661117348E+02 -0.20418035363E+02 -0.91517230572E+02  0.95806363019E+02  0.00000000000E+00 0.  1.
         14    1    4    4    0    0  0.32330432507E+02 -0.94984500840E+02 -0.91324152959E+03  0.91873685222E+03  0.00000000000E+00 0. -1.
         -5    1    5    5    0  502  0.28168485297E+02  0.70816671910E+02  0.53710751519E+02  0.93356303553E+02  0.47000000000E+01 0.  1.
         11    1    6    6    0    0 -0.64797925690E+02  0.58085579499E+02  0.32751828690E+02  0.92980578628E+02  0.00000000000E+00 0. -1.
        -12    1    6    6    0    0 -0.38112176693E+02 -0.25193074684E+02 -0.54936787769E-01  0.45686234714E+02  0.00000000000E+00 0.  1.
</event>
<event>
12    1  0.8494789E-002  0.2200361E+03  0.7818608E-02  0.1134747E+00
         21   -1    0    0  503  502  0.00000000000E+00  0.00000000000E+00  0.46038670475E+03  0.46038670475E+03  0.00000000000E+00 0. -1.
         21   -1    0    0  501  503 -0.00000000000E+00 -0.00000000000E+00 -0.19592155356E+03  0.19592155356E+03  0.00000000000E+00 0. -1.
          6    2    1    2  501    0 -0.38901488946E+00  0.13631055034E+03 -0.93100194459E+02  0.23892163056E+03  0.17272863652E+03 0.  0.
         24    2    3    3    0    0 -0.64048223223E+02  0.83297547649E+02 -0.31192580812E+02  0.13539619461E+03  0.79488968262E+02 0.  0.
         -6    2    1    2    0  502  0.38901488946E+00 -0.13631055034E+03  0.35756534565E+03  0.41738662775E+03  0.16666704277E+03 0.  0.
        -24    2    5    5    0    0 -0.22161790797E+02 -0.80949396896E+02  0.33309699057E+03  0.35262408805E+03  0.79662993413E+02 0.  0.
          5    1    3    3  501    0  0.63659208334E+02  0.53013002690E+02 -0.61907613647E+02  0.10352543594E+03  0.47000000000E+01 0. -1.
        -11    1    4    4    0    0 -0.65766672545E+02  0.76937256185E+02 -0.51843012587E+02  0.11372024693E+03  0.00000000000E+00 0.  1.
         12    1    4    4    0    0  0.17184493216E+01  0.63602914637E+01  0.20650431775E+02  0.21675947686E+02  0.00000000000E+00 0. -1.
         -5    1    5    5    0  502  0.22550805686E+02 -0.55361153443E+02  0.24468355082E+02  0.64762539697E+02  0.47000000000E+01 0.  1.
         11    1    6    6    0    0  0.13609300994E+02 -0.68396726450E+02  0.27135255575E+03  0.28017054587E+03  0.00000000000E+00 0. -1.
        -12    1    6    6    0    0 -0.35771091790E+02 -0.12552670446E+02  0.61744434815E+02  0.72453542176E+02  0.00000000000E+00 0.  1.
</event>
<event>
12    1  0.8494789E-002  0.1870487E+03  0.7818608E-02  0.1161274E+00
         21   -1    0    0  503  502  0.00000000000E+00  0.00000000000E+00  0.18098423977E+03  0.18098423977E+03  0.00000000000E+00 0.  1.
         21   -1    0    0  501  503 -0.00000000000E+00 -0.00000000000E+00 -0.21893452400E+03  0.21893452400E+03  0.00000000000E+00 0.  1.
          6    2    1    2  501    0 -0.48211574992E+02  0.54155169065E+02  0.50184463742E+02  0.19314604127E+03  0.17184229560E+03 0.  0.
         24    2    3    3    0    0 -0.57228746858E+02  0.10780572516E+02  0.89846929232E+02  0.13349818981E+03  0.79736727925E+02 0.  0.
         -6    2    1    2    0  502  0.48211574992E+02 -0.54155169065E+02 -0.88134747965E+02  0.20677272251E+03  0.17242414760E+03 0.  0.
        -24    2    5    5    0    0  0.46899930106E+02 -0.90925343136E+02 -0.10207383008E+03  0.16714755218E+03  0.83977472830E+02 0.  0.
          5    1    3    3  501    0  0.90171718661E+01  0.43374596549E+02 -0.39662465490E+02  0.59647851453E+02  0.47000000000E+01 0. -1.
        -13    1    4    4    0    0 -0.45781127103E+02  0.92687288599E+00  0.35924705980E+01  0.45931215281E+02  0.00000000000E+00 0.  1.
         14    1    4    4    0    0 -0.11447619755E+02  0.98536996299E+01  0.86254458634E+02  0.87566974532E+02  0.00000000000E+00 0. -1.
         -5    1    5    5    0  502  0.13116448857E+01  0.36770174071E+02  0.13939082116E+02  0.39625170331E+02  0.47000000000E+01 0.  1.
         13    1    6    6    0    0 -0.21893120633E+02 -0.10971363190E+02 -0.78530422821E+01  0.25716722466E+02  0.00000000000E+00 0. -1.
        -14    1    6    6    0    0  0.68793050739E+02 -0.79953979945E+02 -0.94220787799E+02  0.14143082971E+03  0.00000000000E+00 0.  1.
</event>
<event>
12    1  0.8494789E-002  0.1768001E+03  0.7818608E-02  0.1172046E+00
         21   -1    0    0  503  502  0.00000000000E+00  0.00000000000E+00  0.19052810467E+04  0.19052810467E+04  0.00000000000E+00 0.  1.
         21   -1    0    0  501  503 -0.00000000000E+00 -0.00000000000E+00 -0.56064371080E+02  0.56064371080E+02  0.00000000000E+00 0.  1.
          6    2    1    2  501    0  0.17327185669E+02  0.29159016019E+02  0.92262228016E+02  0.19551779009E+03  0.16901008238E+03 0.  0.
         24    2    3    3    0    0  0.25152069262E+02  0.24851860031E+02  0.13279497775E+03  0.15374729576E+03  0.68945509654E+02 0.  0.
         -6    2    1    2    0  502 -0.17327185669E+02 -0.29159016019E+02  0.17569544476E+04  0.17658276277E+04  0.17351599400E+03 0.  0.
        -24    2    5    5    0    0  0.37897512456E+01  0.45154083544E+02  0.11680178117E+04  0.11718269434E+04  0.82822239902E+02 0.  0.
          5    1    3    3  501    0 -0.78248835932E+01  0.43071559887E+01 -0.40532749734E+02  0.41770494335E+02  0.47000000000E+01 0. -1.
        -11    1    4    4    0    0  0.15217721886E+02 -0.20051772223E+02  0.20719216028E+02  0.32602738252E+02  0.00000000000E+00 0.  1.
         12    1    4    4    0    0  0.99343473760E+01  0.44903632253E+02  0.11207576172E+03  0.12114455750E+03  0.00000000000E+00 0. -1.
         -5    1    5    5    0  502 -0.21116936915E+02 -0.74313099563E+02  0.58893663590E+03  0.59400068425E+03  0.47000000000E+01 0.  1.
         13    1    6    6    0    0 -0.15630838656E+02 -0.20447215088E+02  0.35906646503E+03  0.35998769150E+03  0.00000000000E+00 0. -1.
        -14    1    6    6    0    0  0.19420589901E+02  0.65601298632E+02  0.80895134666E+03  0.81183925192E+03  0.00000000000E+00 0.  1.
</event>
<event>
12    1  0.8494789E-002  0.1980956E+03  0.7818608E-02  0.1152338E+00
         21   -1    0    0  503  502  0.00000000000E+00  0.00000000000E+00  0.28818217057E+03  0.28818217057E+03  0.00000000000E+00 0.  1.
         21   -1    0    0  501  503 -0.00000000000E+00 -0.00000000000E+00 -0.63436354312E+03  0.63436354312E+03  0.00000000000E+00 0.  1.
          6    2    1    2  501    0  0.48660753481E+02 -0.77362060612E+02 -0.58355499746E+03  0.61626155000E+03  0.17575296753E+03 0.  0.
         24    2    3    3    0    0  0.64298322528E+02 -0.10601874682E+03 -0.34611348733E+03  0.37654025357E+03  0.81325072924E+02 0.  0.
         -6    2    1    2    0  502 -0.48660753481E+02  0.77362060612E+02  0.23737362491E+03  0.30628416369E+03  0.17061944137E+03 0.  0.
        -24    2    5    5    0    0 -0.92257001669E+02  0.36324613363E+02  0.11913221451E+03  0.17366506226E+03  0.78334139563E+02 0.  0.
          5    1    3    3  501    0 -0.15637569047E+02  0.28656686212E+02 -0.23744151013E+03  0.23972129644E+03  0.47000000000E+01 0. -1.
        -13    1    4    4    0    0  0.82932927263E+02 -0.73557404991E+02 -0.25882412709E+03  0.28156436390E+03  0.00000000000E+00 0.  1.
         14    1    4    4    0    0 -0.18634604735E+02 -0.32461341833E+02 -0.87289360242E+02  0.94975889670E+02  0.00000000000E+00 0. -1.
         -5    1    5    5    0  502  0.43596248188E+02  0.41037447249E+02  0.11824141040E+03  0.13261910143E+03  0.47000000000E+01 0.  1.
         11    1    6    6    0    0 -0.32820824737E+02 -0.22577541643E+02  0.56550203397E+02  0.69172808439E+02  0.00000000000E+00 0. -1.
        -12    1    6    6    0    0 -0.59436176933E+02  0.58902155006E+02  0.62582011113E+02  0.10449225382E+03  0.00000000000E+00 0.  1.
</event>
<event>
12    1  0.8494789E-002  0.2929812E+03  0.7818608E-02  0.1088850E+00
         21   -1    0    0  501  502  0.00000000000E+00  0.00000000000E+00  0.14439808809E+03  0.14439808809E+03  0.00000000000E+00 0. -1.
         21   -1    0    0  502  503 -0.00000000000E+00 -0.00000000000E+00 -0.60860650242E+03  0.60860650242E+03  0.00000000000E+00 0. -1.
         -6    2    1    2    0  503 -0.23588595632E+03 -0.75874129272E+01 -0.29114095152E+03  0.41303875475E+03  0.17360358882E+03 0.  0.
        -24    2    3    3    0    0 -0.20292162775E+03 -0.35971128255E+00 -0.14253337889E+03  0.26057503031E+03  0.80039152423E+02 0.  0.
          6    2    1    2  501    0  0.23588595632E+03  0.75874129272E+01 -0.17306746282E+03  0.33996583575E+03  0.17298748384E+03 0.  0.
         24    2    5    5    0    0  0.78730734445E+02 -0.45041225068E+02 -0.10991506809E+03  0.16254584742E+03  0.78183053260E+02 0.  0.
          5    1    5    5  501    0  0.15715522188E+03  0.52628637995E+02 -0.63152394725E+02  0.17741998833E+03  0.47000000000E+01 0. -1.
        -13    1    6    6    0    0  0.23784310037E+02  0.80262995939E+01 -0.73987589007E+02  0.78129880431E+02  0.00000000000E+00 0.  1.
         14    1    6    6    0    0  0.54946424407E+02 -0.53067524662E+02 -0.35927479088E+02  0.84415966988E+02  0.00000000000E+00 0. -1.
         -5    1    3    3    0  503 -0.32964328571E+02 -0.72277016446E+01 -0.14860757263E+03  0.15246372444E+03  0.47000000000E+01 0.  1.
         11    1    4    4    0    0 -0.10011392511E+03 -0.16864992248E+02 -0.11391311967E+03  0.15258907168E+03  0.00000000000E+00 0. -1.
        -12    1    4    4    0    0 -0.10280770265E+03  0.16505280966E+02 -0.28620259223E+02  0.10798595863E+03  0.00000000000E+00 0.  1.
</event>
<event>
12    1  0.8494789E-002  0.2733022E+03  0.7818608E-02  0.1099458E+00
         21   -1    0    0  501  502  0.00000000000E+00  0.00000000000E+00  0.25278452881E+03  0.25278452881E+03  0.00000000000E+00 0.  1.
         21   -1    0    0  502  503 -0.00000000000E+00 -0.00000000000E+00 -0.43520357942E+03  0.43520357942E+03  0.00000000000E+00 0. -1.
         -6    2    1    2    0  503 -0.19953128997E+03 -0.70843499624E+02 -0.28644793044E+03  0.39591224776E+03  0.17280785271E+03 0.  0.
        -24    2    3    3    0    0 -0.31160658041E+02 -0.53679175240E+02 -0.15183926336E+03  0.17961415026E+03  0.73168576684E+02 0.  0.
          6    2    1    2  501    0  0.19953128997E+03  0.70843499624E+02  0.10402887983E+03  0.29207586047E+03  0.17220558444E+03 0.  0.
         24    2    5    5    0    0  0.13335615791E+03  0.33073381082E+02  0.13542395840E+03  0.20953210894E+03  0.81770060405E+02 0.  0.
          5    1    5    5  501    0  0.66175132058E+02  0.37770118542E+02 -0.31395078572E+02  0.82543751527E+02  0.47000000000E+01 0. -1.
        -11    1    6    6    0    0  0.95385554362E+01  0.25319369214E+02  0.56089379848E+02  0.62274176260E+02  0.00000000000E+00 0.  1.
         12    1    6    6    0    0  0.12381760248E+03  0.77540118686E+01  0.79334578554E+02  0.14725793268E+03  0.00000000000E+00 0. -1.
         -5    1    3    3    0  503 -0.16837063193E+03 -0.17164324384E+02 -0.13460866708E+03  0.21629809750E+03  0.47000000000E+01 0.  1.
         11    1    4    4    0    0 -0.17138805110E+02 -0.64800014987E+02 -0.14622836516E+03  0.16085868133E+03  0.00000000000E+00 0. -1.
        -12    1    4    4    0    0 -0.14021852932E+02  0.11120839747E+02 -0.56108982018E+01  0.18755468934E+02  0.00000000000E+00 0.  1.
</event>
<event>
12    1  0.8494789E-002  0.2018580E+03  0.7818608E-02  0.1148265E+00
         21   -1    0    0  503  502  0.00000000000E+00  0.00000000000E+00  0.24621950490E+03  0.24621950490E+03  0.00000000000E+00 0. -1.
         21   -1    0    0  501  503 -0.00000000000E+00 -0.00000000000E+00 -0.18496538901E+03  0.18496538901E+03  0.00000000000E+00 0. -1.
          6    2    1    2  501    0 -0.46842027877E+02  0.94681855786E+02 -0.39892403723E+02  0.20576214311E+03  0.17201112252E+03 0.  0.
         24    2    3    3    0    0  0.35932855101E+00  0.12018452289E+03 -0.10175439504E+02  0.14425163961E+03  0.79123620384E+02 0.  0.
         -6    2    1    2    0  502  0.46842027877E+02 -0.94681855786E+02  0.10114651962E+03  0.22542275081E+03  0.17153999172E+03 0.  0.
        -24    2    5    5    0    0  0.92980244832E+02 -0.38989080880E+02  0.64349226183E+02  0.14414205787E+03  0.80440260931E+02 0.  0.
          5    1    3    3  501    0 -0.47201356428E+02 -0.25502667103E+02 -0.29716964219E+02  0.61510503496E+02  0.47000000000E+01 0. -1.
        -11    1    4    4    0    0  0.24866704385E+02  0.59394018549E+02 -0.36038728746E+02  0.73788836527E+02  0.00000000000E+00 0.  1.
         12    1    4    4    0    0 -0.24507375834E+02  0.60790504340E+02  0.25863289242E+02  0.70462803085E+02  0.00000000000E+00 0. -1.
         -5    1    5    5    0  502 -0.46138216955E+02 -0.55692774906E+02  0.36797293435E+02  0.81280692939E+02  0.47000000000E+01 0.  1.
         11    1    6    6    0    0  0.45743644541E+02 -0.48236484574E+01 -0.12516404002E+02  0.47669790953E+02  0.00000000000E+00 0. -1.
        -12    1    6    6    0    0  0.47236600291E+02 -0.34165432422E+02  0.76865630185E+02  0.96472266914E+02  0.00000000000E+00 0.  1.
</event>
<event>
12    1  0.8494789E-002  0.1979533E+03  0.7818608E-02  0.1151545E+00
         21   -1    0    0  503  502  0.00000000000E+00  0.00000000000E+00  0.41202409439E+03  0.41202409439E+03  0.00000000000E+00 0. -1.
         21   -1    0    0  501  503 -0.00000000000E+00 -0.00000000000E+00 -0.12930648292E+03  0.12930648292E+03  0.00000000000E+00 0. -1.
          6    2    1    2  501    0 -0.94886424058E+02  0.21070644062E+02  0.19308100072E+01  0.19796267226E+03  0.17244734288E+03 0.  0.
         24    2    3    3    0    0 -0.95883370408E+02  0.42082977669E+01  0.59300493143E+02  0.13797348017E+03  0.79427968947E+02 0.  0.
         -6    2    1    2    0  502  0.94886424058E+02 -0.21070644062E+02  0.28078680147E+03  0.34336790505E+03  0.17208394704E+03 0.  0.
        -24    2    5    5    0    0  0.76183717932E+02 -0.58809995667E+02  0.10755334388E+03  0.16502561981E+03  0.80019740981E+02 0.  0.
          5    1    3    3  501    0  0.99694635054E+00  0.16862346295E+02 -0.57369683136E+02  0.59989192091E+02  0.47000000000E+01 0. -1.
        -13    1    4    4    0    0  0.10811390971E+02  0.13567229922E+02  0.61476723172E+01  0.18405156272E+02  0.00000000000E+00 0.  1.
         14    1    4    4    0    0 -0.10669476138E+03 -0.93589321556E+01  0.53152820826E+02  0.11956832389E+03  0.00000000000E+00 0. -1.
         -5    1    5    5    0  502  0.18702706126E+02  0.37739351605E+02  0.17323345759E+03  0.17834228524E+03  0.47000000000E+01 0.  1.
         13    1    6    6    0    0  0.68784570360E+02 -0.33036087320E+02  0.11424815881E+03  0.13738756121E+03  0.00000000000E+00 0. -1.
        -14    1    6    6    0    0  0.73991475719E+01 -0.25773908347E+02 -0.66948149280E+01  0.27638058600E+02  0.00000000000E+00 0.  1.
</event>
<event>
12    1  0.8494789E-002  0.2410424E+03  0.7818608E-02  0.1119152E+00
         21   -1    0    0  503  502  0.00000000000E+00  0.00000000000E+00  0.13002014833E+03  0.13002014833E+03  0.00000000000E+00 0. -1.
         21   -1    0    0  501  503 -0.00000000000E+00 -0.00000000000E+00 -0.88470082590E+03  0.88470082590E+03  0.00000000000E+00 0.  1.
          6    2    1    2  501    0  0.96888010359E+02 -0.13803684722E+03 -0.73462111301E+03  0.77315561966E+03  0.17222071532E+03 0.  0.
         24    2    3    3    0    0  0.48334603551E+02 -0.83048055884E+02 -0.64782897870E+03  0.65941835635E+03  0.76921840660E+02 0.  0.
         -6    2    1    2    0  502 -0.96888010359E+02  0.13803684722E+03 -0.20059564565E+02  0.24156535457E+03  0.17178468109E+03 0.  0.
        -24    2    5    5    0    0 -0.90960680976E+02  0.15654240222E+03  0.18162548369E+02  0.19843058070E+03  0.79154583066E+02 0.  0.
          5    1    3    3  501    0  0.48553406808E+02 -0.54988791332E+02 -0.86792134314E+02  0.11373726330E+03  0.47000000000E+01 0. -1.
        -11    1    4    4    0    0  0.22600921272E+02 -0.56057529520E+01 -0.34504932176E+03  0.34583415180E+03  0.00000000000E+00 0.  1.
         12    1    4    4    0    0  0.25733682280E+02 -0.77442302932E+02 -0.30277965694E+03  0.31358420455E+03  0.00000000000E+00 0. -1.
         -5    1    5    5    0  502 -0.59273293837E+01 -0.18505554999E+02 -0.38222112934E+02  0.43134773867E+02  0.47000000000E+01 0.  1.
         13    1    6    6    0    0 -0.50119388569E+02  0.11746213272E+03  0.45589543349E+02  0.13560129865E+03  0.00000000000E+00 0. -1.
        -14    1    6    6    0    0 -0.40841292407E+02  0.39080269494E+02 -0.27426994981E+02  0.62829282050E+02  0.00000000000E+00 0.  1.
</event>
<event>
12    1  0.8494789E-002  0.1982834E+03  0.7818608E-02  0.1151918E+00
         21   -1    0    0  501  502  0.00000000000E+00  0.00000000000E+00  0.28850623052E+03  0.28850623052E+03  0.00000000000E+00 0. -1.
         21   -1    0    0  502  503 -0.00000000000E+00 -0.00000000000E+00 -0.14316467622E+03  0.14316467622E+03  0.00000000000E+00 0. -1.
         -6    2    1    2    0  503 -0.61232175788E+02  0.68117809728E+02  0.17421396749E+02  0.19570511001E+03  0.17206850283E+03 0.  0.
        -24    2    3    3    0    0 -0.55786496321E+02  0.18373383042E+02 -0.46159982457E+02  0.11465669737E+03  0.86981031806E+02 0.  0.
          6    2    1    2  501    0  0.61232175788E+02 -0.68117809728E+02  0.12792015755E+03  0.23596579672E+03  0.17586038542E+03 0.  0.
         24    2    5    5    0    0  0.81202507122E+02 -0.10892429269E+02  0.13239520126E+03  0.17500946548E+03  0.79920782716E+02 0.  0.
          5    1    5    5  501    0 -0.19970331334E+02 -0.57225380459E+02 -0.44750437138E+01  0.60956331242E+02  0.47000000000E+01 0. -1.
        -13    1    6    6    0    0  0.32108671386E+02 -0.28686810597E+02  0.13453855883E+02  0.45109933702E+02  0.00000000000E+00 0.  1.
         14    1    6    6    0    0  0.49093835735E+02  0.17794381328E+02  0.11894134538E+03  0.12989953177E+03  0.00000000000E+00 0. -1.
         -5    1    3    3    0  503 -0.54456794663E+01  0.49744426687E+02  0.63581379206E+02  0.81048412649E+02  0.47000000000E+01 0.  1.
         11    1    4    4    0    0 -0.15035511042E+01  0.28042148700E+02  0.15389004505E+02  0.32022558132E+02  0.00000000000E+00 0. -1.
        -12    1    4    4    0    0 -0.54282945217E+02 -0.96687656585E+01 -0.61548986962E+02  0.82634139234E+02  0.00000000000E+00 0.  1.
</event>
<event>
12    1  0.8494789E-002  0.1799761E+03  0.7818608E-02  0.1169187E+00
         21   -1    0    0  503  502  0.00000000000E+00  0.00000000000E+00  0.42373151343E+02  0.42373151343E+02  0.00000000000E+00 0.  1.
         21   -1    0    0  501  503 -0.00000000000E+00 -0.00000000000E+00 -0.20023202182E+04  0.20023202182E+04  0.00000000000E+00 0.  1.
          6    2    1    2  501    0 -0.13644754648E+02 -0.32103896208E+02 -0.17969736745E+04  0.18059639521E+04  0.17656321783E+03 0.  0.
         24    2    3    3    0    0  0.19172333598E+02 -0.26669278329E+01 -0.40765341337E+03  0.41593647955E+03  0.80294200995E+02 0.  0.
         -6    2    1    2    0  502  0.13644754648E+02  0.32103896208E+02 -0.16297339235E+03  0.23872941746E+03  0.17092269792E+03 0.  0.
        -24    2    5    5    0    0  0.22121017724E+02 -0.40957816469E+02 -0.12538860806E+03  0.15599751971E+03  0.80287240387E+02 0.  0.
          5    1    3    3  501    0 -0.32817088245E+02 -0.29436968375E+02 -0.13893202612E+04  0.13900274726E+04  0.47000000000E+01 0. -1.
        -11    1    4    4    0    0  0.38662215436E+02 -0.30017051642E+02 -0.24973246225E+03  0.25448397394E+03  0.00000000000E+00 0.  1.
         12    1    4    4    0    0 -0.19489881838E+02  0.27350123809E+02 -0.15792095112E+03  0.16145250561E+03  0.00000000000E+00 0. -1.
         -5    1    5    5    0  502 -0.84762630767E+01  0.73061712677E+02 -0.37584784296E+02  0.82731897752E+02  0.47000000000E+01 0.  1.
         11    1    6    6    0    0 -0.20796922911E+02  0.29256329050E+01 -0.70814807560E+02  0.73863443598E+02  0.00000000000E+00 0. -1.
        -12    1    6    6    0    0  0.42917940636E+02 -0.43883449374E+02 -0.54573800497E+02  0.82134076107E+02  0.00000000000E+00 0.  1.
</event>
<event>
12    1  0.8494789E-002  0.2014395E+03  0.7818608E-02  0.1148624E+00
         21   -1    0    0  503  502  0.00000000000E+00  0.00000000000E+00  0.11618129560E+03  0.11618129560E+03  0.00000000000E+00 0.  1.
         21   -1    0    0  501  503 -0.00000000000E+00 -0.00000000000E+00 -0.19408048007E+04  0.19408048007E+04  0.00000000000E+00 0.  1.
          6    2    1    2  501    0  0.95595513065E+02  0.30369661072E+02 -0.18437201182E+04  0.18546433856E+04  0.17417633308E+03 0.  0.
         24    2    3    3    0    0  0.10533757599E+03  0.75604537944E+02 -0.15351946551E+04  0.15426319223E+04  0.77965167862E+02 0.  0.
         -6    2    1    2    0  502 -0.95595513065E+02 -0.30369661072E+02  0.19096613058E+02  0.20234271075E+03  0.17469136651E+03 0.  0.
        -24    2    5    5    0    0 -0.10995424781E+03  0.38120728356E+01  0.58444036993E+02  0.14807601777E+03  0.80039571889E+02 0.  0.
          5    1    3    3  501    0 -0.97420629286E+01 -0.45234876872E+02 -0.30852546307E+03  0.31201146331E+03  0.47000000000E+01 0. -1.
        -13    1    4    4    0    0  0.63976840728E+02  0.17144115361E+02 -0.42501544551E+03  0.43014542397E+03  0.00000000000E+00 0.  1.
         14    1    4    4    0    0  0.41360735266E+02  0.58460422583E+02 -0.11101792096E+04  0.11124864983E+04  0.00000000000E+00 0. -1.
         -5    1    5    5    0  502  0.14358734746E+02 -0.34181733907E+02 -0.39347423936E+02  0.54266692978E+02  0.47000000000E+01 0.  1.
         11    1    6    6    0    0 -0.72143426216E+02  0.16636153078E+02 -0.37921324897E+01  0.74133769661E+02  0.00000000000E+00 0. -1.
        -12    1    6    6    0    0 -0.37810821595E+02 -0.12824080242E+02  0.62236169483E+02  0.73942248111E+02  0.00000000000E+00 0.  1.
</event>
<event>
12    1  0.8494789E-002  0.1843738E+03  0.7818608E-02  0.1163985E+00
         21   -1    0    0  501  502  0.00000000000E+00  0.00000000000E+00  0.40668290336E+03  0.40668290336E+03  0.00000000000E+00 0. -1.
         21   -1    0    0  502  503 -0.00000000000E+00 -0.00000000000E+00 -0.13685887315E+03  0.13685887315E+03  0.00000000000E+00 0. -1.
         -6    2    1    2    0  503 -0.51103818933E+02  0.31323023804E+02 -0.36035381396E+02  0.18640921201E+03  0.17279211058E+03 0.  0.
        -24    2    3    3    0    0 -0.95782235424E+02  0.14846155542E+02 -0.51872522122E+02  0.13600531221E+03  0.80075223646E+02 0.  0.
          6    2    1    2  501    0  0.51103818933E+02 -0.31323023804E+02  0.30585941161E+03  0.35713256450E+03  0.17435870161E+03 0.  0.
         24    2    5    5    0    0 -0.13908941936E+02  0.71991896593E+01  0.25577396925E+03  0.26635117025E+03  0.72645272040E+02 0.  0.
          5    1    5    5  501    0  0.65012760869E+02 -0.38522213464E+02  0.50085442362E+02  0.90781394253E+02  0.47000000000E+01 0. -1.
        -11    1    6    6    0    0 -0.14638402969E+02 -0.31321342731E+02  0.97257104580E+02  0.10321944460E+03  0.00000000000E+00 0.  1.
         12    1    6    6    0    0  0.72946103255E+00  0.38520532390E+02  0.15851686467E+03  0.16313172565E+03  0.00000000000E+00 0. -1.
         -5    1    3    3    0  503  0.44678416491E+02  0.16476868263E+02  0.15837140726E+02  0.50403899792E+02  0.47000000000E+01 0.  1.
         11    1    4    4    0    0 -0.89963608114E+02  0.71318188996E+01 -0.74598375736E+01  0.90553645992E+02  0.00000000000E+00 0. -1.
        -12    1    4    4    0    0 -0.58186273097E+01  0.77143366419E+01 -0.44412684549E+02  0.45451666223E+02  0.00000000000E+00 0.  1.
</event>
<event>
12    1  0.8494789E-002  0.1735260E+03  0.7818608E-02  0.1174250E+00
         21   -1    0    0  501  502  0.00000000000E+00  0.00000000000E+00  0.10184625946E+04  0.10184625946E+04  0.00000000000E+00 0. -1.
         21   -1    0    0  502  503 -0.00000000000E+00 -0.00000000000E+00 -0.30160345178E+02  0.30160345178E+02  0.00000000000E+00 0. -1.
         -6    2    1    2    0  503  0.48886058147E+01 -0.21624674605E+02  0.56918471969E+03  0.59504831978E+03  0.17210384284E+03 0.  0.
        -24    2    3    3    0    0  0.41786510218E+02 -0.20394221217E+02  0.53977570872E+03  0.54761468940E+03  0.79762118952E+02 0.  0.
          6    2    1    2  501    0 -0.48886058147E+01  0.21624674605E+02  0.41911752975E+03  0.45357462003E+03  0.17198519461E+03 0.  0.
         24    2    5    5    0    0 -0.25183547337E+02 -0.33604113879E+02  0.35565319562E+03  0.36690331315E+03  0.79783445138E+02 0.  0.
          5    1    5    5  501    0  0.20294941522E+02  0.55228788484E+02  0.63464334134E+02  0.86671306878E+02  0.47000000000E+01 0. -1.
        -13    1    6    6    0    0 -0.30647137205E+02  0.19342309069E+02  0.12229919875E+03  0.12755573666E+03  0.00000000000E+00 0.  1.
         14    1    6    6    0    0  0.54635898688E+01 -0.52946422948E+02  0.23335399687E+03  0.23934757649E+03  0.00000000000E+00 0. -1.
         -5    1    3    3    0  503 -0.36897904403E+02 -0.12304533879E+01  0.29409010970E+02  0.47433630380E+02  0.47000000000E+01 0.  1.
         13    1    4    4    0    0  0.12325604304E+02  0.29993779502E+02  0.14767965263E+03  0.15119797331E+03  0.00000000000E+00 0. -1.
        -14    1    4    4    0    0  0.29460905914E+02 -0.50388000719E+02  0.39209605609E+03  0.39641671609E+03  0.00000000000E+00 0.  1.
</event>
<event>
12    1  0.8494789E-002  0.2275582E+03  0.7818608E-02  0.1129196E+00
         21   -1    0    0  501  502  0.00000000000E+00  0.00000000000E+00  0.18987083097E+03  0.18987083097E+03  0.00000000000E+00 0. -1.
         21   -1    0    0  502  503 -0.00000000000E+00 -0.00000000000E+00 -0.27112516565E+03  0.27112516565E+03  0.00000000000E+00 0.  1.
         -6    2    1    2    0  503  0.11889687919E+03  0.81319656389E+02 -0.12726839944E+02  0.22334341136E+03  0.17020855603E+03 0.  0.
        -24    2    3    3    0    0  0.54579690421E+02  0.97473052832E+02  0.32354830251E+02  0.14301857102E+03  0.83231832745E+02 0.  0.
          6    2    1    2  501    0 -0.11889687919E+03 -0.81319656389E+02 -0.68527494734E+02  0.23765258526E+03  0.17616293410E+03 0.  0.
         24    2    5    5    0    0 -0.13470950625E+03 -0.18213176954E+02 -0.68743619307E+02  0.17242526253E+03  0.80786230709E+02 0.  0.
          5    1    5    5  501    0  0.15812627065E+02 -0.63106479436E+02  0.21612457308E+00  0.65227322736E+02  0.47000000000E+01 0. -1.
        -13    1    6    6    0    0 -0.54549337183E+02  0.29204796008E+02 -0.11009164638E+02  0.62847052461E+02  0.00000000000E+00 0.  1.
         14    1    6    6    0    0 -0.80160169071E+02 -0.47417972962E+02 -0.57734454670E+02  0.10957821007E+03  0.00000000000E+00 0. -1.
         -5    1    3    3    0  503  0.64317188768E+02 -0.16153396442E+02 -0.45081670195E+02  0.80324840338E+02  0.47000000000E+01 0.  1.
         11    1    4    4    0    0  0.58670345784E+02  0.89101688172E+02 -0.27294273717E+01  0.10671818066E+03  0.00000000000E+00 0. -1.
        -12    1    4    4    0    0 -0.40906553630E+01  0.83713646595E+01  0.35084257623E+02  0.36300390363E+02  0.00000000000E+00 0.  1.
</event>
<event>
12    1  0.8494789E-002  0.1934241E+03  0.7818608E-02  0.1155663E+00
         21   -1    0    0  503  502  0.00000000000E+00  0.00000000000E+00  0.11721337270E+03  0.11721337270E+03  0.00000000000E+00 0.  1.
         21   -1    0    0  501  503 -0.00000000000E+00 -0.00000000000E+00 -0.36938056155E+03  0.36938056155E+03  0.00000000000E+00 0.  1.
          6    2    1    2  501    0  0.77520082392E+02  0.39898074243E+02 -0.34400444761E+02  0.19532903180E+03  0.17137333678E+03 0.  0.
         24    2    3    3    0    0 -0.32757638833E+01 -0.12955271596E+02 -0.52272996348E+02  0.97028660272E+02  0.80644436112E+02 0.  0.
         -6    2    1    2    0  502 -0.77520082392E+02 -0.39898074243E+02 -0.21776674409E+03  0.29126490245E+03  0.17266056024E+03 0.  0.
        -24    2    5    5    0    0  0.73236598857E+01 -0.68237606652E+01 -0.17027447408E+03  0.18845451127E+03  0.80134303471E+02 0.  0.
          5    1    3    3  501    0  0.80795846275E+02  0.52853345839E+02  0.17872551587E+02  0.98300371525E+02  0.47000000000E+01 0. -1.
        -11    1    4    4    0    0  0.44908715326E+01  0.30825434634E+02 -0.40137860172E+01  0.31408371904E+02  0.00000000000E+00 0.  1.
         12    1    4    4    0    0 -0.77666354159E+01 -0.43780706230E+02 -0.48259210331E+02  0.65620288368E+02  0.00000000000E+00 0. -1.
         -5    1    5    5    0  502 -0.84843742278E+02 -0.33074313578E+02 -0.47492270014E+02  0.10281039117E+03  0.47000000000E+01 0.  1.
         11    1    6    6    0    0  0.23972156325E+02  0.24238146474E+02 -0.35783699664E+02  0.49422921657E+02  0.00000000000E+00 0. -1.
        -12    1    6    6    0    0 -0.16648496440E+02 -0.31061907139E+02 -0.13449077441E+03  0.13903158962E+03  0.00000000000E+00 0.  1.
</event>
<event>
12    1  0.8494789E-002  0.4016310E+03  0.7818608E-02  0.1043245E+00
         21   -1    0    0  503  502  0.00000000000E+00  0.00000000000E+00  0.38467754709E+03  0.38467754709E+03  0.00000000000E+00 0. -1.
         21   -1    0    0  501  503 -0.00000000000E+00 -0.00000000000E+00 -0.47516289796E+03  0.47516289796E+03  0.00000000000E+00 0.  1.
          6    2    1    2  501    0  0.23552547308E+03  0.27580289061E+03 -0.19305108192E+03  0.44532004463E+03  0.17176070265E+03 0.  0.
         24    2    3    3    0    0  0.18418684383E+03  0.25602540284E+03 -0.21088183962E+03  0.38729565496E+03  0.77800859474E+02 0.  0.
         -6    2    1    2    0  502 -0.23552547308E+03 -0.27580289061E+03  0.10256573104E+03  0.41452040042E+03  0.17253391040E+03 0.  0.
        -24    2    5    5    0    0 -0.13912365889E+03 -0.12084467770E+03 -0.75939664272E+01  0.20130078013E+03  0.80656724233E+02 0.  0.
          5    1    3    3  501    0  0.51338629252E+02  0.19777487773E+02  0.17830757693E+02  0.58024389665E+02  0.47000000000E+01 0. -1.
        -13    1    4    4    0    0  0.33089539577E+02  0.14857154194E+02 -0.63330393840E+01  0.36820647034E+02  0.00000000000E+00 0.  1.
         14    1    4    4    0    0  0.15109730426E+03  0.24116824864E+03 -0.20454880023E+03  0.35047500793E+03  0.00000000000E+00 0. -1.
         -5    1    5    5    0  502 -0.96401814192E+02 -0.15495821291E+03  0.11015969747E+03  0.21321962029E+03  0.47000000000E+01 0.  1.
         11    1    6    6    0    0  0.87940895384E+00  0.42940099975E+01 -0.12718861953E+02  0.13452930214E+02  0.00000000000E+00 0. -1.
        -12    1    6    6    0    0 -0.14000306785E+03 -0.12513868770E+03  0.51248955258E+01  0.18784784992E+03  0.00000000000E+00 0.  1.
</event>
<event>
12    1  0.8494789E-002  0.1855631E+03  0.7818608E-02  0.1163512E+00
         21   -1    0    0  501  502  0.00000000000E+00  0.00000000000E+00  0.12373781377E+03  0.12373781377E+03  0.00000000000E+00 0.  1.
         21   -1    0    0  502  503 -0.00000000000E+00 -0.00000000000E+00 -0.31342874083E+03  0.31342874083E+03  0.00000000000E+00 0.  1.
         -6    2    1    2    0  503  0.52154787733E+02  0.45798844342E+02 -0.17522269732E+03  0.25521883976E+03  0.17209301695E+03 0.  0.
        -24    2    3    3    0    0  0.67967296674E+02  0.83424637039E+02 -0.16534023169E+03  0.21296379459E+03  0.80230680604E+02 0.  0.
          6    2    1    2  501    0 -0.52154787733E+02 -0.45798844342E+02 -0.14468229737E+02  0.18194771484E+03  0.16756486874E+03 0.  0.
         24    2    5    5    0    0 -0.50126548209E+02 -0.20110064044E+02 -0.70426587262E+02  0.12016215855E+03  0.81005892646E+02 0.  0.
          5    1    5    5  501    0 -0.20282395242E+01 -0.25688780298E+02  0.55958357525E+02  0.61785556287E+02  0.47000000000E+01 0. -1.
        -11    1    6    6    0    0  0.15126004481E+01  0.92829441388E+01  0.14034378257E+02  0.16894519379E+02  0.00000000000E+00 0.  1.
         12    1    6    6    0    0 -0.51639148657E+02 -0.29393008183E+02 -0.84460965519E+02  0.10326763917E+03  0.00000000000E+00 0. -1.
         -5    1    3    3    0  503 -0.15812508941E+02 -0.37625792697E+02 -0.98824656370E+01  0.42255045169E+02  0.47000000000E+01 0.  1.
         11    1    4    4    0    0  0.13086612762E+02  0.23834286983E+02  0.17743118959E+01  0.27248501836E+02  0.00000000000E+00 0. -1.
        -12    1    4    4    0    0  0.54880683913E+02  0.59590350056E+02 -0.16711454358E+03  0.18571529276E+03  0.00000000000E+00 0.  1.
</event>
<event>
12    1  0.8494789E-002  0.1951131E+03  0.7818608E-02  0.1154096E+00
         21   -1    0    0  503  502  0.00000000000E+00  0.00000000000E+00  0.50804594476E+03  0.50804594476E+03  0.00000000000E+00 0.  1.
         21   -1    0    0  501  503 -0.00000000000E+00 -0.00000000000E+00 -0.75363087301E+02  0.75363087301E+02  0.00000000000E+00 0.  1.
          6    2    1    2  501    0  0.13406855369E+02  0.90468551001E+02  0.24536978247E+03  0.31348918299E+03  0.17235090720E+03 0.  0.
         24    2    3    3    0    0  0.63714174115E+02  0.10114886418E+03  0.17044997646E+03  0.22249488239E+03  0.78486874741E+02 0.  0.
         -6    2    1    2    0  502 -0.13406855369E+02 -0.90468551001E+02  0.18731307499E+03  0.26991984907E+03  0.17148246082E+03 0.  0.
        -24    2    5    5    0    0  0.81559289374E+01  0.81032064089E+01  0.18635107864E+02  0.73309341674E+02  0.69962927330E+02 0.  0.
          5    1    3    3  501    0 -0.50307318746E+02 -0.10680313179E+02  0.74919806008E+02  0.90994300598E+02  0.47000000000E+01 0. -1.
        -13    1    4    4    0    0  0.63838611772E+02  0.61410779347E+02  0.65190009885E+02  0.10998358769E+03  0.00000000000E+00 0.  1.
         14    1    4    4    0    0 -0.12443765711E+00  0.39738084833E+02  0.10525996658E+03  0.11251129470E+03  0.00000000000E+00 0. -1.
         -5    1    5    5    0  502 -0.21562784306E+02 -0.98571757410E+02  0.16867796712E+03  0.19661050740E+03  0.47000000000E+01 0.  1.
         11    1    6    6    0    0 -0.24488798616E+02  0.15323921935E+02 -0.86496367986E+01  0.30155265840E+02  0.00000000000E+00 0. -1.
        -12    1    6    6    0    0  0.32644727554E+02 -0.72207155263E+01  0.27284744663E+02  0.43154075834E+02  0.00000000000E+00 0.  1.
</event>
<event>
12    1  0.8494789E-002  0.2383050E+03  0.7818608E-02  0.1121109E+00
         21   -1    0    0  503  502  0.00000000000E+00  0.00000000000E+00  0.46233458604E+03  0.46233458604E+03  0.00000000000E+00 0.  1.
         21   -1    0    0  501  503 -0.00000000000E+00 -0.00000000000E+00 -0.22695189805E+03  0.22695189805E+03  0.00000000000E+00 0. -1.
          6    2    1    2  501    0 -0.35401194073E+02  0.16241202334E+03 -0.11622457384E+03  0.26513663069E+03  0.17075822527E+03 0.  0.
         24    2    3    3    0    0 -0.79940523003E+02  0.12687896541E+03 -0.63054190815E+02  0.18706275760E+03  0.92346549583E+02 0.  0.
         -6    2    1    2    0  502  0.35401194073E+02 -0.16241202334E+03  0.35160726183E+03  0.42414985340E+03  0.16924692522E+03 0.  0.
        -24    2    5    5    0    0 -0.32266104769E+02 -0.54973533094E+02  0.21557625218E+03  0.23800899785E+03  0.78179100099E+02 0.  0.
          5    1    3    3  501    0  0.44539328931E+02  0.35533057936E+02 -0.53170383027E+02  0.78073873089E+02  0.47000000000E+01 0. -1.
        -11    1    4    4    0    0 -0.50247181576E+02  0.18327144173E+02  0.78368235400E+01  0.54056260258E+02  0.00000000000E+00 0.  1.
         12    1    4    4    0    0 -0.29693341427E+02  0.10855182123E+03 -0.70891014355E+02  0.13300649734E+03  0.00000000000E+00 0. -1.
         -5    1    5    5    0  502  0.67667298841E+02 -0.10743849025E+03  0.13603100965E+03  0.18614085555E+03  0.47000000000E+01 0.  1.
         11    1    6    6    0    0 -0.29612250753E+02 -0.75016286678E+02  0.17142052224E+03  0.18944477852E+03  0.00000000000E+00 0. -1.
        -12    1    6    6    0    0 -0.26538540154E+01  0.20042753584E+02  0.44155729939E+02  0.48564219327E+02  0.00000000000E+00 0.  1.
</event>
<event>
12    1  0.8494789E-002  0.2516229E+03  0.7818608E-02  0.1112673E+00
         21   -1    0    0  501  502  0.00000000000E+00  0.00000000000E+00  0.10770451798E+04  0.10770451798E+04  0.00000000000E+00 0.  1.
         21   -1    0    0  502  503 -0.00000000000E+00 -0.00000000000E+00 -0.58838429659E+02  0.58838429659E+02  0.00000000000E+00 0.  1.
         -6    2    1    2    0  503  0.15868425758E+03 -0.85558325765E+02  0.44785278613E+03  0.51249149754E+03  0.17197237072E+03 0.  0.
        -24    2    3    3    0    0  0.43956420278E+02 -0.10088264381E+03  0.24923820937E+03  0.28256291846E+03  0.74917575844E+02 0.  0.
          6    2    1    2  501    0 -0.15868425758E+03  0.85558325765E+02  0.57035396403E+03  0.62339211195E+03  0.17553677744E+03 0.  0.
         24    2    5    5    0    0 -0.15777239243E+03  0.73987386182E+02  0.31856607452E+03  0.37129302538E+03  0.77510681416E+02 0.  0.
          5    1    5    5  501    0 -0.91186515388E+00  0.11570939583E+02  0.25178788951E+03  0.25209908656E+03  0.47000000000E+01 0. -1.
        -11    1    6    6    0    0 -0.16617475144E+03  0.71064612460E+02  0.31057804967E+03  0.35933682263E+03  0.00000000000E+00 0.  1.
         12    1    6    6    0    0  0.84023590119E+01  0.29227737226E+01  0.79880248493E+01  0.11956202750E+02  0.00000000000E+00 0. -1.
         -5    1    3    3    0  503  0.11472783731E+03  0.15324318049E+02  0.19861457676E+03  0.22992857908E+03  0.47000000000E+01 0.  1.
         11    1    4    4    0    0  0.41281256287E+01 -0.40033702503E+02  0.17130034778E+03  0.17596462118E+03  0.00000000000E+00 0. -1.
        -12    1    4    4    0    0  0.39828294649E+02 -0.60848941312E+02  0.77937861593E+02  0.10659829728E+03  0.00000000000E+00 0.  1.
</event>
<event>
12    1  0.8494789E-002  0.2181764E+03  0.7818608E-02  0.1135461E+00
         21   -1    0    0  501  502  0.00000000000E+00  0.00000000000E+00  0.84886364360E+03  0.84886364360E+03  0.00000000000E+00 0. -1.
         21   -1    0    0  502  503 -0.00000000000E+00 -0.00000000000E+00 -0.10012734599E+03  0.10012734599E+03  0.00000000000E+00 0. -1.
         -6    2    1    2    0  503 -0.25599251894E+02  0.13071914226E+03  0.58084808634E+02  0.22469795501E+03  0.17138410120E+03 0.  0.
        -24    2    3    3    0    0 -0.24442838031E+02 -0.40857559128E+01  0.17330421178E+02  0.83784123325E+02  0.78136355756E+02 0.  0.
          6    2    1    2  501    0  0.25599251894E+02 -0.13071914226E+03  0.69065148898E+03  0.72429303458E+03  0.17279497929E+03 0.  0.
         24    2    5    5    0    0  0.70639718687E+02 -0.60495788482E+02  0.27954464175E+03  0.30478034955E+03  0.78077810299E+02 0.  0.
          5    1    5    5  501    0 -0.45040466793E+02 -0.70223353777E+02  0.41110684723E+03  0.41951268503E+03  0.47000000000E+01 0. -1.
        -13    1    6    6    0    0  0.80055472730E+02 -0.64038144594E+02  0.27546777961E+03  0.29392560331E+03  0.00000000000E+00 0.  1.
         14    1    6    6    0    0 -0.94157540433E+01  0.35423561120E+01  0.40768621360E+01  0.10854746239E+02  0.00000000000E+00 0. -1.
         -5    1    3    3    0  503 -0.11564138628E+01  0.13480489817E+03  0.40754387456E+02  0.14091383169E+03  0.47000000000E+01 0.  1.
         11    1    4    4    0    0 -0.69330015618E+01  0.33955745654E+02 -0.69933131007E+01  0.35354852591E+02  0.00000000000E+00 0. -1.
        -12    1    4    4    0    0 -0.17509836469E+02 -0.38041501567E+02  0.24323734278E+02  0.48429270735E+02  0.00000000000E+00 0.  1.
</event>
<event>
12    1  0.8494789E-002  0.3366863E+03  0.7818608E-02  0.1068226E+00
         21   -1    0    0  501  502  0.00000000000E+00  0.00000000000E+00  0.25073533179E+03  0.25073533179E+03  0.00000000000E+00 0. -1.
         21   -1    0    0  502  503 -0.00000000000E+00 -0.00000000000E+00 -0.73099119530E+03  0.73099119530E+03  0.00000000000E+00 0.  1.
         -6    2    1    2    0  503 -0.18859728867E+03 -0.21726148833E+03 -0.54336951738E+03  0.63917582980E+03  0.17471066762E+03 0.  0.
        -24    2    3    3    0    0 -0.22002861839E+02 -0.61079419813E+02 -0.11769344480E+03  0.15609327957E+03  0.79363363857E+02 0.  0.
          6    2    1    2  501    0  0.18859728867E+03  0.21726148833E+03  0.63113653865E+02  0.34255069729E+03  0.17488897993E+03 0.  0.
         24    2    5    5    0    0  0.82313929818E+02  0.49437018344E+02 -0.23079755996E+02  0.12595753258E+03  0.78185823849E+02 0.  0.
          5    1    5    5  501    0  0.10628335885E+03  0.16782446999E+03  0.86193409861E+02  0.21659316471E+03  0.47000000000E+01 0. -1.
        -13    1    6    6    0    0  0.35962962753E+02  0.36250187074E+02  0.25891342591E+02  0.57251832931E+02  0.00000000000E+00 0.  1.
         14    1    6    6    0    0  0.46350967065E+02  0.13186831270E+02 -0.48971098587E+02  0.68705699645E+02  0.00000000000E+00 0. -1.
         -5    1    3    3    0  503 -0.16659442683E+03 -0.15618206852E+03 -0.42567607257E+03  0.48308255023E+03  0.47000000000E+01 0.  1.
         13    1    4    4    0    0  0.25974963411E+02 -0.22664503636E+02 -0.70931094681E+02  0.78864432046E+02  0.00000000000E+00 0. -1.
        -14    1    4    4    0    0 -0.47977825250E+02 -0.38414916178E+02 -0.46762350121E+02  0.77228847521E+02  0.00000000000E+00 0.  1.
</event>
<event>
12    1  0.8494789E-002  0.3425638E+03  0.7818608E-02  0.1065729E+00
         21   -1    0    0  503  502  0.00000000000E+00  0.00000000000E+00  0.25372415955E+03  0.25372415955E+03  0.00000000000E+00 0.  1.
         21   -1    0    0  501  503 -0.00000000000E+00 -0.00000000000E+00 -0.48321476502E+03  0.48321476502E+03  0.00000000000E+00 0. -1.
          6    2    1    2  501    0 -0.24894356408E+03 -0.16034844612E+03 -0.19151790105E+03  0.39246540907E+03  0.17223666458E+03 0.  0.
         24    2    3    3    0    0 -0.26185910259E+03 -0.16406084889E+03 -0.19924938888E+03  0.37626482348E+03  0.79929635743E+02 0.  0.
         -6    2    1    2    0  502  0.24894356408E+03  0.16034844612E+03 -0.37972704425E+02  0.34447351551E+03  0.17185911189E+03 0.  0.
        -24    2    5    5    0    0  0.19008175017E+03  0.17773075304E+03 -0.60809821244E+02  0.27881925720E+03  0.79517617527E+02 0.  0.
          5    1    3    3  501    0  0.12915538512E+02  0.37124027715E+01  0.77314878321E+01  0.16200585591E+02  0.47000000000E+01 0. -1.
        -13    1    4    4    0    0 -0.15212577627E+03 -0.12378820472E+03 -0.88243639856E+02  0.21506443548E+03  0.00000000000E+00 0.  1.
         14    1    4    4    0    0 -0.10973332632E+03 -0.40272644165E+02 -0.11100574902E+03  0.16120038799E+03  0.00000000000E+00 0. -1.
         -5    1    5    5    0  502  0.58861813905E+02 -0.17382306929E+02  0.22837116819E+02  0.65654258315E+02  0.47000000000E+01 0.  1.
         11    1    6    6    0    0  0.48612094857E+02  0.50671691796E+02 -0.53936768881E+02  0.88543385711E+02  0.00000000000E+00 0. -1.
        -12    1    6    6    0    0  0.14146965532E+03  0.12705906125E+03 -0.68730523624E+01  0.19027587148E+03  0.00000000000E+00 0.  1.
</event>
<event>
12    1  0.8494789E-002  0.2264080E+03  0.7818608E-02  0.1129246E+00
         21   -1    0    0  503  502  0.00000000000E+00  0.00000000000E+00  0.69603019706E+02  0.69603019706E+02  0.00000000000E+00 0. -1.
         21   -1    0    0  501  503 -0.00000000000E+00 -0.00000000000E+00 -0.78659981887E+03  0.78659981887E+03  0.00000000000E+00 0.  1.
          6    2    1    2  501    0  0.12488822195E+03  0.78108283821E+02 -0.46778957164E+03  0.51969957869E+03  0.17193777005E+03 0.  0.
         24    2    3    3    0    0  0.47789715927E+02  0.56305915730E+02 -0.40282196597E+03  0.41644066783E+03  0.75518742444E+02 0.  0.
         -6    2    1    2    0  502 -0.12488822195E+03 -0.78108283821E+02 -0.24920722752E+03  0.33650325988E+03  0.17155823991E+03 0.  0.
        -24    2    5    5    0    0 -0.15512259216E+03 -0.86161554107E+02 -0.20490265811E+03  0.28206102283E+03  0.78015955413E+02 0.  0.
          5    1    3    3  501    0  0.77098506022E+02  0.21802368092E+02 -0.64967605671E+02  0.10325891086E+03  0.47000000000E+01 0. -1.
        -13    1    4    4    0    0 -0.50185935788E+01  0.71867196594E+01 -0.21605128831E+03  0.21622903228E+03  0.00000000000E+00 0.  1.
         14    1    4    4    0    0  0.52808309506E+02  0.49119196070E+02 -0.18677067766E+03  0.20021163555E+03  0.00000000000E+00 0. -1.
         -5    1    5    5    0  502  0.30234370207E+02  0.80532702852E+01 -0.44304569409E+02  0.54442237047E+02  0.47000000000E+01 0.  1.
         11    1    6    6    0    0 -0.80395725652E+02 -0.29110738572E+02 -0.45138422926E+02  0.96687046844E+02  0.00000000000E+00 0. -1.
        -12    1    6    6    0    0 -0.74726866505E+02 -0.57050815534E+02 -0.15976423518E+03  0.18537397599E+03  0.00000000000E+00 0.  1.
</event>
<event>
12    1  0.8494789E-002  0.1785599E+03  0.7818608E-02  0.1169356E+00
         21   -1    0    0  501  502  0.00000000000E+00  0.00000000000E+00  0.59381092189E+02  0.59381092189E+02  0.00000000000E+00 0. -1.
         21   -1    0    0  502  503 -0.00000000000E+00 -0.00000000000E+00 -0.55142858842E+03  0.55142858842E+03  0.00000000000E+00 0. -1.
         -6    2    1    2    0  503  0.14705486570E+02 -0.43847075877E+02 -0.19382854075E+03  0.26353962382E+03  0.17246684526E+03 0.  0.
        -24    2    3    3    0    0  0.10778666595E+02 -0.87025513211E+02 -0.83812964149E+02  0.14519557259E+03  0.79796752675E+02 0.  0.
          6    2    1    2  501    0 -0.14705486570E+02  0.43847075877E+02 -0.29821895548E+03  0.34727005679E+03  0.17182295987E+03 0.  0.
         24    2    5    5    0    0  0.30472356493E+02 -0.26964400471E+02 -0.11435209977E+03  0.14507111190E+03  0.79458047943E+02 0.  0.
          5    1    5    5  501    0 -0.45177843063E+02  0.70811476348E+02 -0.18386685571E+03  0.20219894489E+03  0.47000000000E+01 0. -1.
        -11    1    6    6    0    0  0.22896953153E+01 -0.49329892723E+02 -0.44397428147E+02  0.66406420223E+02  0.00000000000E+00 0.  1.
         12    1    6    6    0    0  0.28182661177E+02  0.22365492252E+02 -0.69954671624E+02  0.78664691677E+02  0.00000000000E+00 0. -1.
         -5    1    3    3    0  503  0.39268199749E+01  0.43178437334E+02 -0.11001557660E+03  0.11834405122E+03  0.47000000000E+01 0.  1.
         11    1    4    4    0    0  0.33747011123E+02 -0.59391010915E+01 -0.23007553095E+02  0.41273250186E+02  0.00000000000E+00 0. -1.
        -12    1    4    4    0    0 -0.22968344528E+02 -0.81086412119E+02 -0.60805411055E+02  0.10392232241E+03  0.00000000000E+00 0.  1.
</event>
<event>
12    1  0.8494789E-002  0.2831638E+03  0.7818608E-02  0.1094163E+00
         21   -1    0    0  501  502  0.00000000000E+00  0.00000000000E+00  0.60371079516E+02  0.60371079516E+02  0.00000000000E+00 0. -1.
         21   -1    0    0  502  503 -0.00000000000E+00 -0.00000000000E+00 -0.16252645752E+04  0.16252645752E+04  0.00000000000E+00 0. -1.
         -6    2    1    2    0  503 -0.14268679364E+03  0.17392162713E+03 -0.41652592213E+03  0.50287202429E+03  0.16964131438E+03 0.  0.
        -24    2    3    3    0    0 -0.11697438822E+03  0.54392450604E+02 -0.28763630734E+03  0.32515602998E+03  0.79688470624E+02 0.  0.
          6    2    1    2  501    0  0.14268679364E+03 -0.17392162713E+03 -0.11483675736E+04  0.11827636305E+04  0.17196938103E+03 0.  0.
         24    2    5    5    0    0  0.34798085843E+02 -0.14911020024E+03 -0.70305276438E+03  0.72387045174E+03  0.79123212842E+02 0.  0.
          5    1    5    5  501    0  0.10788870779E+03 -0.24811426887E+02 -0.44531480922E+03  0.45889317873E+03  0.47000000000E+01 0. -1.
        -11    1    6    6    0    0  0.31944430570E+02 -0.15439070425E+03 -0.69916118570E+03  0.71671702909E+03  0.00000000000E+00 0.  1.
         12    1    6    6    0    0  0.28536552733E+01  0.52805040070E+01 -0.38915786796E+01  0.71534226498E+01  0.00000000000E+00 0. -1.
         -5    1    3    3    0  503 -0.25712405419E+02  0.11952917652E+03 -0.12888961478E+03  0.17771599430E+03  0.47000000000E+01 0.  1.
         13    1    4    4    0    0 -0.11800891400E+03  0.66403422319E+02 -0.23559021906E+03  0.27173198118E+03  0.00000000000E+00 0. -1.
        -14    1    4    4    0    0  0.10345257791E+01 -0.12010971714E+02 -0.52046088280E+02  0.53424048801E+02  0.00000000000E+00 0.  1.
</event>
<event>
12    1  0.8494789E-002  0.3011682E+03  0.7818608E-02  0.1084777E+00
         21   -1    0    0  503  502  0.00000000000E+00  0.00000000000E+00  0.11169125024E+04  0.11169125024E+04  0.00000000000E+00 0. -1.
         21   -1    0    0  501  503 -0.00000000000E+00 -0.00000000000E+00 -0.85321535372E+02  0.85321535372E+02  0.00000000000E+00 0.  1.
          6    2    1    2  501    0 -0.99909090001E+02 -0.22436118753E+03  0.37898324903E+03  0.48348572582E+03  0.17265681363E+03 0.  0.
         24    2    3    3    0    0  0.17860556323E+01 -0.11863647277E+03  0.24746460149E+03  0.28640994698E+03  0.81939770998E+02 0.  0.
         -6    2    1    2    0  502  0.99909090001E+02  0.22436118753E+03  0.65260771804E+03  0.71874831199E+03  0.17430586225E+03 0.  0.
        -24    2    5    5    0    0 -0.14518583423E+02  0.84929041384E+02  0.23460047735E+03  0.26346031622E+03  0.83367996956E+02 0.  0.
          5    1    3    3  501    0 -0.10169514563E+03 -0.10572471476E+03  0.13151864754E+03  0.19707577884E+03  0.47000000000E+01 0. -1.
        -13    1    4    4    0    0 -0.14867091426E+02 -0.11550917586E+02  0.30842061876E+01  0.19077904297E+02  0.00000000000E+00 0.  1.
         14    1    4    4    0    0  0.16653147058E+02 -0.10708555519E+03  0.24438039530E+03  0.26733204268E+03  0.00000000000E+00 0. -1.
         -5    1    5    5    0  502  0.11442767342E+03  0.13943214614E+03  0.41800724069E+03  0.45528799577E+03  0.47000000000E+01 0.  1.
         13    1    6    6    0    0 -0.33608291649E+02  0.90953482542E+02  0.16863667891E+03  0.19452604640E+03  0.00000000000E+00 0. -1.
        -14    1    6    6    0    0  0.19089708226E+02 -0.60244411579E+01  0.65963798443E+02  0.68934269826E+02  0.00000000000E+00 0.  1.
</event>
<event>
12    1  0.8494789E-002  0.2716399E+03  0.7818608E-02  0.1100492E+00
         21   -1    0    0  503  502  0.00000000000E+00  0.00000000000E+00  0.20204957142E+03  0.20204957142E+03  0.00000000000E+00 0.  1.
         21   -1    0    0  501  503 -0.00000000000E+00 -0.00000000000E+00 -0.47430076232E+03  0.47430076232E+03  0.00000000000E+00 0. -1.
          6    2    1    2  501    0  0.50882809970E+02  0.20372170529E+03 -0.29914671301E+03  0.40338223677E+03  0.17069528254E+03 0.  0.
         24    2    3    3    0    0  0.78915112943E+02  0.10112352851E+03 -0.11174194491E+03  0.18784840417E+03  0.79669301664E+02 0.  0.
         -6    2    1    2    0  502 -0.50882809970E+02 -0.20372170529E+03  0.26895522107E+02  0.27296809698E+03  0.17232707072E+03 0.  0.
        -24    2    5    5    0    0  0.11198222213E+02 -0.19211294588E+03  0.26356658565E+02  0.20963407590E+03  0.78860561585E+02 0.  0.
          5    1    3    3  501    0 -0.28032302973E+02  0.10259817677E+03 -0.18740476810E+03  0.21553383260E+03  0.47000000000E+01 0. -1.
        -13    1    4    4    0    0  0.47894883948E+01 -0.10269357208E+02 -0.27480746415E+02  0.29725247183E+02  0.00000000000E+00 0.  1.
         14    1    4    4    0    0  0.74125624549E+02  0.11139288572E+03 -0.84261198491E+02  0.15812315699E+03  0.00000000000E+00 0. -1.
         -5    1    5    5    0  502 -0.62081032183E+02 -0.11608759407E+02  0.53886354192E+00  0.63334021077E+02  0.47000000000E+01 0.  1.
         11    1    6    6    0    0  0.27251640824E+02 -0.11183833103E+03 -0.18025073576E+02  0.11651337903E+03  0.00000000000E+00 0. -1.
        -12    1    6    6    0    0 -0.16053418612E+02 -0.80274614847E+02  0.44381732141E+02  0.93120696871E+02  0.00000000000E+00 0.  1.
</event>
<event>
12    1  0.8494789E-002  0.2117962E+03  0.7818608E-02  0.1141006E+00
         21   -1    0    0  503  502  0.00000000000E+00  0.00000000000E+00  0.16085020277E+03  0.16085020277E+03  0.00000000000E+00 0. -1.
         21   -1    0    0  501  503 -0.00000000000E+00 -0.00000000000E+00 -0.27577417082E+03  0.27577417082E+03  0.00000000000E+00 0. -1.
          6    2    1    2  501    0  0.48001175133E+02  0.11098198319E+03 -0.79050236457E+02  0.22606763897E+03  0.17388652650E+03 0.  0.
         24    2    3    3    0    0  0.36660144116E+02  0.30686719268E+01  0.46646223383E+01  0.88939343874E+02  0.80839750576E+02 0.  0.
         -6    2    1    2    0  502 -0.48001175133E+02 -0.11098198319E+03 -0.35873731593E+02  0.21055673463E+03  0.16860041659E+03 0.  0.
        -24    2    5    5    0    0 -0.79174227387E+02 -0.70247160513E+02  0.20388982027E+02  0.13427654120E+03  0.80070325883E+02 0.  0.
          5    1    3    3  501    0  0.11341031017E+02  0.10791331126E+03 -0.83714858796E+02  0.13712829509E+03  0.47000000000E+01 0. -1.
        -11    1    4    4    0    0  0.52495999222E+02 -0.11307640899E+02 -0.19073737255E+02  0.56986841725E+02  0.00000000000E+00 0.  1.
         12    1    4    4    0    0 -0.15835855106E+02  0.14376312825E+02  0.23738359593E+02  0.31952502148E+02  0.00000000000E+00 0. -1.
         -5    1    5    5    0  502  0.31173052255E+02 -0.40734822675E+02 -0.56262713619E+02  0.76280193426E+02  0.47000000000E+01 0.  1.
         11    1    6    6    0    0 -0.20364856981E+02 -0.64082557112E+02 -0.96884563721E+01  0.67935025670E+02  0.00000000000E+00 0. -1.
        -12    1    6    6    0    0 -0.58809370406E+02 -0.61646034007E+01  0.30077438399E+02  0.66341515534E+02  0.00000000000E+00 0.  1.
</event>
<event>
12    1  0.8494789E-002  0.1966108E+03  0.7818608E-02  0.1153181E+00
         21   -1    0    0  503  502  0.00000000000E+00  0.00000000000E+00  0.15907937941E+03  0.15907937941E+03  0.00000000000E+00 0.  1.
         21   -1    0    0  501  503 -0.00000000000E+00 -0.00000000000E+00 -0.24153625961E+03  0.24153625961E+03  0.00000000000E+00 0. -1.
          6    2    1    2  501    0  0.73240235053E+02 -0.41217461387E+02 -0.57584849325E+02  0.20243785716E+03  0.17493444482E+03 0.  0.
         24    2    3    3    0    0  0.11130081798E+03 -0.37467670265E+01 -0.23623381187E+02  0.13897028885E+03  0.79704245172E+02 0.  0.
         -6    2    1    2    0  502 -0.73240235053E+02  0.41217461387E+02 -0.24872030877E+02  0.19817778185E+03  0.17774364727E+03 0.  0.
        -24    2    5    5    0    0 -0.38448231113E+02 -0.10595458789E+02 -0.76474713562E+02  0.11706064990E+03  0.79147228117E+02 0.  0.
          5    1    3    3  501    0 -0.38060582929E+02 -0.37470694360E+02 -0.33961468138E+02  0.63467568307E+02  0.47000000000E+01 0. -1.
        -13    1    4    4    0    0  0.39899831502E+02  0.14823105402E+02  0.26167207827E+02  0.49964425076E+02  0.00000000000E+00 0.  1.
         14    1    4    4    0    0  0.71400986480E+02 -0.18569872429E+02 -0.49790589014E+02  0.89005863777E+02  0.00000000000E+00 0. -1.
         -5    1    5    5    0  502 -0.34792003940E+02  0.51812920176E+02  0.51602682685E+02  0.81117131949E+02  0.47000000000E+01 0.  1.
         13    1    6    6    0    0 -0.59327914226E+02  0.65201659722E+01 -0.40698141557E+02  0.72240242918E+02  0.00000000000E+00 0. -1.
        -14    1    6    6    0    0  0.20879683113E+02 -0.17115624761E+02 -0.35776572005E+02  0.44820406985E+02  0.00000000000E+00 0.  1.
</event>
<event>
12    1  0.8494789E-002  0.1903193E+03  0.7818608E-02  0.1158396E+00
         21   -1    0    0  501  502  0.00000000000E+00  0.00000000000E+00  0.31879246708E+03  0.31879246708E+03  0.00000000000E+00 0. -1.
         21   -1    0    0  502  503 -0.00000000000E+00 -0.00000000000E+00 -0.21119698230E+03  0.21119698230E+03  0.00000000000E+00 0.  1.
         -6    2    1    2    0  503 -0.54647471150E+02 -0.56331586405E+02 -0.12679062225E+03  0.22868601711E+03  0.17338350211E+03 0.  0.
        -24    2    3    3    0    0 -0.72586494090E+02 -0.34102982771E+02 -0.15327003209E+03  0.18945377898E+03  0.77260721417E+02 0.  0.
          6    2    1    2  501    0  0.54647471150E+02  0.56331586405E+02  0.23438610703E+03  0.30130343227E+03  0.17230007951E+03 0.  0.
         24    2    5    5    0    0  0.54119341216E+02  0.92416363712E+02  0.22797418888E+03  0.26434950462E+03  0.80241774769E+02 0.  0.
          5    1    5    5  501    0  0.52812993345E+00 -0.36084777307E+02  0.64119181450E+01  0.36953927651E+02  0.47000000000E+01 0. -1.
        -11    1    6    6    0    0  0.42544003148E+02  0.42801518680E+02  0.47435468233E+02  0.76759923474E+02  0.00000000000E+00 0.  1.
         12    1    6    6    0    0  0.11575338068E+02  0.49614845032E+02  0.18053872065E+03  0.18758958114E+03  0.00000000000E+00 0. -1.
         -5    1    3    3    0  503  0.17939022940E+02 -0.22228603634E+02  0.26479409842E+02  0.39232238135E+02  0.47000000000E+01 0.  1.
         11    1    4    4    0    0  0.11458258965E+02  0.10090348292E+02 -0.12926492396E+02  0.20005025189E+02  0.00000000000E+00 0. -1.
        -12    1    4    4    0    0 -0.84044753055E+02 -0.44193331063E+02 -0.14034353969E+03  0.16944875379E+03  0.00000000000E+00 0.  1.
</event>
<event>
12    1  0.8494789E-002  0.2245625E+03  0.7818608E-02  0.1130573E+00
         21   -1    0    0  501  502  0.00000000000E+00  0.00000000000E+00  0.87841967819E+02  0.87841967819E+02  0.00000000000E+00 0.  1.
         21   -1    0    0  502  503 -0.00000000000E+00 -0.00000000000E+00 -0.13873951008E+04  0.13873951008E+04  0.00000000000E+00 0.  1.
         -6    2    1    2    0  503 -0.38901392487E+01 -0.14346224741E+03 -0.12146071566E+04  0.12351451536E+04  0.17238461584E+03 0.  0.
        -24    2    3    3    0    0 -0.21618037727E+02 -0.92296608904E+02 -0.39999052513E+03  0.41871723433E+03  0.79659893085E+02 0.  0.
          6    2    1    2  501    0  0.38901392487E+01  0.14346224741E+03 -0.84945976354E+02  0.24009191508E+03  0.17271872849E+03 0.  0.
         24    2    5    5    0    0 -0.65206524947E+02  0.86636012799E+02 -0.59462791798E+02  0.14695195245E+03  0.79381125660E+02 0.  0.
          5    1    5    5  501    0  0.69096664196E+02  0.56826234609E+02 -0.25483184557E+02  0.93139962626E+02  0.47000000000E+01 0. -1.
        -13    1    6    6    0    0 -0.63974453826E+02  0.10092935982E+03 -0.57002419063E+02  0.13239615627E+03  0.00000000000E+00 0.  1.
         14    1    6    6    0    0 -0.12320711211E+01 -0.14293347023E+02 -0.24603727346E+01  0.14555796178E+02  0.00000000000E+00 0. -1.
         -5    1    3    3    0  503  0.17727898479E+02 -0.51165638505E+02 -0.81461663151E+03  0.81642791922E+03  0.47000000000E+01 0.  1.
         11    1    4    4    0    0 -0.28831831532E+02 -0.10502014976E+03 -0.36118775442E+03  0.37724938742E+03  0.00000000000E+00 0. -1.
        -12    1    4    4    0    0  0.72137938048E+01  0.12723540861E+02 -0.38802770705E+02  0.41467846912E+02  0.00000000000E+00 0.  1.
</event>
<event>
12    1  0.8494789E-002  0.1936405E+03  0.7818608E-02  0.1155821E+00
         21   -1    0    0  503  502  0.00000000000E+00  0.00000000000E+00  0.53891331423E+03  0.53891331423E+03  0.00000000000E+00 0.  1.
         21   -1    0    0  501  503 -0.00000000000E+00 -0.00000000000E+00 -0.96636284203E+02  0.96636284203E+02  0.00000000000E+00 0.  1.
          6    2    1    2  501    0 -0.78856579550E+02 -0.25474753370E+02  0.48881355591E+02  0.19707863715E+03  0.17199790435E+03 0.  0.
         24    2    3    3    0    0 -0.19589182406E+02  0.37022616135E+02  0.28581370662E+02  0.10846303499E+03  0.95879742578E+02 0.  0.
         -6    2    1    2    0  502  0.78856579550E+02  0.25474753370E+02  0.39339567443E+03  0.43847096128E+03  0.17501229678E+03 0.  0.
        -24    2    5    5    0    0  0.65613238245E+02 -0.66246817085E+01  0.38879369049E+03  0.40312936995E+03  0.83688539885E+02 0.  0.
          5    1    3    3  501    0 -0.59267397144E+02 -0.62497369505E+02  0.20299984929E+02  0.88615602167E+02  0.47000000000E+01 0. -1.
        -13    1    4    4    0    0 -0.41041318828E+02 -0.15541968434E+02 -0.20880093838E+01  0.43935207034E+02  0.00000000000E+00 0.  1.
         14    1    4    4    0    0  0.21452136422E+02  0.52564584568E+02  0.30669380045E+02  0.64527827953E+02  0.00000000000E+00 0. -1.
         -5    1    5    5    0  502  0.13243341305E+02  0.32099435079E+02  0.46019839391E+01  0.35341591326E+02  0.47000000000E+01 0.  1.
         11    1    6    6    0    0  0.50918976941E+02 -0.41216637129E+02  0.29283403733E+03  0.30007220266E+03  0.00000000000E+00 0. -1.
        -12    1    6    6    0    0  0.14694261304E+02  0.34591955420E+02  0.95959653164E+02  0.10305716729E+03  0.00000000000E+00 0.  1.
</event>
<event>
12    1  0.8494789E-002  0.1748079E+03  0.7818608E-02  0.1173280E+00
         21   -1    0    0  501  502  0.00000000000E+00  0.00000000000E+00  0.38022166849E+03  0.38022166849E+03  0.00000000000E+00 0. -1.
         21   -1    0    0  502  503 -0.00000000000E+00 -0.00000000000E+00 -0.15444582312E+03  0.15444582312E+03  0.00000000000E+00 0. -1.
         -6    2    1    2    0  503  0.12482322898E+01 -0.23198022052E+02 -0.73295792198E+02  0.18825496742E+03  0.17183699628E+03 0.  0.
        -24    2    3    3    0    0 -0.42320011477E+02 -0.63708823079E+02 -0.30465206042E+02  0.11479840899E+03  0.80004677482E+02 0.  0.
          6    2    1    2  501    0 -0.12482322898E+01  0.23198022052E+02  0.29907163757E+03  0.34641252420E+03  0.17325728330E+03 0.  0.
         24    2    5    5    0    0 -0.37559364530E+01  0.11997621355E+02  0.38918262475E+02  0.85963669091E+02  0.75611317094E+02 0.  0.
          5    1    5    5  501    0  0.25077041632E+01  0.11200400697E+02  0.26015337509E+03  0.26044885511E+03  0.47000000000E+01 0. -1.
        -11    1    6    6    0    0 -0.28423217522E+02  0.31318646607E+01 -0.10141610875E+02  0.30340404442E+02  0.00000000000E+00 0.  1.
         12    1    6    6    0    0  0.24667281069E+02  0.88657566946E+01  0.49059873350E+02  0.55623264649E+02  0.00000000000E+00 0. -1.
         -5    1    3    3    0  503  0.43568243767E+02  0.40510801027E+02 -0.42830586156E+02  0.73456558422E+02  0.47000000000E+01 0.  1.
         11    1    4    4    0    0  0.21786364716E+02 -0.13988868683E+02 -0.20573984529E+02  0.33069970880E+02  0.00000000000E+00 0. -1.
        -12    1    4    4    0    0 -0.64106376193E+02 -0.49719954396E+02 -0.98912215126E+01  0.81728438115E+02  0.00000000000E+00 0.  1.
</event>
<event>
12    1  0.8494789E-002  0.1829706E+03  0.7818608E-02  0.1166302E+00
         21   -1    0    0  501  502  0.00000000000E+00  0.00000000000E+00  0.31559898908E+03  0.31559898908E+03  0.00000000000E+00 0. -1.
         21   -1    0    0  502  503 -0.00000000000E+00 -0.00000000000E+00 -0.37502055149E+03  0.37502055149E+03  0.00000000000E+00 0. -1.
         -6    2    1    2    0  503  0.46280923957E+02  0.30789175567E+02 -0.32398906903E+03  0.37208485549E+03  0.17432247583E+03 0.  0.
        -24    2    3    3    0    0  0.33467039471E+02  0.22440766367E+02 -0.33876448979E+03  0.35030654908E+03  0.79559211044E+02 0.  0.
          6    2    1    2  501    0 -0.46280923957E+02 -0.30789175567E+02  0.26456750662E+03  0.31853468507E+03  0.16845914277E+03 0.  0.
         24    2    5    5    0    0  0.11022140908E+02  0.21814387390E+02  0.20060913154E+03  0.21772030206E+03  0.80998464106E+02 0.  0.
          5    1    5    5  501    0 -0.57303064865E+02 -0.52603562957E+02  0.63958375081E+02  0.10081438301E+03  0.47000000000E+01 0. -1.
        -13    1    6    6    0    0  0.15781160995E+02 -0.82031410163E+01  0.33065230850E+01  0.18090595894E+02  0.00000000000E+00 0.  1.
         14    1    6    6    0    0 -0.47590200866E+01  0.30017528407E+02  0.19730260845E+03  0.19962970617E+03  0.00000000000E+00 0. -1.
         -5    1    3    3    0  503  0.12813884486E+02  0.83484091999E+01  0.14775420752E+02  0.21778306413E+02  0.47000000000E+01 0.  1.
         13    1    4    4    0    0 -0.25065412418E+02  0.11599655809E+02 -0.75427936724E+02  0.80325590897E+02  0.00000000000E+00 0. -1.
        -14    1    4    4    0    0  0.58532451889E+02  0.10841110558E+02 -0.26333655306E+03  0.26998095818E+03  0.00000000000E+00 0.  1.
</event>
<event>
12    1  0.8494789E-002  0.1797231E+03  0.7818608E-02  0.1168093E+00
         21   -1    0    0  503  502  0.00000000000E+00  0.00000000000E+00  0.27668340004E+02  0.27668340004E+02  0.00000000000E+00 0. -1.
         21   -1    0    0  501  503 -0.00000000000E+00 -0.00000000000E+00 -0.16869039802E+04  0.16869039802E+04  0.00000000000E+00 0. -1.
          6    2    1    2  501    0  0.57068983300E+02  0.46486403688E+01 -0.13054829015E+04  0.13177834856E+04  0.17026223939E+03 0.  0.
         24    2    3    3    0    0  0.24597508435E+01  0.57644695862E+02 -0.88054114563E+03  0.88605633099E+03  0.80088396181E+02 0.  0.
         -6    2    1    2    0  502 -0.57068983300E+02 -0.46486403688E+01 -0.35375273868E+03  0.39678883457E+03  0.17035815331E+03 0.  0.
        -24    2    5    5    0    0 -0.11159425351E+02  0.29971218400E+02 -0.91203509182E+02  0.12797586977E+03  0.83886449736E+02 0.  0.
          5    1    3    3  501    0  0.54609232457E+02 -0.52996055493E+02 -0.42494175589E+03  0.43172715465E+03  0.47000000000E+01 0. -1.
        -13    1    4    4    0    0  0.12322630837E+02  0.90562391659E+01 -0.26641859915E+02  0.30718909458E+02  0.00000000000E+00 0.  1.
         14    1    4    4    0    0 -0.98628799936E+01  0.48588456696E+02 -0.85389928571E+03  0.85533742153E+03  0.00000000000E+00 0. -1.
         -5    1    5    5    0  502 -0.45909557949E+02 -0.34619858769E+02 -0.26254922950E+03  0.26881296480E+03  0.47000000000E+01 0.  1.
         11    1    6    6    0    0 -0.38893817507E+02 -0.60710036210E+01 -0.21796058942E+02  0.44996158843E+02  0.00000000000E+00 0. -1.
        -12    1    6    6    0    0  0.27734392156E+02  0.36042222021E+02 -0.69407450240E+02  0.82979710925E+02  0.00000000000E+00 0.  1.
</event>
<event>
12    1  0.8494789E-002  0.1811979E+03  0.7818608E-02  0.1167490E+00
         21   -1    0    0  503  502  0.00000000000E+00  0.00000000000E+00  0.25547647885E+03  0.25547647885E+03  0.00000000000E+00 0. -1.
         21   -1    0    0  501  503 -0.00000000000E+00 -0.00000000000E+00 -0.15408826393E+03  0.15408826393E+03  0.00000000000E+00 0. -1.
          6    2    1    2  501    0 -0.52356302322E+02  0.79828259649E+01 -0.36229895061E+02  0.18478446436E+03  0.17328527078E+03 0.  0.
         24    2    3    3    0    0  0.37001215324E+02  0.10803283820E+01 -0.16298818729E+01  0.88598907512E+02  0.80478896939E+02 0.  0.
         -6    2    1    2    0  502  0.52356302322E+02 -0.79828259649E+01  0.13761810999E+03  0.22478027843E+03  0.16965412306E+03 0.  0.
        -24    2    5    5    0    0  0.11972586166E+02 -0.23143908101E+02  0.15665522333E+03  0.17739668816E+03  0.79055314007E+02 0.  0.
          5    1    3    3  501    0 -0.89357517646E+02  0.69024975829E+01 -0.34600013188E+02  0.96185556844E+02  0.47000000000E+01 0. -1.
        -11    1    4    4    0    0  0.88547622489E+01 -0.22160224480E+02  0.31354038729E+02  0.39402513982E+02  0.00000000000E+00 0.  1.
         12    1    4    4    0    0  0.28146453075E+02  0.23240552862E+02 -0.32983920602E+02  0.49196393529E+02  0.00000000000E+00 0. -1.
         -5    1    5    5    0  502  0.40383716156E+02  0.15161082136E+02 -0.19037113341E+02  0.47383590266E+02  0.47000000000E+01 0.  1.
         11    1    6    6    0    0  0.29799699644E+02 -0.41354785469E+02  0.66974873340E+02  0.84165753361E+02  0.00000000000E+00 0. -1.
        -12    1    6    6    0    0 -0.17827113478E+02  0.18210877368E+02  0.89680349988E+02  0.93230934799E+02  0.00000000000E+00 0.  1.
</event>
<event>
12    1  0.8494789E-002  0.2382746E+03  0.7818608E-02  0.1121271E+00
         21   -1    0    0  501  502  0.00000000000E+00  0.00000000000E+00  0.79789676671E+03  0.79789676671E+03  0.00000000000E+00 0. -1.
         21   -1    0    0  502  503 -0.00000000000E+00 -0.00000000000E+00 -0.12934958587E+03  0.12934958587E+03  0.00000000000E+00 0.  1.
         -6    2    1    2    0  503 -0.16321361043E+03  0.91150365706E+01  0.21047708738E+02  0.23729681766E+03  0.17071908829E+03 0.  0.
        -24    2    3    3    0    0 -0.54455196479E+02  0.24728846392E+01  0.68817819925E+02  0.11823135537E+03  0.79191397712E+02 0.  0.
          6    2    1    2  501    0  0.16321361043E+03 -0.91150365706E+01  0.64749947210E+03  0.68994953491E+03  0.17335809135E+03 0.  0.
         24    2    5    5    0    0  0.11674250588E+03 -0.71196370633E+02  0.48354295073E+03  0.50851776675E+03  0.77966646943E+02 0.  0.
          5    1    5    5  501    0  0.46471104550E+02  0.62081334063E+02  0.16395652137E+03  0.18143176816E+03  0.47000000000E+01 0. -1.
        -11    1    6    6    0    0  0.16847898638E+02 -0.12327435246E+01  0.10239349181E+02  0.19753875993E+02  0.00000000000E+00 0.  1.
         12    1    6    6    0    0  0.99894607240E+02 -0.69963627109E+02  0.47330360155E+03  0.48876389076E+03  0.00000000000E+00 0. -1.
         -5    1    3    3    0  503 -0.10875841395E+03  0.66421519314E+01 -0.47770111187E+02  0.11906546229E+03  0.47000000000E+01 0.  1.
         11    1    4    4    0    0 -0.74180063772E+02  0.70373150814E+01  0.45314163840E+02  0.87209971387E+02  0.00000000000E+00 0. -1.
        -12    1    4    4    0    0  0.19724867292E+02 -0.45644304422E+01  0.23503656085E+02  0.31021383985E+02  0.00000000000E+00 0.  1.
</event>
<event>
12    1  0.8494789E-002  0.1954722E+03  0.7818608E-02  0.1153732E+00
         21   -1    0    0  501  502  0.00000000000E+00  0.00000000000E+00  0.95387945797E+03  0.95387945797E+03  0.00000000000E+00 0.  1.
         21   -1    0    0  502  503 -0.00000000000E+00 -0.00000000000E+00 -0.55764221274E+02  0.55764221274E+02  0.00000000000E+00 0.  1.
         -6    2    1    2    0  503 -0.28077726917E+02 -0.87899333824E+02  0.71746998933E+03  0.74348190682E+03  0.17171927249E+03 0.  0.
        -24    2    3    3    0    0 -0.74546538823E+02 -0.50926161410E+02  0.33137197801E+03  0.35281564221E+03  0.80751651452E+02 0.  0.
          6    2    1    2  501    0  0.28077726917E+02  0.87899333824E+02  0.18064524736E+03  0.26616177241E+03  0.17232159489E+03 0.  0.
         24    2    5    5    0    0 -0.45383595595E+02  0.63762524119E+02  0.73303518083E+02  0.13378545908E+03  0.79998831662E+02 0.  0.
          5    1    5    5  501    0  0.73461322511E+02  0.24136809705E+02  0.10734172927E+03  0.13237631333E+03  0.47000000000E+01 0. -1.
        -11    1    6    6    0    0 -0.56178654263E+02  0.46560382122E+02  0.83643324985E+02  0.11099601881E+03  0.00000000000E+00 0.  1.
         12    1    6    6    0    0  0.10795058668E+02  0.17202141997E+02 -0.10339806902E+02  0.22789440268E+02  0.00000000000E+00 0. -1.
         -5    1    3    3    0  503  0.46468811906E+02 -0.36973172414E+02  0.38609801133E+03  0.39066626462E+03  0.47000000000E+01 0.  1.
         11    1    4    4    0    0 -0.20178641958E+02 -0.51229784310E+00  0.91304172292E+01  0.22154109305E+02  0.00000000000E+00 0. -1.
        -12    1    4    4    0    0 -0.54367896865E+02 -0.50413863567E+02  0.32224156078E+03  0.33066153290E+03  0.00000000000E+00 0.  1.
</event>
<event>
12    1  0.8494789E-002  0.2466099E+03  0.7818608E-02  0.1115641E+00
         21   -1    0    0  503  502  0.00000000000E+00  0.00000000000E+00  0.29873103438E+03  0.29873103438E+03  0.00000000000E+00 0.  1.
         21   -1    0    0  501  503 -0.00000000000E+00 -0.00000000000E+00 -0.31949224652E+03  0.31949224652E+03  0.00000000000E+00 0. -1.
          6    2    1    2  501    0 -0.17586447308E+03  0.10365681432E+02  0.17650842290E+03  0.30326832312E+03  0.17257083244E+03 0.  0.
         24    2    3    3    0    0 -0.11676305555E+03  0.47539961990E+02  0.47342158910E+02  0.15636386967E+03  0.79465216296E+02 0.  0.
         -6    2    1    2    0  502  0.17586447308E+03 -0.10365681432E+02 -0.19726963505E+03  0.31495495778E+03  0.17101332193E+03 0.  0.
        -24    2    5    5    0    0  0.11635588585E+03 -0.53286142870E+02 -0.18782818453E+03  0.24082892354E+03  0.79630636802E+02 0.  0.
          5    1    3    3  501    0 -0.59101417528E+02 -0.37174280558E+02  0.12916626399E+03  0.14690445344E+03  0.47000000000E+01 0. -1.
        -13    1    4    4    0    0 -0.37752505924E+01  0.17261619814E+02  0.34403787610E+02  0.38676047336E+02  0.00000000000E+00 0.  1.
         14    1    4    4    0    0 -0.11298780496E+03  0.30278342175E+02  0.12938371300E+02  0.11768782233E+03  0.00000000000E+00 0. -1.
         -5    1    5    5    0  502  0.59508587230E+02  0.42920461438E+02 -0.94414505154E+01  0.74126034239E+02  0.47000000000E+01 0.  1.
         11    1    6    6    0    0  0.71688978796E+02 -0.67308063395E+00 -0.52306204167E+02  0.88745150361E+02  0.00000000000E+00 0. -1.
        -12    1    6    6    0    0  0.44666907053E+02 -0.52613062236E+02 -0.13552198037E+03  0.15208377318E+03  0.00000000000E+00 0.  1.
</event>
<event>
12    1  0.8494789E-002  0.1999363E+03  0.7818608E-02  0.1149929E+00
         21   -1    0    0  501  502  0.00000000000E+00  0.00000000000E+00  0.17395593812E+04  0.17395593812E+04  0.00000000000E+00 0.  1.
         21   -1    0    0  502  503 -0.00000000000E+00 -0.00000000000E+00 -0.69608502888E+02  0.69608502888E+02  0.00000000000E+00 0.  1.
         -6    2    1    2    0  503  0.98557685011E+02 -0.17294183345E+02  0.94468750433E+02  0.22113086371E+03  0.17309479490E+03 0.  0.
        -24    2    3    3    0    0  0.81402754357E+02 -0.75998799493E+02  0.79159213270E+02  0.15790906738E+03  0.79163543209E+02 0.  0.
          6    2    1    2  501    0 -0.98557685011E+02  0.17294183345E+02  0.15754821279E+04  0.15880370204E+04  0.17235120188E+03 0.  0.
         24    2    5    5    0    0 -0.29933354259E+02  0.25761422612E+02  0.13284296641E+04  0.13314478492E+04  0.80426028577E+02 0.  0.
          5    1    5    5  501    0 -0.68624330751E+02 -0.84672392666E+01  0.24705246379E+03  0.25658917120E+03  0.47000000000E+01 0. -1.
        -13    1    6    6    0    0 -0.50000452072E+02  0.15513600987E+02  0.11936663401E+04  0.11948138134E+04  0.00000000000E+00 0.  1.
         14    1    6    6    0    0  0.20067097813E+02  0.10247821624E+02  0.13476332398E+03  0.13663403586E+03  0.00000000000E+00 0. -1.
         -5    1    3    3    0  503  0.17154930654E+02  0.58704616147E+02  0.15309537163E+02  0.63221796328E+02  0.47000000000E+01 0.  1.
         11    1    4    4    0    0 -0.93441125201E+01 -0.72715714843E+01  0.33020500498E+02  0.35079077009E+02  0.00000000000E+00 0. -1.
        -12    1    4    4    0    0  0.90746866877E+02 -0.68727228008E+02  0.46138712771E+02  0.12282999037E+03  0.00000000000E+00 0.  1.
</event>
<event>
12    1  0.8494789E-002  0.1888672E+03  0.7818608E-02  0.1159531E+00
         21   -1    0    0  503  502  0.00000000000E+00  0.00000000000E+00  0.35957271339E+02  0.35957271339E+02  0.00000000000E+00 0.  1.
         21   -1    0    0  501  503 -0.00000000000E+00 -0.00000000000E+00 -0.10154614476E+04  0.10154614476E+04  0.00000000000E+00 0.  1.
          6    2    1    2  501    0 -0.71199811332E+02  0.31923529115E+02 -0.40843124887E+03  0.44998545500E+03  0.17199505752E+03 0.  0.
         24    2    3    3    0    0 -0.17042553472E+02  0.35850188275E+01 -0.73400794457E+02  0.10939247925E+03  0.79219548727E+02 0.  0.
         -6    2    1    2    0  502  0.71199811332E+02 -0.31923529115E+02 -0.57107292740E+03  0.60143326395E+03  0.17178229750E+03 0.  0.
        -24    2    5    5    0    0  0.47882904892E+02  0.19806692795E+02 -0.15792644111E+03  0.18438194442E+03  0.79817685812E+02 0.  0.
          5    1    3    3  501    0 -0.54157257860E+02  0.28338510287E+02 -0.33503045441E+03  0.34059297575E+03  0.47000000000E+01 0. -1.
        -13    1    4    4    0    0 -0.29350934016E+02 -0.17207090812E+01 -0.86067536031E+02  0.90950859951E+02  0.00000000000E+00 0.  1.
         14    1    4    4    0    0  0.12308380544E+02  0.53057279088E+01  0.12666741574E+02  0.18441619298E+02  0.00000000000E+00 0. -1.
         -5    1    5    5    0  502  0.23316906440E+02 -0.51730221910E+02 -0.41314648629E+03  0.41705131953E+03  0.47000000000E+01 0.  1.
         11    1    6    6    0    0 -0.29362226522E+01  0.35304995556E+02 -0.98453913578E+02  0.10463382442E+03  0.00000000000E+00 0. -1.
        -12    1    6    6    0    0  0.50819127545E+02 -0.15498302761E+02 -0.59472527529E+02  0.79748120000E+02  0.00000000000E+00 0.  1.
</event>
<event>
12    1  0.8494789E-002  0.2058790E+03  0.7818608E-02  0.1144908E+00
         21   -1    0    0  503  502  0.00000000000E+00  0.00000000000E+00  0.36564933255E+02  0.36564933255E+02  0.00000000000E+00 0.  1.
         21   -1    0    0  501  503 -0.00000000000E+00 -0.00000000000E+00 -0.11586743353E+04  0.11586743353E+04  0.00000000000E+00 0. -1.
          6    2    1    2  501    0  0.93226439288E+02 -0.64119232326E+02 -0.54873476533E+03  0.58602285414E+03  0.17178619839E+03 0.  0.
         24    2    3    3    0    0  0.28422766614E+02 -0.75242398087E+02 -0.19090200691E+03  0.22216901837E+03  0.80288382401E+02 0.  0.
         -6    2    1    2    0  502 -0.93226439288E+02  0.64119232326E+02 -0.57337463676E+03  0.60921641445E+03  0.17199918787E+03 0.  0.
        -24    2    5    5    0    0 -0.27341357345E+02 -0.30747508623E+02 -0.27502470772E+03  0.28925499066E+03  0.79604652231E+02 0.  0.
          5    1    3    3  501    0  0.64803672674E+02  0.11123165761E+02 -0.35783275842E+03  0.36385383577E+03  0.47000000000E+01 0. -1.
        -11    1    4    4    0    0 -0.11046133938E+02  0.75567913307E+01 -0.65196991520E+02  0.66556516386E+02  0.00000000000E+00 0.  1.
         12    1    4    4    0    0  0.39468900551E+02 -0.82799189417E+02 -0.12570501539E+03  0.15561250198E+03  0.00000000000E+00 0. -1.
         -5    1    5    5    0  502 -0.65885081943E+02  0.94866740948E+02 -0.29834992904E+03  0.31996142380E+03  0.47000000000E+01 0.  1.
         11    1    6    6    0    0  0.30319328463E+01  0.13336401786E+02 -0.17730796954E+03  0.17783466561E+03  0.00000000000E+00 0. -1.
        -12    1    6    6    0    0 -0.30373290191E+02 -0.44083910409E+02 -0.97716738177E+02  0.11142032505E+03  0.00000000000E+00 0.  1.
</event>
<event>
12    1  0.8494789E-002  0.2051988E+03  0.7818608E-02  0.1145620E+00
         21   -1    0    0  501  502  0.00000000000E+00  0.00000000000E+00  0.80750478375E+03  0.80750478375E+03  0.00000000000E+00 0. -1.
         21   -1    0    0  502  503 -0.00000000000E+00 -0.00000000000E+00 -0.61868923500E+02  0.61868923500E+02  0.00000000000E+00 0.  1.
         -6    2    1    2    0  503 -0.84174719086E+02 -0.73591094600E+02  0.19907804975E+03  0.28589965187E+03  0.17206251338E+03 0.  0.
        -24    2    3    3    0    0 -0.18638173310E+02 -0.98485409174E+02  0.16179295342E+03  0.20635699577E+03  0.79746426910E+02 0.  0.
          6    2    1    2  501    0  0.84174719086E+02  0.73591094600E+02  0.54655781050E+03  0.58347405538E+03  0.17092542393E+03 0.  0.
         24    2    5    5    0    0  0.10558496734E+03  0.92451303220E+02  0.38114329594E+03  0.41555098422E+03  0.87846341153E+02 0.  0.
          5    1    5    5  501    0 -0.21410248252E+02 -0.18860208620E+02  0.16541451456E+03  0.16792307116E+03  0.47000000000E+01 0. -1.
        -11    1    6    6    0    0  0.29920009759E+02  0.40951443022E+01  0.20216837392E+02  0.36341404830E+02  0.00000000000E+00 0.  1.
         12    1    6    6    0    0  0.75664957580E+02  0.88356158918E+02  0.36092645855E+03  0.37920957939E+03  0.00000000000E+00 0. -1.
         -5    1    3    3    0  503 -0.65536545777E+02  0.24894314574E+02  0.37285096333E+02  0.79542656097E+02  0.47000000000E+01 0.  1.
         11    1    4    4    0    0 -0.17604051133E+02 -0.92816005167E+01  0.89055845338E+02  0.91252366070E+02  0.00000000000E+00 0. -1.
        -12    1    4    4    0    0 -0.10341221765E+01 -0.89203808657E+02  0.72737108080E+02  0.11510462970E+03  0.00000000000E+00 0.  1.
</event>
<event>
12    1  0.8494789E-002  0.1735608E+03  0.7818608E-02  0.1174516E+00
         21   -1    0    0  503  502  0.00000000000E+00  0.00000000000E+00  0.84313380495E+02  0.84313380495E+02  0.00000000000E+00 0. -1.
         21   -1    0    0  501  503 -0.00000000000E+00 -0.00000000000E+00 -0.53967789246E+03  0.53967789246E+03  0.00000000000E+00 0. -1.
          6    2    1    2  501    0 -0.27206260936E+01 -0.14779542005E+01 -0.41095164402E+03  0.44609931058E+03  0.17353315252E+03 0.  0.
         24    2    3    3    0    0 -0.62705488254E+02 -0.52558409941E+01 -0.17459110581E+03  0.20217134962E+03  0.80197245940E+02 0.  0.
         -6    2    1    2    0  502  0.27206260936E+01  0.14779542005E+01 -0.44412867950E+02  0.17789196238E+03  0.17223083721E+03 0.  0.
        -24    2    5    5    0    0 -0.25831664516E+02  0.53088130768E+02 -0.78836955942E+01  0.10835553986E+03  0.90515997707E+02 0.  0.
          5    1    3    3  501    0  0.59984862161E+02  0.37778867936E+01 -0.23636053820E+03  0.24392796096E+03  0.47000000000E+01 0. -1.
        -13    1    4    4    0    0 -0.17831631596E+01  0.22674401360E+02 -0.97057188800E+02  0.99686538940E+02  0.00000000000E+00 0.  1.
         14    1    4    4    0    0 -0.60922325095E+02 -0.27930242354E+02 -0.77533917014E+02  0.10248481068E+03  0.00000000000E+00 0. -1.
         -5    1    5    5    0  502  0.28552290610E+02 -0.51610176568E+02 -0.36529172356E+02  0.69536422524E+02  0.47000000000E+01 0.  1.
         13    1    6    6    0    0 -0.45619980818E+02  0.62532378118E+02  0.12512332311E+02  0.78409434527E+02  0.00000000000E+00 0. -1.
        -14    1    6    6    0    0  0.19788316301E+02 -0.94442473499E+01 -0.20396027905E+02  0.29946105329E+02  0.00000000000E+00 0.  1.
</event>
<event>
12    1  0.8494789E-002  0.2005784E+03  0.7818608E-02  0.1150487E+00
         21   -1    0    0  503  502  0.00000000000E+00  0.00000000000E+00  0.76795269712E+02  0.76795269712E+02  0.00000000000E+00 0.  1.
         21   -1    0    0  501  503 -0.00000000000E+00 -0.00000000000E+00 -0.51419603060E+03  0.51419603060E+03  0.00000000000E+00 0.  1.
          6    2    1    2  501    0 -0.40864684238E+02  0.85067943737E+02 -0.25192633765E+03  0.32202261605E+03  0.17698928832E+03 0.  0.
         24    2    3    3    0    0 -0.78137363304E+02  0.74791056618E+02 -0.12067090187E+03  0.18511043093E+03  0.89472092784E+02 0.  0.
         -6    2    1    2    0  502  0.40864684238E+02 -0.85067943737E+02 -0.18547442324E+03  0.26896868426E+03  0.17040221233E+03 0.  0.
        -24    2    5    5    0    0  0.19829644989E+02 -0.58474055164E+02 -0.20605859804E+03  0.22902489829E+03  0.78611883744E+02 0.  0.
          5    1    3    3  501    0  0.37272679066E+02  0.10276887119E+02 -0.13125543577E+03  0.13691218512E+03  0.47000000000E+01 0. -1.
        -11    1    4    4    0    0 -0.46866147389E+02  0.36131214240E+02 -0.12175546583E+03  0.13537464265E+03  0.00000000000E+00 0.  1.
         12    1    4    4    0    0 -0.31271215915E+02  0.38659842378E+02  0.10845639513E+01  0.49735788286E+02  0.00000000000E+00 0. -1.
         -5    1    5    5    0  502  0.21035039249E+02 -0.26593888573E+02  0.20584174793E+02  0.39943785969E+02  0.47000000000E+01 0.  1.
         11    1    6    6    0    0 -0.90163889007E+01 -0.62683131856E+02 -0.17646654802E+03  0.18748576708E+03  0.00000000000E+00 0. -1.
        -12    1    6    6    0    0  0.28846033890E+02  0.42090766915E+01 -0.29592050022E+02  0.41539131217E+02  0.00000000000E+00 0.  1.
</event>
<event>
12    1  0.8494789E-002  0.1971050E+03  0.7818608E-02  0.1154063E+00
         21   -1    0    0  503  502  0.00000000000E+00  0.00000000000E+00  0.31643515337E+03  0.31643515337E+03  0.00000000000E+00 0.  1.
         21   -1    0    0  501  503 -0.00000000000E+00 -0.00000000000E+00 -0.19679820815E+03  0.19679820815E+03  0.00000000000E+00 0.  1.
          6    2    1    2  501    0  0.98291840456E+00 -0.78179344372E+02 -0.10376202094E+03  0.21531139442E+03  0.17169584608E+03 0.  0.
         24    2    3    3    0    0  0.90968213213E+01 -0.75934605665E+02 -0.13973321661E+03  0.17807040637E+03  0.79591967592E+02 0.  0.
         -6    2    1    2    0  502 -0.98291840456E+00  0.78179344372E+02  0.22339896617E+03  0.29792196710E+03  0.18093486226E+03 0.  0.
        -24    2    5    5    0    0 -0.56446046095E+02  0.85566664078E+02  0.11074584496E+03  0.17205081575E+03  0.82637950739E+02 0.  0.
          5    1    3    3  501    0 -0.81139029167E+01 -0.22447387076E+01  0.35971195672E+02  0.37240988044E+02  0.47000000000E+01 0. -1.
        -11    1    4    4    0    0 -0.21559211663E+02 -0.75916219418E+02 -0.90535187783E+02  0.12010284012E+03  0.00000000000E+00 0.  1.
         12    1    4    4    0    0  0.30656032984E+02 -0.18386246541E-01 -0.49198028830E+02  0.57967566252E+02  0.00000000000E+00 0. -1.
         -5    1    5    5    0  502  0.55463127690E+02 -0.73873197058E+01  0.11265312121E+03  0.12587115136E+03  0.47000000000E+01 0.  1.
         11    1    6    6    0    0 -0.43811441268E+02  0.10174726383E+03  0.97861127244E+02  0.14781322102E+03  0.00000000000E+00 0. -1.
        -12    1    6    6    0    0 -0.12634604827E+02 -0.16180599753E+02  0.12884717713E+02  0.24237594724E+02  0.00000000000E+00 0.  1.
</event>
<event>
12    1  0.8494789E-002  0.1796022E+03  0.7818608E-02  0.1168233E+00
         21   -1    0    0  501  502  0.00000000000E+00  0.00000000000E+00  0.93269291959E+03  0.93269291959E+03  0.00000000000E+00 0.  1.
         21   -1    0    0  502  503 -0.00000000000E+00 -0.00000000000E+00 -0.35090120640E+02  0.35090120640E+02  0.00000000000E+00 0.  1.
         -6    2    1    2    0  503 -0.27429986980E+02 -0.44645330098E+02  0.38897682874E+03  0.42843894481E+03  0.17178866798E+03 0.  0.
        -24    2    3    3    0    0  0.31650436676E+02 -0.57868638821E+02  0.15309527611E+03  0.18486647258E+03  0.79918205804E+02 0.  0.
          6    2    1    2  501    0  0.27429986980E+02  0.44645330098E+02  0.50862597021E+03  0.53934409542E+03  0.17159856062E+03 0.  0.
         24    2    5    5    0    0 -0.95296528542E+01  0.26324378364E+02  0.48321422195E+03  0.49066638801E+03  0.80459510618E+02 0.  0.
          5    1    5    5  501    0  0.36959639835E+02  0.18320951734E+02  0.25411748261E+02  0.48677707411E+02  0.47000000000E+01 0. -1.
        -11    1    6    6    0    0  0.85994077529E+01  0.51916117028E+02  0.34087124584E+03  0.34490932035E+03  0.00000000000E+00 0.  1.
         12    1    6    6    0    0 -0.18129060607E+02 -0.25591738664E+02  0.14234297611E+03  0.14575706766E+03  0.00000000000E+00 0. -1.
         -5    1    3    3    0  503 -0.59080423657E+02  0.13223308723E+02  0.23588155263E+03  0.24357247223E+03  0.47000000000E+01 0.  1.
         11    1    4    4    0    0  0.53287559161E+02 -0.50602165844E+02  0.14108240882E+03  0.15907353403E+03  0.00000000000E+00 0. -1.
        -12    1    4    4    0    0 -0.21637122485E+02 -0.72664729775E+01  0.12012867284E+02  0.25792938556E+02  0.00000000000E+00 0.  1.
</event>
<event>
12    1  0.8494789E-002  0.2807444E+03  0.7818608E-02  0.1095375E+00
         21   -1    0    0  501  502  0.00000000000E+00  0.00000000000E+00  0.80522490548E+03  0.80522490548E+03  0.00000000000E+00 0.  1.
         21   -1    0    0  502  503 -0.00000000000E+00 -0.00000000000E+00 -0.32927763133E+03  0.32927763133E+03  0.00000000000E+00 0.  1.
         -6    2    1    2    0  503 -0.34254055885E+02  0.21940441657E+03 -0.23787454270E+03  0.36745690860E+03  0.17067115532E+03 0.  0.
        -24    2    3    3    0    0 -0.34708276385E+02  0.23702772345E+03 -0.24090544538E+03  0.34896194625E+03  0.79700691246E+02 0.  0.
          6    2    1    2  501    0  0.34254055885E+02 -0.21940441657E+03  0.71382181685E+03  0.76704562820E+03  0.17177244009E+03 0.  0.
         24    2    5    5    0    0 -0.27829436123E+02 -0.13983874823E+03  0.55757375047E+03  0.58097950069E+03  0.79494276464E+02 0.  0.
          5    1    5    5  501    0  0.62083492008E+02 -0.79565668343E+02  0.15624806638E+03  0.18606612751E+03  0.47000000000E+01 0. -1.
        -11    1    6    6    0    0 -0.50335209469E+02 -0.89709990074E+02  0.28688039086E+03  0.30476527738E+03  0.00000000000E+00 0.  1.
         12    1    6    6    0    0  0.22505773346E+02 -0.50128758157E+02  0.27069335960E+03  0.27621422332E+03  0.00000000000E+00 0. -1.
         -5    1    3    3    0  503  0.45422050007E+00 -0.17623306873E+02  0.30309026784E+01  0.18494962353E+02  0.47000000000E+01 0.  1.
         13    1    4    4    0    0  0.23735341233E+02  0.93562099250E+02 -0.77413365208E+02  0.12373383511E+03  0.00000000000E+00 0. -1.
        -14    1    4    4    0    0 -0.58443617618E+02  0.14346562420E+03 -0.16349208017E+03  0.22522811113E+03  0.00000000000E+00 0.  1.
</event>
<event>
12    1  0.8494789E-002  0.1848560E+03  0.7818608E-02  0.1163199E+00
         21   -1    0    0  503  502  0.00000000000E+00  0.00000000000E+00  0.59180277693E+03  0.59180277693E+03  0.00000000000E+00 0.  1.
         21   -1    0    0  501  503 -0.00000000000E+00 -0.00000000000E+00 -0.81840417760E+02  0.81840417760E+02  0.00000000000E+00 0.  1.
          6    2    1    2  501    0 -0.22513902520E+02 -0.65253578609E+02  0.72105140858E+02  0.19836360074E+03  0.17141779788E+03 0.  0.
         24    2    3    3    0    0  0.34064206298E+02 -0.48729032384E+01  0.77792259487E+02  0.11528928657E+03  0.77819461742E+02 0.  0.
         -6    2    1    2    0  502  0.22513902520E+02  0.65253578609E+02  0.43785721831E+03  0.47527959395E+03  0.17148423680E+03 0.  0.
        -24    2    5    5    0    0  0.53791447293E+02  0.10927600792E+02  0.37267258348E+03  0.38472174896E+03  0.78185915478E+02 0.  0.
          5    1    3    3  501    0 -0.56578108818E+02 -0.60380675370E+02 -0.56871186290E+01  0.83074314165E+02  0.47000000000E+01 0. -1.
        -13    1    4    4    0    0 -0.98284731513E+00 -0.33494631328E+02  0.12319908502E+02  0.35702051232E+02  0.00000000000E+00 0.  1.
         14    1    4    4    0    0  0.35047053613E+02  0.28621728090E+02  0.65472350985E+02  0.79587235342E+02  0.00000000000E+00 0. -1.
         -5    1    5    5    0  502 -0.31277544772E+02  0.54325977817E+02  0.65184634830E+02  0.90557844998E+02  0.47000000000E+01 0.  1.
         11    1    6    6    0    0  0.33734570768E+02 -0.17244351733E+02  0.31648486309E+03  0.31874450191E+03  0.00000000000E+00 0. -1.
        -12    1    6    6    0    0  0.20056876524E+02  0.28171952525E+02  0.56187720387E+02  0.65977247042E+02  0.00000000000E+00 0.  1.
</event>
<event>
12    1  0.8494789E-002  0.2497782E+03  0.7818608E-02  0.1114812E+00
         21   -1    0    0  501  502  0.00000000000E+00  0.00000000000E+00  0.21299697526E+03  0.21299697526E+03  0.00000000000E+00 0. -1.
         21   -1    0    0  502  503 -0.00000000000E+00 -0.00000000000E+00 -0.37697035516E+03  0.37697035516E+03  0.00000000000E+00 0.  1.
         -6    2    1    2    0  503  0.78315151201E+02 -0.16238216854E+03 -0.23027404020E+03  0.33972825676E+03  0.17288124039E+03 0.  0.
        -24    2    3    3    0    0  0.31523088751E+02 -0.17103485122E+03 -0.13859805002E+03  0.23633123939E+03  0.79977557987E+02 0.  0.
          6    2    1    2  501    0 -0.78315151201E+02  0.16238216854E+03  0.66300660297E+02  0.25023907367E+03  0.16038262021E+03 0.  0.
         24    2    5    5    0    0 -0.93728263846E+02  0.63513311653E+02  0.56764666334E+02  0.14961283412E+03  0.79641977559E+02 0.  0.
          5    1    5    5  501    0  0.15413112644E+02  0.98868856888E+02  0.95359939624E+01  0.10062623954E+03  0.47000000000E+01 0. -1.
        -11    1    6    6    0    0 -0.31844631883E+02  0.52320127501E+02 -0.50174288019E+01  0.61454462110E+02  0.00000000000E+00 0.  1.
         12    1    6    6    0    0 -0.61883631963E+02  0.11193184151E+02  0.61782095136E+02  0.88158372012E+02  0.00000000000E+00 0. -1.
         -5    1    3    3    0  503  0.46792062450E+02  0.86526826836E+01 -0.91675990180E+02  0.10339701737E+03  0.47000000000E+01 0.  1.
         13    1    4    4    0    0  0.21039070585E+02 -0.96212953367E+02 -0.27998138474E+02  0.10238882090E+03  0.00000000000E+00 0. -1.
        -14    1    4    4    0    0  0.10484018167E+02 -0.74821897857E+02 -0.11059991155E+03  0.13394241849E+03  0.00000000000E+00 0.  1.
</event>
<event>
12    1  0.8494789E-002  0.1998574E+03  0.7818608E-02  0.1152232E+00
         21   -1    0    0  503  502  0.00000000000E+00  0.00000000000E+00  0.16790970242E+03  0.16790970242E+03  0.00000000000E+00 0. -1.
         21   -1    0    0  501  503 -0.00000000000E+00 -0.00000000000E+00 -0.26769891914E+03  0.26769891914E+03  0.00000000000E+00 0.  1.
          6    2    1    2  501    0 -0.92404140789E+02 -0.33255820987E+02 -0.13559528017E+03  0.23256908601E+03  0.16142436278E+03 0.  0.
         24    2    3    3    0    0 -0.83241818394E+02  0.15055433137E+02 -0.14161913721E+03  0.18280662747E+03  0.78780813821E+02 0.  0.
         -6    2    1    2    0  502  0.92404140789E+02  0.33255820987E+02  0.35806063447E+02  0.20303953555E+03  0.17406465452E+03 0.  0.
        -24    2    5    5    0    0  0.10630360811E+03  0.74112070494E+02  0.11032112101E+02  0.15305686874E+03  0.80694742588E+02 0.  0.
          5    1    3    3  501    0 -0.91623223954E+01 -0.48311254125E+02  0.60238570350E+01  0.49762458544E+02  0.47000000000E+01 0. -1.
        -13    1    4    4    0    0 -0.70785995290E+02  0.18945987625E+02 -0.46477410200E+02  0.86774173780E+02  0.00000000000E+00 0.  1.
         14    1    4    4    0    0 -0.12455823104E+02 -0.38905544878E+01 -0.95141727007E+02  0.96032453688E+02  0.00000000000E+00 0. -1.
         -5    1    5    5    0  502 -0.13899467325E+02 -0.40856249507E+02  0.24773951347E+02  0.49982666805E+02  0.47000000000E+01 0.  1.
         11    1    6    6    0    0  0.91884701969E+02  0.16674767079E+02  0.87300741921E+01  0.93792646345E+02  0.00000000000E+00 0. -1.
        -12    1    6    6    0    0  0.14418906146E+02  0.57437303415E+02  0.23020379087E+01  0.59264222399E+02  0.00000000000E+00 0.  1.
</event>
<event>
12    1  0.8494789E-002  0.2809219E+03  0.7818608E-02  0.1095779E+00
         21   -1    0    0  501  502  0.00000000000E+00  0.00000000000E+00  0.81435630215E+03  0.81435630215E+03  0.00000000000E+00 0. -1.
         21   -1    0    0  502  503 -0.00000000000E+00 -0.00000000000E+00 -0.12229647254E+03  0.12229647254E+03  0.00000000000E+00 0.  1.
         -6    2    1    2    0  503  0.12044017211E+03  0.17680366717E+03  0.12440194543E+03  0.30328667891E+03  0.17533280867E+03 0.  0.
        -24    2    3    3    0    0  0.97535423925E+02  0.13621942900E+03  0.16271184768E+03  0.24277679140E+03  0.66306359469E+02 0.  0.
          6    2    1    2  501    0 -0.12044017211E+03 -0.17680366717E+03  0.56765788418E+03  0.63336609578E+03  0.18207626433E+03 0.  0.
         24    2    5    5    0    0 -0.48104548026E+02 -0.42716825595E+02  0.10841696151E+03  0.14949003867E+03  0.80338405436E+02 0.  0.
          5    1    5    5  501    0 -0.72335624082E+02 -0.13408684158E+03  0.45924092267E+03  0.48387605712E+03  0.47000000000E+01 0. -1.
        -13    1    6    6    0    0  0.12045438485E+02 -0.40825763601E+02  0.40629005528E+02  0.58843450376E+02  0.00000000000E+00 0.  1.
         14    1    6    6    0    0 -0.60149986511E+02 -0.18910619932E+01  0.67787955979E+02  0.90646588289E+02  0.00000000000E+00 0. -1.
         -5    1    3    3    0  503  0.22904748184E+02  0.40584238170E+02 -0.38309902247E+02  0.60509887517E+02  0.47000000000E+01 0.  1.
         13    1    4    4    0    0  0.64196472760E+02  0.71992873602E+02  0.49510698063E+02  0.10842264610E+03  0.00000000000E+00 0. -1.
        -14    1    4    4    0    0  0.33338951165E+02  0.64226555403E+02  0.11320114962E+03  0.13435414530E+03  0.00000000000E+00 0.  1.
</event>
<event>
12    1  0.8494789E-002  0.1914042E+03  0.7818608E-02  0.1158275E+00
         21   -1    0    0  501  502  0.00000000000E+00  0.00000000000E+00  0.13570084379E+04  0.13570084379E+04  0.00000000000E+00 0. -1.
         21   -1    0    0  502  503 -0.00000000000E+00 -0.00000000000E+00 -0.30658142438E+02  0.30658142438E+02  0.00000000000E+00 0. -1.
         -6    2    1    2    0  503 -0.31964681535E+02  0.74628114701E+02  0.40970896626E+03  0.45221346111E+03  0.17333343879E+03 0.  0.
        -24    2    3    3    0    0  0.33251339819E+02  0.87333618791E+02  0.28845699102E+03  0.31387080400E+03  0.81084112907E+02 0.  0.
          6    2    1    2  501    0  0.31964681535E+02 -0.74628114701E+02  0.91664132916E+03  0.93545311919E+03  0.16807770675E+03 0.  0.
         24    2    5    5    0    0 -0.38870717729E+01  0.22258733030E+02  0.41205850170E+03  0.42038193067E+03  0.80113658537E+02 0.  0.
          5    1    5    5  501    0  0.35851753308E+02 -0.96886847730E+02  0.50458282746E+03  0.51507118852E+03  0.47000000000E+01 0. -1.
        -13    1    6    6    0    0 -0.19828943288E+01 -0.13797970434E+02  0.11149133303E+02  0.17849902841E+02  0.00000000000E+00 0.  1.
         14    1    6    6    0    0 -0.19041774441E+01  0.36056703464E+02  0.40090936840E+03  0.40253202783E+03  0.00000000000E+00 0. -1.
         -5    1    3    3    0  503 -0.65216021354E+02 -0.12705504090E+02  0.12125197524E+03  0.13834265710E+03  0.47000000000E+01 0.  1.
         11    1    4    4    0    0  0.18346323702E+02  0.74445654625E+02  0.10860588281E+03  0.13294352511E+03  0.00000000000E+00 0. -1.
        -12    1    4    4    0    0  0.14905016117E+02  0.12887964166E+02  0.17985110821E+03  0.18092727890E+03  0.00000000000E+00 0.  1.
</event>
<event>
12    1  0.8494789E-002  0.2503387E+03  0.7818608E-02  0.1113251E+00
         21   -1    0    0  503  502  0.00000000000E+00  0.00000000000E+00  0.18418196512E+03  0.18418196512E+03  0.00000000000E+00 0.  1.
         21   -1    0    0  501  503 -0.00000000000E+00 -0.00000000000E+00 -0.40259457911E+03  0.40259457911E+03  0.00000000000E+00 0. -1.
          6    2    1    2  501    0  0.16657529920E+03  0.69240261418E+02 -0.22573100756E+03  0.33633086182E+03  0.17211164032E+03 0.  0.
         24    2    3    3    0    0  0.62747038527E+02  0.92650349863E+02 -0.16443784027E+03  0.21341917681E+03  0.77373532578E+02 0.  0.
         -6    2    1    2    0  502 -0.16657529920E+03 -0.69240261418E+02  0.73183935630E+01  0.25044568241E+03  0.17357400970E+03 0.  0.
        -24    2    5    5    0    0 -0.15762540850E+03 -0.39429025933E+02 -0.47651695923E+02  0.18710050861E+03  0.79595846051E+02 0.  0.
          5    1    3    3  501    0  0.10382826068E+03 -0.23410088444E+02 -0.61293167284E+02  0.12291168501E+03  0.47000000000E+01 0. -1.
        -13    1    4    4    0    0 -0.16634352026E+02  0.30998477792E+02 -0.36092825942E+02  0.50401382692E+02  0.00000000000E+00 0.  1.
         14    1    4    4    0    0  0.79381390553E+02  0.61651872071E+02 -0.12834501433E+03  0.16301779412E+03  0.00000000000E+00 0. -1.
         -5    1    5    5    0  502 -0.89498907068E+01 -0.29811235486E+02  0.54970089486E+02  0.63345173794E+02  0.47000000000E+01 0.  1.
         13    1    6    6    0    0 -0.84225053139E+02 -0.59497347550E+02 -0.40060775950E+02  0.11062847604E+03  0.00000000000E+00 0. -1.
        -14    1    6    6    0    0 -0.73400355358E+02  0.20068321617E+02 -0.75909199730E+01  0.76472032569E+02  0.00000000000E+00 0.  1.
</event>
<event>
12    1  0.8494789E-002  0.2314719E+03  0.7818608E-02  0.1126786E+00
         21   -1    0    0  501  502  0.00000000000E+00  0.00000000000E+00  0.23716976770E+03  0.23716976770E+03  0.00000000000E+00 0.  1.
         21   -1    0    0  502  503 -0.00000000000E+00 -0.00000000000E+00 -0.23436790327E+03  0.23436790327E+03  0.00000000000E+00 0.  1.
         -6    2    1    2    0  503 -0.13908860652E+03 -0.68576041727E+02 -0.58050899767E+02  0.23220042368E+03  0.16278456878E+03 0.  0.
        -24    2    3    3    0    0 -0.11642163259E+03 -0.15341248780E+02 -0.90768913391E+02  0.16556489786E+03  0.73371583839E+02 0.  0.
          6    2    1    2  501    0  0.13908860652E+03  0.68576041727E+02  0.60852764195E+02  0.23933724728E+03  0.17184570133E+03 0.  0.
         24    2    5    5    0    0  0.17049375779E+03  0.56234042999E+02  0.57869403811E+02  0.20513784819E+03  0.80636715114E+02 0.  0.
          5    1    5    5  501    0 -0.31405151277E+02  0.12341998728E+02  0.29833603841E+01  0.34199399095E+02  0.47000000000E+01 0. -1.
        -11    1    6    6    0    0  0.99311207205E+02  0.50013604253E+02  0.71770253980E+02  0.13234442128E+03  0.00000000000E+00 0.  1.
         12    1    6    6    0    0  0.71182550587E+02  0.62204387465E+01 -0.13900850168E+02  0.72793426913E+02  0.00000000000E+00 0. -1.
         -5    1    3    3    0  503 -0.22666973927E+02 -0.53234792947E+02  0.32718013624E+02  0.66635525829E+02  0.47000000000E+01 0.  1.
         13    1    4    4    0    0 -0.61501223550E+02 -0.12632287218E+02 -0.40930297456E+01  0.62918423940E+02  0.00000000000E+00 0. -1.
        -14    1    4    4    0    0 -0.54920409038E+02 -0.27089615617E+01 -0.86675883645E+02  0.10264647392E+03  0.00000000000E+00 0.  1.
</event>
<event>
12    1  0.8494789E-002  0.2155973E+03  0.7818608E-02  0.1137559E+00
         21   -1    0    0  501  502  0.00000000000E+00  0.00000000000E+00  0.31173460017E+02  0.31173460017E+02  0.00000000000E+00 0.  1.
         21   -1    0    0  502  503 -0.00000000000E+00 -0.00000000000E+00 -0.16258797191E+04  0.16258797191E+04  0.00000000000E+00 0.  1.
         -6    2    1    2    0  503  0.10667701501E+03  0.65866546779E+02 -0.10498829508E+04  0.10717912070E+04  0.17539610461E+03 0.  0.
        -24    2    3    3    0    0  0.58696075506E+02 -0.51823308571E+01 -0.27379127683E+03  0.29096440805E+03  0.78908413025E+02 0.  0.
          6    2    1    2  501    0 -0.10667701501E+03 -0.65866546779E+02 -0.54482330825E+03  0.58526197209E+03  0.17314950546E+03 0.  0.
         24    2    5    5    0    0 -0.78529586815E+02 -0.67881319132E+02 -0.19467536167E+03  0.23394728193E+03  0.77833571099E+02 0.  0.
          5    1    5    5  501    0 -0.28147428191E+02  0.20147723528E+01 -0.35014794658E+03  0.35131469015E+03  0.47000000000E+01 0. -1.
        -13    1    6    6    0    0  0.88529019949E+01 -0.34783792941E+02 -0.62607336481E+02  0.72166229681E+02  0.00000000000E+00 0.  1.
         14    1    6    6    0    0 -0.87382488809E+02 -0.33097526191E+02 -0.13206802519E+03  0.16178105225E+03  0.00000000000E+00 0. -1.
         -5    1    3    3    0  503  0.47980939499E+02  0.71048877636E+02 -0.77609167401E+03  0.78082679900E+03  0.47000000000E+01 0.  1.
         13    1    4    4    0    0  0.43354493366E+02 -0.25835940642E+01 -0.27183396441E+03  0.27528165805E+03  0.00000000000E+00 0. -1.
        -14    1    4    4    0    0  0.15341582140E+02 -0.25987367930E+01 -0.19573124256E+01  0.15682749995E+02  0.00000000000E+00 0.  1.
</event>
<event>
12    1  0.8494789E-002  0.1734910E+03  0.7818608E-02  0.1174513E+00
         21   -1    0    0  503  502  0.00000000000E+00  0.00000000000E+00  0.12953290945E+03  0.12953290945E+03  0.00000000000E+00 0.  1.
         21   -1    0    0  501  503 -0.00000000000E+00 -0.00000000000E+00 -0.23165320277E+03  0.23165320277E+03  0.00000000000E+00 0.  1.
          6    2    1    2  501    0 -0.47274537989E+01 -0.10364062346E+02 -0.41441067818E+02  0.17738980027E+03  0.17210466737E+03 0.  0.
         24    2    3    3    0    0  0.61213309356E+02 -0.14286407832E+02 -0.39548063833E+02  0.11113844176E+03  0.82683330808E+02 0.  0.
         -6    2    1    2    0  502  0.47274537989E+01  0.10364062346E+02 -0.60679225498E+02  0.18379631196E+03  0.17311658867E+03 0.  0.
        -24    2    5    5    0    0  0.50474500551E+02 -0.41441562305E+02 -0.42347749851E+02  0.11213915578E+03  0.80726575855E+02 0.  0.
          5    1    3    3  501    0 -0.65940763155E+02  0.39223454859E+01 -0.18930039847E+01  0.66251358504E+02  0.47000000000E+01 0. -1.
        -11    1    4    4    0    0  0.61050702138E+02 -0.42773046121E+01 -0.61653895651E+02  0.86871666354E+02  0.00000000000E+00 0.  1.
         12    1    4    4    0    0  0.16260721860E+00 -0.10009103220E+02  0.22105831818E+02  0.24266775409E+02  0.00000000000E+00 0. -1.
         -5    1    5    5    0  502 -0.45747046752E+02  0.51805624651E+02 -0.18331475647E+02  0.71657156177E+02  0.47000000000E+01 0.  1.
         11    1    6    6    0    0  0.45143657729E+01 -0.53152451802E+02 -0.88478165796E+01  0.54072603869E+02  0.00000000000E+00 0. -1.
        -12    1    6    6    0    0  0.45960134778E+02  0.11710889497E+02 -0.33499933271E+02  0.58066551911E+02  0.00000000000E+00 0.  1.
</event>
<event>
12    1  0.8494789E-002  0.1846036E+03  0.7818608E-02  0.1163965E+00
         21   -1    0    0  503  502  0.00000000000E+00  0.00000000000E+00  0.58815228859E+02  0.58815228859E+02  0.00000000000E+00 0.  1.
         21   -1    0    0  501  503 -0.00000000000E+00 -0.00000000000E+00 -0.15974875846E+04  0.15974875846E+04  0.00000000000E+00 0.  1.
          6    2    1    2  501    0  0.57766249754E+02 -0.33840120057E+02 -0.14310593238E+04  0.14426229952E+04  0.16955301460E+03 0.  0.
         24    2    3    3    0    0  0.43429830113E+02 -0.45526776417E+02 -0.43946466831E+03  0.45084471271E+03  0.78567950005E+02 0.  0.
         -6    2    1    2    0  502 -0.57766249754E+02  0.33840120057E+02 -0.10761303199E+03  0.21367981829E+03  0.17203606237E+03 0.  0.
        -24    2    5    5    0    0  0.12897440690E+02  0.36666689213E+02 -0.11037679481E+03  0.14274974692E+03  0.81753674760E+02 0.  0.
          5    1    3    3  501    0  0.14336419641E+02  0.11686656360E+02 -0.99159465548E+03  0.99177828250E+03  0.47000000000E+01 0. -1.
        -11    1    4    4    0    0 -0.14274425179E+02 -0.14205525171E+02 -0.24018283205E+03  0.24102561891E+03  0.00000000000E+00 0.  1.
         12    1    4    4    0    0  0.57704255291E+02 -0.31321251245E+02 -0.19928183627E+03  0.20981909380E+03  0.00000000000E+00 0. -1.
         -5    1    5    5    0  502 -0.70663690443E+02 -0.28265691566E+01  0.27637628247E+01  0.70930071375E+02  0.47000000000E+01 0.  1.
         13    1    6    6    0    0 -0.17874916303E+02 -0.17097430591E+02 -0.52214131849E+02  0.57776728277E+02  0.00000000000E+00 0. -1.
        -14    1    6    6    0    0  0.30772356993E+02  0.53764119805E+02 -0.58162662966E+02  0.84973018639E+02  0.00000000000E+00 0.  1.
</event>
<event>
12    1  0.8494789E-002  0.2091698E+03  0.7818608E-02  0.1142474E+00
         21   -1    0    0  501  502  0.00000000000E+00  0.00000000000E+00  0.17472439238E+03  0.17472439238E+03  0.00000000000E+00 0. -1.
         21   -1    0    0  502  503 -0.00000000000E+00 -0.00000000000E+00 -0.45566675351E+03  0.45566675351E+03  0.00000000000E+00 0. -1.
         -6    2    1    2    0  503 -0.14568018814E+02  0.11524452897E+03 -0.35255706515E+03  0.40930136872E+03  0.17244592665E+03 0.  0.
        -24    2    3    3    0    0 -0.52858933922E+02  0.16129065053E+02 -0.13979977509E+03  0.17144043489E+03  0.82423491589E+02 0.  0.
          6    2    1    2  501    0  0.14568018814E+02 -0.11524452897E+03  0.71614704020E+02  0.22108977717E+03  0.17394969131E+03 0.  0.
         24    2    5    5    0    0 -0.30123318785E+02 -0.15741366189E+02 -0.88128171479E+01  0.85484204930E+02  0.77940224546E+02 0.  0.
          5    1    5    5  501    0  0.44691337599E+02 -0.99503162783E+02  0.80427521168E+02  0.13560557224E+03  0.47000000000E+01 0. -1.
        -11    1    6    6    0    0 -0.20995366396E+02  0.52740253151E+01  0.32026669892E+02  0.38656543269E+02  0.00000000000E+00 0.  1.
         12    1    6    6    0    0 -0.91279523890E+01 -0.21015391504E+02 -0.40839487040E+02  0.46827661661E+02  0.00000000000E+00 0. -1.
         -5    1    3    3    0  503  0.38290915108E+02  0.99115463919E+02 -0.21275729006E+03  0.23786093383E+03  0.47000000000E+01 0.  1.
         13    1    4    4    0    0  0.14376694497E+02  0.26189251417E+02 -0.30293211134E+02  0.42546972575E+02  0.00000000000E+00 0. -1.
        -14    1    4    4    0    0 -0.67235628419E+02 -0.10060186364E+02 -0.10950656395E+03  0.12889346231E+03  0.00000000000E+00 0.  1.
</event>
<event>
12    1  0.8494789E-002  0.3027118E+03  0.7818608E-02  0.1084086E+00
         21   -1    0    0  503  502  0.00000000000E+00  0.00000000000E+00  0.77122788911E+03  0.77122788911E+03  0.00000000000E+00 0.  1.
         21   -1    0    0  501  503 -0.00000000000E+00 -0.00000000000E+00 -0.11837157979E+03  0.11837157979E+03  0.00000000000E+00 0.  1.
          6    2    1    2  501    0 -0.24680825923E+03 -0.23159721302E+02  0.34223606250E+03  0.45587217250E+03  0.17100650770E+03 0.  0.
         24    2    3    3    0    0 -0.21093060501E+03 -0.71467633628E+02  0.23848026827E+03  0.33583794696E+03  0.79466631234E+02 0.  0.
         -6    2    1    2    0  502  0.24680825923E+03  0.23159721302E+02  0.31062024683E+03  0.43372729639E+03  0.17373468388E+03 0.  0.
        -24    2    5    5    0    0  0.90223496798E+02  0.66124774746E+02  0.16430086284E+03  0.21510379405E+03  0.82232010060E+02 0.  0.
          5    1    3    3  501    0 -0.35877654220E+02  0.48307912326E+02  0.10375579423E+03  0.12003422555E+03  0.47000000000E+01 0. -1.
        -13    1    4    4    0    0 -0.15740704894E+03 -0.40870153828E+02  0.11942441243E+03  0.20176604970E+03  0.00000000000E+00 0.  1.
         14    1    4    4    0    0 -0.53523556072E+02 -0.30597479800E+02  0.11905585584E+03  0.13407189726E+03  0.00000000000E+00 0. -1.
         -5    1    5    5    0  502  0.15658476243E+03 -0.42965053444E+02  0.14631938399E+03  0.21862350234E+03  0.47000000000E+01 0.  1.
         13    1    6    6    0    0  0.13124812407E+02 -0.77375424710E+01  0.73142750755E+02  0.74712731527E+02  0.00000000000E+00 0. -1.
        -14    1    6    6    0    0  0.77098684391E+02  0.73862317217E+02  0.91158112081E+02  0.14039106253E+03  0.00000000000E+00 0.  1.
</event>
<event>
12    1  0.8494789E-002  0.2280389E+03  0.7818608E-02  0.1128052E+00
         21   -1    0    0  503  502  0.00000000000E+00  0.00000000000E+00  0.17278027932E+03  0.17278027932E+03  0.00000000000E+00 0. -1.
         21   -1    0    0  501  503 -0.00000000000E+00 -0.00000000000E+00 -0.48463771372E+03  0.48463771372E+03  0.00000000000E+00 0. -1.
          6    2    1    2  501    0  0.13856562047E+03  0.56772528955E+02 -0.35841438957E+03  0.42480893791E+03  0.17198316155E+03 0.  0.
         24    2    3    3    0    0  0.78123115720E+02  0.83621595475E+02 -0.14302265777E+03  0.19944288705E+03  0.78906223575E+02 0.  0.
         -6    2    1    2    0  502 -0.13856562047E+03 -0.56772528955E+02  0.46556955174E+02  0.23260905513E+03  0.17180183711E+03 0.  0.
        -24    2    5    5    0    0 -0.12315765853E+03 -0.88747893889E+02 -0.21607305519E+01  0.17214971213E+03  0.81159454819E+02 0.  0.
          5    1    3    3  501    0  0.60442504751E+02 -0.26849066520E+02 -0.21539173179E+03  0.22536605086E+03  0.47000000000E+01 0. -1.
        -13    1    4    4    0    0  0.27178414741E+02  0.34491332151E+02 -0.48258761781E+01  0.44176999698E+02  0.00000000000E+00 0.  1.
         14    1    4    4    0    0  0.50944700979E+02  0.49130263323E+02 -0.13819678160E+03  0.15526588735E+03  0.00000000000E+00 0. -1.
         -5    1    5    5    0  502 -0.15407961946E+02  0.31975364934E+02  0.48717685726E+02  0.60459343004E+02  0.47000000000E+01 0.  1.
         11    1    6    6    0    0 -0.10548699128E+03 -0.82960319939E+02  0.27645639751E+02  0.13701898194E+03  0.00000000000E+00 0. -1.
        -12    1    6    6    0    0 -0.17670667241E+02 -0.57875739502E+01 -0.29806370303E+02  0.35130730189E+02  0.00000000000E+00 0.  1.
</event>
<event>
12    1  0.8494789E-002  0.1987459E+03  0.7818608E-02  0.1150862E+00
         21   -1    0    0  503  502  0.00000000000E+00  0.00000000000E+00  0.14972667220E+03  0.14972667220E+03  0.00000000000E+00 0.  1.
         21   -1    0    0  501  503 -0.00000000000E+00 -0.00000000000E+00 -0.44501840387E+03  0.44501840387E+03  0.00000000000E+00 0. -1.
          6    2    1    2  501    0  0.69175395512E+02 -0.71719373713E+02 -0.33766073182E+03  0.39180951068E+03  0.17196226022E+03 0.  0.
         24    2    3    3    0    0  0.82938582829E+02 -0.10933228485E+03 -0.26819559043E+03  0.31148733269E+03  0.79139918282E+02 0.  0.
         -6    2    1    2    0  502 -0.69175395512E+02  0.71719373713E+02  0.42369000151E+02  0.20293556539E+03  0.17163568282E+03 0.  0.
        -24    2    5    5    0    0 -0.12758394184E+02 -0.24676808231E+02  0.15244211635E+02  0.87901022390E+02  0.81990744979E+02 0.  0.
          5    1    3    3  501    0 -0.13763187317E+02  0.37612911141E+02 -0.69465141385E+02  0.80322177991E+02  0.47000000000E+01 0. -1.
        -13    1    4    4    0    0  0.81608735790E+02 -0.78619185680E+02 -0.14237688637E+03  0.18196741436E+03  0.00000000000E+00 0.  1.
         14    1    4    4    0    0  0.13298470399E+01 -0.30713099174E+02 -0.12581870406E+03  0.12951991833E+03  0.00000000000E+00 0. -1.
         -5    1    5    5    0  502 -0.56417001328E+02  0.96396181944E+02  0.27124788515E+02  0.11503454300E+03  0.47000000000E+01 0.  1.
         11    1    6    6    0    0 -0.15319207768E+02 -0.35608434119E+00 -0.31565414164E+02  0.35088178836E+02  0.00000000000E+00 0. -1.
        -12    1    6    6    0    0  0.25608135842E+01 -0.24320723890E+02  0.46809625799E+02  0.52812843554E+02  0.00000000000E+00 0.  1.
</event>
<event>
12    1  0.8494789E-002  0.1967176E+03  0.7818608E-02  0.1152637E+00
         21   -1    0    0  501  502  0.00000000000E+00  0.00000000000E+00  0.11192102325E+03  0.11192102325E+03  0.00000000000E+00 0. -1.
         21   -1    0    0  502  503 -0.00000000000E+00 -0.00000000000E+00 -0.35606410411E+03  0.35606410411E+03  0.00000000000E+00 0. -1.
         -6    2    1    2    0  503  0.85318577494E+02  0.40715862458E+02 -0.16326208764E+03  0.25528917599E+03  0.17199131662E+03 0.  0.
        -24    2    3    3    0    0  0.30776728836E+02  0.37597399972E+02 -0.11843456808E+02  0.94248094810E+02  0.79885320201E+02 0.  0.
          6    2    1    2  501    0 -0.85318577494E+02 -0.40715862458E+02 -0.80880993215E+02  0.21269595137E+03  0.17251316339E+03 0.  0.
         24    2    5    5    0    0  0.10750023640E+02 -0.12257930791E+00  0.21198559553E+01  0.79323458990E+02  0.78562964066E+02 0.  0.
          5    1    5    5  501    0 -0.96068601134E+02 -0.40593283150E+02 -0.83000849170E+02  0.13337249238E+03  0.47000000000E+01 0. -1.
        -13    1    6    6    0    0  0.19695226754E+02 -0.28446901305E+02 -0.22050500055E+02  0.41028681473E+02  0.00000000000E+00 0.  1.
         14    1    6    6    0    0 -0.89452031137E+01  0.28324321997E+02  0.24170356010E+02  0.38294777516E+02  0.00000000000E+00 0. -1.
         -5    1    3    3    0  503  0.54541848657E+02  0.31184624865E+01 -0.15141863084E+03  0.16104108118E+03  0.47000000000E+01 0.  1.
         11    1    4    4    0    0 -0.14477100710E+02 -0.14218583242E+02 -0.15226942892E+02  0.25369555459E+02  0.00000000000E+00 0. -1.
        -12    1    4    4    0    0  0.45253829547E+02  0.51815983213E+02  0.33834860840E+01  0.68878539351E+02  0.00000000000E+00 0.  1.
</event>
<event>
12    1  0.8494789E-002  0.1853031E+03  0.7818608E-02  0.1163697E+00
         21   -1    0    0  503  502  0.00000000000E+00  0.00000000000E+00  0.23152842238E+03  0.23152842238E+03  0.00000000000E+00 0.  1.
         21   -1    0    0  501  503 -0.00000000000E+00 -0.00000000000E+00 -0.14969523034E+03  0.14969523034E+03  0.00000000000E+00 0. -1.
          6    2    1    2  501    0 -0.71744307896E+02 -0.66221962121E+01  0.73383260442E+01  0.18150704894E+03  0.16643274494E+03 0.  0.
         24    2    3    3    0    0 -0.31884279340E+02 -0.21257278093E+02 -0.55902653619E+02  0.10518851248E+03  0.80442758128E+02 0.  0.
         -6    2    1    2    0  502  0.71744307896E+02  0.66221962121E+01  0.74494865993E+02  0.19971660378E+03  0.17072239914E+03 0.  0.
        -24    2    5    5    0    0  0.92330032940E+02 -0.18464358121E+02  0.55007637581E+01  0.12332692237E+03  0.79457560212E+02 0.  0.
          5    1    3    3  501    0 -0.39860028556E+02  0.14635081881E+02  0.63240979664E+02  0.76318536457E+02  0.47000000000E+01 0. -1.
        -13    1    4    4    0    0 -0.42628779935E+02 -0.32658255803E+01  0.28122606920E+01  0.42846088569E+02  0.00000000000E+00 0.  1.
         14    1    4    4    0    0  0.10744500595E+02 -0.17991452513E+02 -0.58714914311E+02  0.62342423912E+02  0.00000000000E+00 0. -1.
         -5    1    5    5    0  502 -0.20585725044E+02  0.25086554333E+02  0.68994102235E+02  0.76389681418E+02  0.47000000000E+01 0.  1.
         13    1    6    6    0    0  0.11757043977E+02  0.24397893208E+02 -0.13259130829E+02  0.30154432948E+02  0.00000000000E+00 0. -1.
        -14    1    6    6    0    0  0.80572988963E+02 -0.42862251330E+02  0.18759894587E+02  0.93172489418E+02  0.00000000000E+00 0.  1.
</event>
<event>
12    1  0.8494789E-002  0.2138567E+03  0.7818608E-02  0.1138896E+00
         21   -1    0    0  503  502  0.00000000000E+00  0.00000000000E+00  0.23029424406E+03  0.23029424406E+03  0.00000000000E+00 0. -1.
         21   -1    0    0  501  503 -0.00000000000E+00 -0.00000000000E+00 -0.38106424341E+03  0.38106424341E+03  0.00000000000E+00 0.  1.
          6    2    1    2  501    0 -0.11394805098E+03  0.49774504122E+02 -0.28803385782E+03  0.35874528158E+03  0.17399141996E+03 0.  0.
         24    2    3    3    0    0 -0.14058655012E+03  0.45132677429E+00 -0.23971290006E+03  0.28458740662E+03  0.61342772847E+02 0.  0.
         -6    2    1    2    0  502  0.11394805098E+03 -0.49774504122E+02  0.13726385847E+03  0.25261320589E+03  0.17178592889E+03 0.  0.
        -24    2    5    5    0    0  0.13891298637E+03 -0.74867834644E+02  0.11845084416E+03  0.21225304307E+03  0.78222384027E+02 0.  0.
          5    1    3    3  501    0  0.26638499134E+02  0.49323177348E+02 -0.48320957757E+02  0.74157874959E+02  0.47000000000E+01 0. -1.
        -13    1    4    4    0    0 -0.10500608176E+01  0.12690531600E+02 -0.27631972842E+02  0.30424959213E+02  0.00000000000E+00 0.  1.
         14    1    4    4    0    0 -0.13953648930E+03 -0.12239204826E+02 -0.21208092722E+03  0.25416244741E+03  0.00000000000E+00 0. -1.
         -5    1    5    5    0  502 -0.24964935388E+02  0.25093330522E+02  0.18813014303E+02  0.40360162819E+02  0.47000000000E+01 0.  1.
         11    1    6    6    0    0  0.95010094204E+02 -0.75217897162E+02  0.50344959567E+02  0.13122219709E+03  0.00000000000E+00 0. -1.
        -12    1    6    6    0    0  0.43902892167E+02  0.35006251775E+00  0.68105884597E+02  0.81030845985E+02  0.00000000000E+00 0.  1.
</event>
<event>
12    1  0.8494789E-002  0.1730311E+03  0.7818608E-02  0.1176311E+00
         21   -1    0    0  501  502  0.00000000000E+00  0.00000000000E+00  0.18978051780E+03  0.18978051780E+03  0.00000000000E+00 0. -1.
         21   -1    0    0  502  503 -0.00000000000E+00 -0.00000000000E+00 -0.30999538864E+03  0.30999538864E+03  0.00000000000E+00 0. -1.
         -6    2    1    2    0  503 -0.13505750430E+02 -0.16823331807E+02 -0.23782669097E+03  0.29055759095E+03  0.16551963308E+03 0.  0.
        -24    2    3    3    0    0 -0.78148256413E+01  0.93502735647E+01 -0.24828771275E+03  0.26142054890E+03  0.80903745090E+02 0.  0.
          6    2    1    2  501    0  0.13505750430E+02  0.16823331807E+02  0.11761182013E+03  0.20921831549E+03  0.17168090608E+03 0.  0.
         24    2    5    5    0    0 -0.50215111258E+02 -0.16445285920E+02  0.35071125978E+02  0.99663738536E+02  0.76882196079E+02 0.  0.
          5    1    5    5  501    0  0.63720861689E+02  0.33268617727E+02  0.82540694155E+02  0.10955457695E+03  0.47000000000E+01 0. -1.
        -11    1    6    6    0    0 -0.25535325504E+02  0.29066384612E+02  0.27204563556E+02  0.47296890398E+02  0.00000000000E+00 0.  1.
         12    1    6    6    0    0 -0.24679785754E+02 -0.45511670533E+02  0.78665624220E+01  0.52366848138E+02  0.00000000000E+00 0. -1.
         -5    1    3    3    0  503 -0.56909247889E+01 -0.26173605372E+02  0.10461021776E+02  0.29137042055E+02  0.47000000000E+01 0.  1.
         13    1    4    4    0    0 -0.73427694735E+01  0.33926470420E+02 -0.45910540270E+02  0.57556054127E+02  0.00000000000E+00 0. -1.
        -14    1    4    4    0    0 -0.47205616780E+00 -0.24576196855E+02 -0.20237717248E+03  0.20386449477E+03  0.00000000000E+00 0.  1.
</event>
<event>
12    1  0.8494789E-002  0.2129895E+03  0.7818608E-02  0.1139221E+00
         21   -1    0    0  503  502  0.00000000000E+00  0.00000000000E+00  0.18325715041E+03  0.18325715041E+03  0.00000000000E+00 0. -1.
         21   -1    0    0  501  503 -0.00000000000E+00 -0.00000000000E+00 -0.24966626116E+03  0.24966626116E+03  0.00000000000E+00 0. -1.
          6    2    1    2  501    0  0.33418843555E+02  0.12127140736E+03 -0.53167890517E+02  0.21952275354E+03  0.17187158402E+03 0.  0.
         24    2    3    3    0    0  0.36552156402E+02 -0.33184014185E+00 -0.42927613656E+02  0.97358435005E+02  0.79370741441E+02 0.  0.
         -6    2    1    2    0  502 -0.33418843555E+02 -0.12127140736E+03 -0.13241220237E+02  0.21340065803E+03  0.17187477297E+03 0.  0.
        -24    2    5    5    0    0  0.31761259810E+02 -0.67929654846E+02  0.36743392231E+02  0.11534791752E+03  0.79572919844E+02 0.  0.
          5    1    3    3  501    0 -0.31333128472E+01  0.12160324751E+03 -0.10240276861E+02  0.12216431854E+03  0.47000000000E+01 0. -1.
        -11    1    4    4    0    0  0.24897464744E+02  0.39048880814E+02 -0.22314394182E+02  0.51406527127E+02  0.00000000000E+00 0.  1.
         12    1    4    4    0    0  0.11654691658E+02 -0.39380720955E+02 -0.20613219474E+02  0.45951907879E+02  0.00000000000E+00 0. -1.
         -5    1    5    5    0  502 -0.65180103365E+02 -0.53341752518E+02 -0.49984612468E+02  0.98052740502E+02  0.47000000000E+01 0.  1.
         11    1    6    6    0    0  0.30949166041E+02 -0.57141160093E+02 -0.11423646164E+02  0.65980775588E+02  0.00000000000E+00 0. -1.
        -12    1    6    6    0    0  0.81209376824E+00 -0.10788494752E+02  0.48167038395E+02  0.49367141937E+02  0.00000000000E+00 0.  1.
</event>
<event>
12    1  0.8494789E-002  0.1821701E+03  0.7818608E-02  0.1166376E+00
         21   -1    0    0  501  502  0.00000000000E+00  0.00000000000E+00  0.53607972244E+03  0.53607972244E+03  0.00000000000E+00 0.  1.
         21   -1    0    0  502  503 -0.00000000000E+00 -0.00000000000E+00 -0.68627652092E+02  0.68627652092E+02  0.00000000000E+00 0.  1.
         -6    2    1    2    0  503 -0.36238681765E+02 -0.44322596699E+02  0.13436284423E+03  0.22636102999E+03  0.17293989520E+03 0.  0.
        -24    2    3    3    0    0 -0.27912837457E+02  0.27165550798E+02  0.16304083174E+02  0.88014233934E+02  0.77224274692E+02 0.  0.
          6    2    1    2  501    0  0.36238681765E+02  0.44322596699E+02  0.33308922612E+03  0.37834634455E+03  0.17005819369E+03 0.  0.
         24    2    5    5    0    0 -0.43902115482E+02  0.42051861005E+02  0.17971860222E+03  0.20522112426E+03  0.78237964574E+02 0.  0.
          5    1    5    5  501    0  0.80140797248E+02  0.22707356940E+01  0.15337062390E+03  0.17312522029E+03  0.47000000000E+01 0. -1.
        -13    1    6    6    0    0  0.15375486923E+02  0.36221862771E+02  0.65732283882E+02  0.76610456760E+02  0.00000000000E+00 0.  1.
         14    1    6    6    0    0 -0.59277602405E+02  0.58299982336E+01  0.11398631834E+03  0.12861066750E+03  0.00000000000E+00 0. -1.
         -5    1    3    3    0  503 -0.83258443085E+01 -0.71488147497E+02  0.11805876106E+03  0.13834679605E+03  0.47000000000E+01 0.  1.
         11    1    4    4    0    0  0.24548597110E+02  0.12404534674E+02  0.19032251648E+02  0.33447461837E+02  0.00000000000E+00 0. -1.
        -12    1    4    4    0    0 -0.52461434567E+02  0.14761016125E+02 -0.27281684734E+01  0.54566772097E+02  0.00000000000E+00 0.  1.
</event>
<event>
12    1  0.8494789E-002  0.2045789E+03  0.7818608E-02  0.1146011E+00
         21   -1    0    0  501  502  0.00000000000E+00  0.00000000000E+00  0.11897979006E+04  0.11897979006E+04  0.00000000000E+00 0. -1.
         21   -1    0    0  502  503 -0.00000000000E+00 -0.00000000000E+00 -0.16498537057E+03  0.16498537057E+03  0.00000000000E+00 0.  1.
         -6    2    1    2    0  503 -0.62798042217E+02 -0.91525926288E+02 -0.88705318547E+02  0.22262844758E+03  0.17138903945E+03 0.  0.
        -24    2    3    3    0    0 -0.84215224093E+02 -0.22355712507E+02 -0.15112381664E+02  0.11927843784E+03  0.80043611885E+02 0.  0.
          6    2    1    2  501    0  0.62798042217E+02  0.91525926288E+02  0.11135178485E+04  0.11321548235E+04  0.17184864320E+03 0.  0.
         24    2    5    5    0    0  0.13964448970E+02  0.16990068904E+02  0.23200935308E+03  0.24614148762E+03  0.79206210210E+02 0.  0.
          5    1    5    5  501    0  0.48833593247E+02  0.74535857384E+02  0.88150849545E+03  0.88601333591E+03  0.47000000000E+01 0. -1.
        -13    1    6    6    0    0 -0.29369316291E+02  0.23465176553E+02  0.12434172042E+03  0.12990009502E+03  0.00000000000E+00 0.  1.
         14    1    6    6    0    0  0.43333765261E+02 -0.64751076495E+01  0.10766763267E+03  0.11624139261E+03  0.00000000000E+00 0. -1.
         -5    1    3    3    0  503  0.21417181876E+02 -0.69170213781E+02 -0.73592936884E+02  0.10335000974E+03  0.47000000000E+01 0.  1.
         13    1    4    4    0    0  0.15458761778E+02 -0.65593792218E+01  0.20294859508E+01  0.16915010633E+02  0.00000000000E+00 0. -1.
        -14    1    4    4    0    0 -0.99673985871E+02 -0.15796333285E+02 -0.17141867615E+02  0.10236342721E+03  0.00000000000E+00 0.  1.
</event>
<event>
12    1  0.8494789E-002  0.3475725E+03  0.7818608E-02  0.1063724E+00
         21   -1    0    0  501  502  0.00000000000E+00  0.00000000000E+00  0.64426149784E+03  0.64426149784E+03  0.00000000000E+00 0. -1.
         21   -1    0    0  502  503 -0.00000000000E+00 -0.00000000000E+00 -0.36466502358E+03  0.36466502358E+03  0.00000000000E+00 0.  1.
         -6    2    1    2    0  503  0.31773009379E+02  0.29875585025E+03 -0.21225639149E+03  0.40725844284E+03  0.17476292900E+03 0.  0.
        -24    2    3    3    0    0  0.51145063167E+02  0.22341277978E+03 -0.22240627892E+03  0.32866477293E+03  0.77633062589E+02 0.  0.
          6    2    1    2  501    0 -0.31773009379E+02 -0.29875585025E+03  0.49185286575E+03  0.60166807857E+03  0.17268657457E+03 0.  0.
         24    2    5    5    0    0  0.24000254132E+02 -0.25602206871E+03  0.43458698632E+03  0.51090297539E+03  0.77670391545E+02 0.  0.
          5    1    5    5  501    0 -0.55773263511E+02 -0.42733781544E+02  0.57265879430E+02  0.90765103176E+02  0.47000000000E+01 0. -1.
        -13    1    6    6    0    0  0.38123972721E+02 -0.96278704065E+02  0.12563760735E+03  0.16281226776E+03  0.00000000000E+00 0.  1.
         14    1    6    6    0    0 -0.14123718588E+02 -0.15974336464E+03  0.30894937898E+03  0.34809070764E+03  0.00000000000E+00 0. -1.
         -5    1    3    3    0  503 -0.19372053789E+02  0.75343070467E+02  0.10149887427E+02  0.78593669912E+02  0.47000000000E+01 0.  1.
         11    1    4    4    0    0  0.20628006425E+02  0.55845417847E+01 -0.13274916167E+02  0.25158003801E+02  0.00000000000E+00 0. -1.
        -12    1    4    4    0    0  0.30517056742E+02  0.21782823800E+03 -0.20913136275E+03  0.30350676913E+03  0.00000000000E+00 0.  1.
</event>
<event>
12    1  0.8494789E-002  0.2079500E+03  0.7818608E-02  0.1144650E+00
         21   -1    0    0  501  502  0.00000000000E+00  0.00000000000E+00  0.97039564335E+03  0.97039564335E+03  0.00000000000E+00 0. -1.
         21   -1    0    0  502  503 -0.00000000000E+00 -0.00000000000E+00 -0.83982273324E+02  0.83982273324E+02  0.00000000000E+00 0. -1.
         -6    2    1    2    0  503  0.17513304250E+02  0.10275842595E+03  0.79151270257E+02  0.22250423185E+03  0.17993665462E+03 0.  0.
        -24    2    3    3    0    0  0.20575699577E+01 -0.18414039260E+02  0.50773147230E+02  0.97008997216E+02  0.80557573357E+02 0.  0.
          6    2    1    2  501    0 -0.17513304250E+02 -0.10275842595E+03  0.80726209977E+03  0.83187368483E+03  0.17168494359E+03 0.  0.
         24    2    5    5    0    0 -0.46779443135E+02 -0.10224812450E+03  0.39102160532E+03  0.41457881725E+03  0.79590857615E+02 0.  0.
          5    1    5    5  501    0  0.29266138885E+02 -0.51030145295E+00  0.41624049444E+03  0.41729486758E+03  0.47000000000E+01 0. -1.
        -13    1    6    6    0    0 -0.54617446420E+02 -0.26629494250E+02  0.19844026663E+03  0.20753490029E+03  0.00000000000E+00 0.  1.
         14    1    6    6    0    0  0.78380032849E+01 -0.75618630251E+02  0.19258133869E+03  0.20704391696E+03  0.00000000000E+00 0. -1.
         -5    1    3    3    0  503  0.15455734293E+02  0.12117246521E+03  0.28378123027E+02  0.12549523463E+03  0.47000000000E+01 0.  1.
         13    1    4    4    0    0  0.33720025287E+01  0.27652674637E+02 -0.76898072177E+00  0.27868120622E+02  0.00000000000E+00 0. -1.
        -14    1    4    4    0    0 -0.13144325711E+01 -0.46066713898E+02  0.51542127952E+02  0.69140876594E+02  0.00000000000E+00 0.  1.
</event>
<event>
12    1  0.8494789E-002  0.2205863E+03  0.7818608E-02  0.1133798E+00
         21   -1    0    0  503  502  0.00000000000E+00  0.00000000000E+00  0.21304884103E+03  0.21304884103E+03  0.00000000000E+00 0.  1.
         21   -1    0    0  501  503 -0.00000000000E+00 -0.00000000000E+00 -0.26640783526E+03  0.26640783526E+03  0.00000000000E+00 0.  1.
          6    2    1    2  501    0 -0.24115167126E+01  0.13564426684E+03 -0.11942821713E+03  0.24918842240E+03  0.17154179745E+03 0.  0.
         24    2    3    3    0    0 -0.20265429138E+02  0.56816951116E+01 -0.68623973314E+02  0.10843262882E+03  0.81273710394E+02 0.  0.
         -6    2    1    2    0  502  0.24115167126E+01 -0.13564426684E+03  0.66069222901E+02  0.23026825389E+03  0.17393430942E+03 0.  0.
        -24    2    5    5    0    0  0.27137186708E+02 -0.12594173105E+01  0.33889988437E+02  0.89811001779E+02  0.78609615759E+02 0.  0.
          5    1    3    3  501    0  0.17853912425E+02  0.12996257173E+03 -0.50804243819E+02  0.14075579359E+03  0.47000000000E+01 0. -1.
        -13    1    4    4    0    0  0.11310927274E+02 -0.26871054875E+02 -0.52955988093E+02  0.60451032586E+02  0.00000000000E+00 0.  1.
         14    1    4    4    0    0 -0.31576356412E+02  0.32552749986E+02 -0.15667985221E+02  0.47981596230E+02  0.00000000000E+00 0. -1.
         -5    1    5    5    0  502 -0.24725669995E+02 -0.13438484953E+03  0.32179234464E+02  0.14045725211E+03  0.47000000000E+01 0.  1.
         13    1    6    6    0    0 -0.17861186719E+02 -0.23137404967E+02 -0.26376263594E+00  0.29230652924E+02  0.00000000000E+00 0. -1.
        -14    1    6    6    0    0  0.44998373428E+02  0.21877987657E+02  0.34153751073E+02  0.60580348855E+02  0.00000000000E+00 0.  1.
</event>
<event>
12    1  0.8494789E-002  0.1698624E+03  0.7818608E-02  0.1178615E+00
         21   -1    0    0  503  502  0.00000000000E+00  0.00000000000E+00  0.36134922840E+03  0.36134922840E+03  0.00000000000E+00 0. -1.
         21   -1    0    0  501  503 -0.00000000000E+00 -0.00000000000E+00 -0.20728417339E+03  0.20728417339E+03  0.00000000000E+00 0. -1.
          6    2    1    2  501    0  0.17323761671E+02  0.15619135932E+02 -0.14665749368E+03  0.22441400030E+03  0.16825324054E+03 0.  0.
         24    2    3    3    0    0 -0.73928620829E+01 -0.48588208322E+02 -0.11586630883E+03  0.14889127782E+03  0.79549624083E+02 0.  0.
         -6    2    1    2    0  502 -0.17323761671E+02 -0.15619135932E+02  0.30072254869E+03  0.34421940150E+03  0.16585799633E+03 0.  0.
        -24    2    5    5    0    0  0.65235653007E+00 -0.60449542282E+02  0.11334923122E+03  0.15066383774E+03  0.78720842561E+02 0.  0.
          5    1    3    3  501    0  0.24716623754E+02  0.64207344253E+02 -0.30791184852E+02  0.75522722478E+02  0.47000000000E+01 0. -1.
        -11    1    4    4    0    0  0.15184140363E+02 -0.34410940004E+02 -0.88971470065E+01  0.38650098775E+02  0.00000000000E+00 0.  1.
         12    1    4    4    0    0 -0.22577002445E+02 -0.14177268318E+02 -0.10696916182E+03  0.11024117904E+03  0.00000000000E+00 0. -1.
         -5    1    5    5    0  502 -0.17976118201E+02  0.44830406350E+02  0.18737331748E+03  0.19355556376E+03  0.47000000000E+01 0.  1.
         13    1    6    6    0    0 -0.33371322470E+02 -0.28743306352E+02  0.24550828571E+02  0.50423863467E+02  0.00000000000E+00 0. -1.
        -14    1    6    6    0    0  0.34023679000E+02 -0.31706235930E+02  0.88798402645E+02  0.10023997427E+03  0.00000000000E+00 0.  1.
</event>
<event>
12    1  0.8494789E-002  0.2338433E+03  0.7818608E-02  0.1124040E+00
         21   -1    0    0  501  502  0.00000000000E+00  0.00000000000E+00  0.24638674239E+03  0.24638674239E+03  0.00000000000E+00 0. -1.
         21   -1    0    0  502  503 -0.00000000000E+00 -0.00000000000E+00 -0.22247766541E+03  0.22247766541E+03  0.00000000000E+00 0. -1.
         -6    2    1    2    0  503 -0.14901869993E+03 -0.51124672895E+02  0.27362069987E+02  0.23543869492E+03  0.17280738146E+03 0.  0.
        -24    2    3    3    0    0 -0.11806197381E+03 -0.46440851791E+02  0.83297472746E+02  0.17116493392E+03  0.79142802966E+02 0.  0.
          6    2    1    2  501    0  0.14901869993E+03  0.51124672895E+02 -0.34529930043E+01  0.23342571288E+03  0.17220724481E+03 0.  0.
         24    2    5    5    0    0  0.15720115583E+03  0.49775707533E+02  0.41466835159E+02  0.18750563825E+03  0.79050879183E+02 0.  0.
          5    1    5    5  501    0 -0.81824559035E+01  0.13489653620E+01 -0.44919828163E+02  0.45920074634E+02  0.47000000000E+01 0. -1.
        -11    1    6    6    0    0  0.93902963790E+01  0.31575478104E+02  0.15199863091E+02  0.36279805975E+02  0.00000000000E+00 0.  1.
         12    1    6    6    0    0  0.14781085946E+03  0.18200229429E+02  0.26266972068E+02  0.15122583227E+03  0.00000000000E+00 0. -1.
         -5    1    3    3    0  503 -0.30956726117E+02 -0.46838211041E+01 -0.55935402759E+02  0.64273761006E+02  0.47000000000E+01 0.  1.
         11    1    4    4    0    0 -0.10645374265E+03 -0.11494488961E+02  0.39937409698E+02  0.11427825381E+03  0.00000000000E+00 0. -1.
        -12    1    4    4    0    0 -0.11608231161E+02 -0.34946362830E+02  0.43360063048E+02  0.56886680104E+02  0.00000000000E+00 0.  1.
</event>
<event>
12    1  0.8494789E-002  0.3658079E+03  0.7818608E-02  0.1056407E+00
         21   -1    0    0  503  502  0.00000000000E+00  0.00000000000E+00  0.58263714260E+03  0.58263714260E+03  0.00000000000E+00 0. -1.
         21   -1    0    0  501  503 -0.00000000000E+00 -0.00000000000E+00 -0.34549127295E+03  0.34549127295E+03  0.00000000000E+00 0.  1.
          6    2    1    2  501    0 -0.19917544037E+03 -0.25199355842E+03 -0.15075224146E+03  0.39565346127E+03  0.17505374483E+03 0.  0.
         24    2    3    3    0    0 -0.15827886086E+03 -0.14258845294E+03 -0.33746412418E+02  0.23026161942E+03  0.80609728434E+02 0.  0.
         -6    2    1    2    0  502  0.19917544037E+03  0.25199355842E+03  0.38789811112E+03  0.53247495428E+03  0.17289598837E+03 0.  0.
        -24    2    5    5    0    0  0.18874304470E+02  0.62020813826E+02  0.97342567669E+02  0.14126815842E+03  0.79235701469E+02 0.  0.
          5    1    3    3  501    0 -0.40896579506E+02 -0.10940510549E+03 -0.11700582905E+03  0.16539184186E+03  0.47000000000E+01 0. -1.
        -11    1    4    4    0    0 -0.12067274995E+03 -0.12682737716E+03  0.34097285305E+01  0.17509632328E+03  0.00000000000E+00 0.  1.
         12    1    4    4    0    0 -0.37606110909E+02 -0.15761075779E+02 -0.37156140948E+02  0.55165296134E+02  0.00000000000E+00 0. -1.
         -5    1    5    5    0  502  0.18030113590E+03  0.18997274460E+03  0.29055554345E+03  0.39120679586E+03  0.47000000000E+01 0.  1.
         11    1    6    6    0    0  0.48783506488E+02  0.39367273404E+02  0.74406622681E+02  0.97293156076E+02  0.00000000000E+00 0. -1.
        -12    1    6    6    0    0 -0.29909202017E+02  0.22653540422E+02  0.22935944987E+02  0.43975002347E+02  0.00000000000E+00 0.  1.
</event>
<event>
12    1  0.8494789E-002  0.1909809E+03  0.7818608E-02  0.1157633E+00
         21   -1    0    0  503  502  0.00000000000E+00  0.00000000000E+00  0.39475219296E+03  0.39475219296E+03  0.00000000000E+00 0.  1.
         21   -1    0    0  501  503 -0.00000000000E+00 -0.00000000000E+00 -0.10608883110E+03  0.10608883110E+03  0.00000000000E+00 0.  1.
          6    2    1    2  501    0 -0.77672059879E+02  0.29479240946E+02  0.23459870442E+03  0.30235505198E+03  0.17169755622E+03 0.  0.
         24    2    3    3    0    0 -0.15692214800E+02  0.56393084109E+02  0.20558578850E+03  0.22866858484E+03  0.81224255735E+02 0.  0.
         -6    2    1    2    0  502  0.77672059879E+02 -0.29479240946E+02  0.54064657440E+02  0.19848597207E+03  0.17196429686E+03 0.  0.
        -24    2    5    5    0    0  0.36532423449E+02  0.36711158286E+02  0.78681346949E+02  0.11662199930E+03  0.68757612357E+02 0.  0.
          5    1    3    3  501    0 -0.61979845079E+02 -0.26913843163E+02  0.29012915924E+02  0.73686467144E+02  0.47000000000E+01 0. -1.
        -11    1    4    4    0    0 -0.41705388214E+02  0.21513149317E+02  0.15497812071E+03  0.16192706042E+03  0.00000000000E+00 0.  1.
         12    1    4    4    0    0  0.26013173414E+02  0.34879934792E+02  0.50607667790E+02  0.66741524416E+02  0.00000000000E+00 0. -1.
         -5    1    5    5    0  502  0.41139636430E+02 -0.66190399232E+02 -0.24616689508E+02  0.81863972774E+02  0.47000000000E+01 0.  1.
         11    1    6    6    0    0 -0.62171812735E+01  0.31360456358E+02  0.63227786191E+02  0.70851143340E+02  0.00000000000E+00 0. -1.
        -12    1    6    6    0    0  0.42749604723E+02  0.53507019278E+01  0.15453560757E+02  0.45770855958E+02  0.00000000000E+00 0.  1.
</event>
<event>
12    1  0.8494789E-002  0.1726479E+03  0.7818608E-02  0.1175430E+00
         21   -1    0    0  501  502  0.00000000000E+00  0.00000000000E+00  0.20931667624E+03  0.20931667624E+03  0.00000000000E+00 0. -1.
         21   -1    0    0  502  503 -0.00000000000E+00 -0.00000000000E+00 -0.14346690246E+03  0.14346690246E+03  0.00000000000E+00 0. -1.
         -6    2    1    2    0  503  0.46763696132E+01  0.14736897656E+01  0.11586236713E+02  0.17180895104E+03  0.17134770083E+03 0.  0.
        -24    2    3    3    0    0  0.54204180716E+02 -0.14001874124E+02 -0.29685707060E+02  0.10534121079E+03  0.84150958411E+02 0.  0.
          6    2    1    2  501    0 -0.46763696132E+01 -0.14736897656E+01  0.54263537059E+02  0.18097462766E+03  0.17257822635E+03 0.  0.
         24    2    5    5    0    0 -0.98168825115E+01  0.50472931076E+02  0.78008738769E+02  0.12343506828E+03  0.80665759799E+02 0.  0.
          5    1    5    5  501    0  0.51405128983E+01 -0.51946620841E+02 -0.23745201710E+02  0.57539559382E+02  0.47000000000E+01 0. -1.
        -11    1    6    6    0    0 -0.36903640423E+02  0.25516044486E+02  0.98092934783E+01  0.45925694782E+02  0.00000000000E+00 0.  1.
         12    1    6    6    0    0  0.27086757912E+02  0.24956886590E+02  0.68199445291E+02  0.77509373500E+02  0.00000000000E+00 0. -1.
         -5    1    3    3    0  503 -0.49527811103E+02  0.15475563890E+02  0.41271943773E+02  0.66467740244E+02  0.47000000000E+01 0.  1.
         11    1    4    4    0    0  0.22072667588E+02  0.33389158993E+02  0.16710714468E+01  0.40060342890E+02  0.00000000000E+00 0. -1.
        -12    1    4    4    0    0  0.32131513128E+02 -0.47391033117E+02 -0.31356778507E+02  0.65280867902E+02  0.00000000000E+00 0.  1.
</event>
<event>
12    1  0.8494789E-002  0.2915510E+03  0.7818608E-02  0.1090097E+00
         21   -1    0    0  503  502  0.00000000000E+00  0.00000000000E+00  0.11873065146E+04  0.11873065146E+04  0.00000000000E+00 0. -1.
         21   -1    0    0  501  503 -0.00000000000E+00 -0.00000000000E+00 -0.12545746892E+03  0.12545746892E+03  0.00000000000E+00 0.  1.
          6    2    1    2  501    0  0.20667020298E+03 -0.10251587664E+03  0.98899123305E+02  0.30786850321E+03  0.17826918106E+03 0.  0.
         24    2    3    3    0    0  0.16273189684E+03 -0.48810216908E+02  0.64680731812E+00  0.18749209261E+03  0.79301695476E+02 0.  0.
         -6    2    1    2    0  502 -0.20667020298E+03  0.10251587664E+03  0.96294992234E+03  0.10048954803E+04  0.17123170148E+03 0.  0.
        -24    2    5    5    0    0 -0.15715804336E+03  0.61066342806E+02  0.87997984564E+03  0.89965460689E+03  0.81155000694E+02 0.  0.
          5    1    3    3  501    0  0.43938306137E+02 -0.53705659734E+02  0.98252315987E+02  0.12037641061E+03  0.47000000000E+01 0. -1.
        -13    1    4    4    0    0  0.12428458422E+03 -0.65410656438E+02 -0.18102802633E+02  0.14160834478E+03  0.00000000000E+00 0.  1.
         14    1    4    4    0    0  0.38447312628E+02  0.16600439531E+02  0.18749609951E+02  0.45883747822E+02  0.00000000000E+00 0. -1.
         -5    1    5    5    0  502 -0.49512159622E+02  0.41449533836E+02  0.82970076694E+02  0.10524087339E+03  0.47000000000E+01 0.  1.
         13    1    6    6    0    0 -0.25823371270E+02  0.48125737246E+02  0.22772344405E+03  0.23418134011E+03  0.00000000000E+00 0. -1.
        -14    1    6    6    0    0 -0.13133467209E+03  0.12940605560E+02  0.65225640160E+03  0.66547326677E+03  0.00000000000E+00 0.  1.
</event>
<event>
12    1  0.8494789E-002  0.2003426E+03  0.7818608E-02  0.1149566E+00
         21   -1    0    0  503  502  0.00000000000E+00  0.00000000000E+00  0.22375623327E+03  0.22375623327E+03  0.00000000000E+00 0.  1.
         21   -1    0    0  501  503 -0.00000000000E+00 -0.00000000000E+00 -0.18725070441E+03  0.18725070441E+03  0.00000000000E+00 0. -1.
          6    2    1    2  501    0  0.49761702141E+02 -0.88385622506E+02 -0.25202518233E+02  0.20137620744E+03  0.17213066180E+03 0.  0.
         24    2    3    3    0    0 -0.16245535718E+02  0.36850304292E+01 -0.24537466606E+02  0.87989731720E+02  0.82840863954E+02 0.  0.
         -6    2    1    2    0  502 -0.49761702141E+02  0.88385622506E+02  0.61708047098E+02  0.20963073024E+03  0.17276838461E+03 0.  0.
        -24    2    5    5    0    0 -0.44082525248E+02 -0.60007605787E+01 -0.29467476729E+01  0.94986171501E+02  0.83871397358E+02 0.  0.
          5    1    3    3  501    0  0.66007237859E+02 -0.92070652935E+02 -0.66505162671E+00  0.11338647572E+03  0.47000000000E+01 0. -1.
        -13    1    4    4    0    0  0.61545876809E+01  0.40703920849E+02 -0.10251689719E+02  0.42423876109E+02  0.00000000000E+00 0.  1.
         14    1    4    4    0    0 -0.22400123399E+02 -0.37018890420E+02 -0.14285776888E+02  0.45565855611E+02  0.00000000000E+00 0. -1.
         -5    1    5    5    0  502 -0.56791768930E+01  0.94386383085E+02  0.64654794771E+02  0.11464455874E+03  0.47000000000E+01 0.  1.
         11    1    6    6    0    0 -0.47937401696E+02  0.31381927679E+02 -0.78428129760E-01  0.57295951141E+02  0.00000000000E+00 0. -1.
        -12    1    6    6    0    0  0.38548764481E+01 -0.37382688257E+02 -0.28683195431E+01  0.37690220360E+02  0.00000000000E+00 0.  1.
</event>
<event>
12    1  0.8494789E-002  0.1966159E+03  0.7818608E-02  0.1155588E+00
         21   -1    0    0  503  502  0.00000000000E+00  0.00000000000E+00  0.36227412106E+03  0.36227412106E+03  0.00000000000E+00 0. -1.
         21   -1    0    0  501  503 -0.00000000000E+00 -0.00000000000E+00 -0.99656994580E+02  0.99656994580E+02  0.00000000000E+00 0. -1.
          6    2    1    2  501    0  0.32875778408E+02  0.51514678713E+02  0.13798857398E+03  0.24020543631E+03  0.18687756996E+03 0.  0.
         24    2    3    3    0    0  0.95315893101E+02  0.35446322954E+02  0.10972083615E+03  0.16964967834E+03  0.80004938522E+02 0.  0.
         -6    2    1    2    0  502 -0.32875778408E+02 -0.51514678713E+02  0.12462855250E+03  0.22172567934E+03  0.17290292609E+03 0.  0.
        -24    2    5    5    0    0  0.35170861548E+02 -0.16175505620E+01  0.19064104177E+02  0.86499900147E+02  0.76675854645E+02 0.  0.
          5    1    3    3  501    0 -0.62440114693E+02  0.16068355759E+02  0.28267737829E+02  0.70555757962E+02  0.47000000000E+01 0. -1.
        -13    1    4    4    0    0  0.85037017125E+02 -0.73259232871E+01  0.74630011709E+02  0.11337813758E+03  0.00000000000E+00 0.  1.
         14    1    4    4    0    0  0.10278875976E+02  0.42772246241E+02  0.35090824443E+02  0.56271540764E+02  0.00000000000E+00 0. -1.
         -5    1    5    5    0  502 -0.68046639956E+02 -0.49897128151E+02  0.10556444833E+03  0.13522577919E+03  0.47000000000E+01 0.  1.
         13    1    6    6    0    0  0.39641409094E+02 -0.19370678007E+02  0.39389226475E+02  0.59145377197E+02  0.00000000000E+00 0. -1.
        -14    1    6    6    0    0 -0.44705475467E+01  0.17753127445E+02 -0.20325122298E+02  0.27354522951E+02  0.00000000000E+00 0.  1.
</event>
<event>
12    1  0.8494789E-002  0.2131810E+03  0.7818608E-02  0.1139202E+00
         21   -1    0    0  503  502  0.00000000000E+00  0.00000000000E+00  0.24018423716E+03  0.24018423716E+03  0.00000000000E+00 0. -1.
         21   -1    0    0  501  503 -0.00000000000E+00 -0.00000000000E+00 -0.30931538922E+03  0.30931538922E+03  0.00000000000E+00 0. -1.
          6    2    1    2  501    0  0.12594717179E+03  0.82381204992E+01 -0.20615897359E+03  0.29607755289E+03  0.17096736011E+03 0.  0.
         24    2    3    3    0    0  0.79499973237E+02  0.60874490060E+02 -0.18005199136E+03  0.22103360460E+03  0.80069878763E+02 0.  0.
         -6    2    1    2    0  502 -0.12594717179E+03 -0.82381204992E+01  0.13702782153E+03  0.25342207348E+03  0.17180095093E+03 0.  0.
        -24    2    5    5    0    0 -0.37280785168E+02  0.47078490037E+02  0.25590600396E+02  0.10057574617E+03  0.76513794323E+02 0.  0.
          5    1    3    3  501    0  0.46447198554E+02 -0.52636369560E+02 -0.26106982235E+02  0.75043948293E+02  0.47000000000E+01 0. -1.
        -13    1    4    4    0    0 -0.12590490098E+02  0.12696026373E+02 -0.70642251879E+01  0.19225316748E+02  0.00000000000E+00 0.  1.
         14    1    4    4    0    0  0.92090463335E+02  0.48178463687E+02 -0.17298776617E+03  0.20180828785E+03  0.00000000000E+00 0. -1.
         -5    1    5    5    0  502 -0.88666386623E+02 -0.55316610537E+02  0.11143722114E+03  0.15284632731E+03  0.47000000000E+01 0.  1.
         11    1    6    6    0    0 -0.25244239275E+02 -0.17375614007E+02  0.15132507496E+02  0.34178595082E+02  0.00000000000E+00 0. -1.
        -12    1    6    6    0    0 -0.12036545893E+02  0.64454104044E+02  0.10458092901E+02  0.66397151086E+02  0.00000000000E+00 0.  1.
</event>
<event>
12    1  0.8494789E-002  0.2536749E+03  0.7818608E-02  0.1111246E+00
         21   -1    0    0  501  502  0.00000000000E+00  0.00000000000E+00  0.17718153531E+03  0.17718153531E+03  0.00000000000E+00 0. -1.
         21   -1    0    0  502  503 -0.00000000000E+00 -0.00000000000E+00 -0.60759529227E+03  0.60759529227E+03  0.00000000000E+00 0. -1.
         -6    2    1    2    0  503  0.17535284078E+03 -0.56307147936E+02 -0.46480612144E+03  0.52878110753E+03  0.17217902161E+03 0.  0.
        -24    2    3    3    0    0  0.33267821346E+02 -0.69665428590E+02 -0.20588990305E+03  0.23310172957E+03  0.77367591876E+02 0.  0.
          6    2    1    2  501    0 -0.17535284078E+03  0.56307147936E+02  0.34392364480E+02  0.25599572005E+03  0.17444729941E+03 0.  0.
         24    2    5    5    0    0 -0.54150124820E+02 -0.33796650076E+02  0.30083506437E+02  0.10483537793E+03  0.77530571599E+02 0.  0.
          5    1    5    5  501    0 -0.12120271596E+03  0.90103798011E+02  0.43088580433E+01  0.15116034212E+03  0.47000000000E+01 0. -1.
        -13    1    6    6    0    0  0.11280005798E+02 -0.72343976606E+01 -0.15726630735E+02  0.20661605808E+02  0.00000000000E+00 0.  1.
         14    1    6    6    0    0 -0.65430130618E+02 -0.26562252415E+02  0.45810137171E+02  0.84173772125E+02  0.00000000000E+00 0. -1.
         -5    1    3    3    0  503  0.14208501943E+03  0.13358280655E+02 -0.25891621838E+03  0.29567937796E+03  0.47000000000E+01 0.  1.
         11    1    4    4    0    0  0.42406109036E+02 -0.74410639426E+02 -0.20568390903E+03  0.22280280918E+03  0.00000000000E+00 0. -1.
        -12    1    4    4    0    0 -0.91382876906E+01  0.47452108357E+01 -0.20599402420E+00  0.10298920396E+02  0.00000000000E+00 0.  1.
</event>
<event>
12    1  0.8494789E-002  0.1780636E+03  0.7818608E-02  0.1170329E+00
         21   -1    0    0  503  502  0.00000000000E+00  0.00000000000E+00  0.52980011269E+03  0.52980011269E+03  0.00000000000E+00 0. -1.
         21   -1    0    0  501  503 -0.00000000000E+00 -0.00000000000E+00 -0.18579409458E+03  0.18579409458E+03  0.00000000000E+00 0. -1.
          6    2    1    2  501    0  0.39050755570E+01  0.32916333426E+02 -0.12399173483E+03  0.21486620014E+03  0.17232178920E+03 0.  0.
         24    2    3    3    0    0  0.11769666810E+02  0.89240528483E+02 -0.83976059717E+02  0.14516963638E+03  0.76940546797E+02 0.  0.
         -6    2    1    2    0  502 -0.39050755570E+01 -0.32916333426E+02  0.46799775295E+03  0.50072800713E+03  0.17495115243E+03 0.  0.
        -24    2    5    5    0    0  0.21477576696E+02  0.44913968492E+02  0.21849724660E+03  0.23809817714E+03  0.80443423097E+02 0.  0.
          5    1    3    3  501    0 -0.78645912531E+01 -0.56324195057E+02 -0.40015675116E+02  0.69696563756E+02  0.47000000000E+01 0. -1.
        -11    1    4    4    0    0 -0.74302263044E+01  0.96063677935E+02 -0.77912197590E+02  0.12391024580E+03  0.00000000000E+00 0.  1.
         12    1    4    4    0    0  0.19199893115E+02 -0.68231494516E+01 -0.60638621275E+01  0.21259390583E+02  0.00000000000E+00 0. -1.
         -5    1    5    5    0  502 -0.25382652254E+02 -0.77830301918E+02  0.24950050635E+03  0.26262982999E+03  0.47000000000E+01 0.  1.
         13    1    6    6    0    0  0.46876734810E+02  0.31690630941E+02  0.18770845274E+03  0.19605149218E+03  0.00000000000E+00 0. -1.
        -14    1    6    6    0    0 -0.25399158113E+02  0.13223337551E+02  0.30788793858E+02  0.42046684960E+02  0.00000000000E+00 0.  1.
</event>
<event>
12    1  0.8494789E-002  0.2126367E+03  0.7818608E-02  0.1139769E+00
         21   -1    0    0  503  502  0.00000000000E+00  0.00000000000E+00  0.29053385062E+03  0.29053385062E+03  0.00000000000E+00 0.  1.
         21   -1    0    0  501  503 -0.00000000000E+00 -0.00000000000E+00 -0.17921442025E+03  0.17921442025E+03  0.00000000000E+00 0.  1.
          6    2    1    2  501    0  0.11380640222E+02 -0.12250214995E+03 -0.31540225423E+02  0.21357790355E+03  0.17171033560E+03 0.  0.
         24    2    3    3    0    0 -0.38568688250E+02 -0.86658095933E+02 -0.67038094476E+02  0.14243072981E+03  0.82433229832E+02 0.  0.
         -6    2    1    2    0  502 -0.11380640222E+02  0.12250214995E+03  0.14285965579E+03  0.25617036732E+03  0.17343033219E+03 0.  0.
        -24    2    5    5    0    0 -0.10935925608E+02 -0.69383065143E+01  0.73923011967E+02  0.10944143219E+03  0.79656015566E+02 0.  0.
          5    1    3    3  501    0  0.49949328472E+02 -0.35844054020E+02  0.35497869053E+02  0.71147173736E+02  0.47000000000E+01 0. -1.
        -13    1    4    4    0    0 -0.37579624722E+02 -0.77059094690E+02 -0.12019762763E+02  0.86572553189E+02  0.00000000000E+00 0.  1.
         14    1    4    4    0    0 -0.98906352767E+00 -0.95990012433E+01 -0.55018331713E+02  0.55858176626E+02  0.00000000000E+00 0. -1.
         -5    1    5    5    0  502 -0.44471461462E+00  0.12944045647E+03  0.68936643828E+02  0.14672893513E+03  0.47000000000E+01 0.  1.
         13    1    6    6    0    0  0.28394608966E+02 -0.23572376880E+02  0.43299857414E+02  0.56892780053E+02  0.00000000000E+00 0. -1.
        -14    1    6    6    0    0 -0.39330534574E+02  0.16634070366E+02  0.30623154553E+02  0.52548652139E+02  0.00000000000E+00 0.  1.
</event>
<event>
12    1  0.8494789E-002  0.2741933E+03  0.7818608E-02  0.1101106E+00
         21   -1    0    0  503  502  0.00000000000E+00  0.00000000000E+00  0.16267766935E+04  0.16267766935E+04  0.00000000000E+00 0. -1.
         21   -1    0    0  501  503 -0.00000000000E+00 -0.00000000000E+00 -0.47024246238E+02  0.47024246238E+02  0.00000000000E+00 0.  1.
          6    2    1    2  501    0  0.19039474977E+03 -0.34671971308E+02  0.58787476826E+03  0.64867459267E+03  0.19424128730E+03 0.  0.
         24    2    3    3    0    0  0.77848337189E+02  0.48916746389E+02  0.16823601370E+03  0.20621268127E+03  0.75941437519E+02 0.  0.
         -6    2    1    2    0  502 -0.19039474977E+03  0.34671971308E+02  0.99187767902E+03  0.10251263471E+04  0.17207670096E+03 0.  0.
        -24    2    5    5    0    0 -0.93035018392E+02  0.19472612482E+02  0.81453220048E+03  0.82218929635E+03  0.59142506954E+02 0.  0.
          5    1    3    3  501    0  0.11254641258E+03 -0.83588717697E+02  0.41963875455E+03  0.44246191139E+03  0.47000000000E+01 0. -1.
        -11    1    4    4    0    0  0.40982491150E+02 -0.15303352903E+02  0.78522894447E+02  0.89886607141E+02  0.00000000000E+00 0.  1.
         12    1    4    4    0    0  0.36865846039E+02  0.64220099292E+02  0.89713119253E+02  0.11632607413E+03  0.00000000000E+00 0. -1.
         -5    1    5    5    0  502 -0.97359731373E+02  0.15199358826E+02  0.17734547854E+03  0.20293705073E+03  0.47000000000E+01 0.  1.
         13    1    6    6    0    0  0.17973591322E+01 -0.48167829601E+01  0.18671854482E+03  0.18678931146E+03  0.00000000000E+00 0. -1.
        -14    1    6    6    0    0 -0.94832377524E+02  0.24289395442E+02  0.62781365566E+03  0.63539998488E+03  0.00000000000E+00 0.  1.
</event>
<event>
12    1  0.8494789E-002  0.1880266E+03  0.7818608E-02  0.1160735E+00
         21   -1    0    0  503  502  0.00000000000E+00  0.00000000000E+00  0.23212049589E+02  0.23212049589E+02  0.00000000000E+00 0.  1.
         21   -1    0    0  501  503 -0.00000000000E+00 -0.00000000000E+00 -0.15233086267E+04  0.15233086267E+04  0.00000000000E+00 0.  1.
          6    2    1    2  501    0 -0.36317776167E+02 -0.67260045260E+02 -0.82793275979E+03  0.84855349008E+03  0.16949181763E+03 0.  0.
         24    2    3    3    0    0 -0.36965669625E+02 -0.14301524153E+02 -0.20533095781E+03  0.22368540916E+03  0.79393738502E+02 0.  0.
         -6    2    1    2    0  502  0.36317776167E+02  0.67260045260E+02 -0.67216381731E+03  0.69796718619E+03  0.17178795403E+03 0.  0.
        -24    2    5    5    0    0  0.44918774661E+02  0.96838978880E+02 -0.63830267762E+03  0.65195026246E+03  0.78824820416E+02 0.  0.
          5    1    3    3  501    0  0.64789345744E+00 -0.52958521107E+02 -0.62260180198E+03  0.62486808092E+03  0.47000000000E+01 0. -1.
        -13    1    4    4    0    0 -0.48354714938E+01 -0.25204954028E+02 -0.13735927785E+02  0.29109228850E+02  0.00000000000E+00 0.  1.
         14    1    4    4    0    0 -0.32130198131E+02  0.10903429875E+02 -0.19159503003E+03  0.19457618031E+03  0.00000000000E+00 0. -1.
         -5    1    5    5    0  502 -0.86009984938E+01 -0.29578933620E+02 -0.33861139688E+02  0.46016923736E+02  0.47000000000E+01 0.  1.
         11    1    6    6    0    0  0.57189455266E+02  0.56189188477E+02 -0.28359065089E+03  0.29470581258E+03  0.00000000000E+00 0. -1.
        -12    1    6    6    0    0 -0.12270680605E+02  0.40649790403E+02 -0.35471202673E+03  0.35724444988E+03  0.00000000000E+00 0.  1.
</event>
<event>
12    1  0.8494789E-002  0.3108903E+03  0.7818608E-02  0.1080123E+00
         21   -1    0    0  503  502  0.00000000000E+00  0.00000000000E+00  0.51453358862E+03  0.51453358862E+03  0.00000000000E+00 0.  1.
         21   -1    0    0  501  503 -0.00000000000E+00 -0.00000000000E+00 -0.42800433852E+03  0.42800433852E+03  0.00000000000E+00 0. -1.
          6    2    1    2  501    0 -0.24784569114E+03  0.75755112562E+02 -0.31055162789E+03  0.43823047999E+03  0.16863367490E+03 0.  0.
         24    2    3    3    0    0 -0.11812402692E+03 -0.24722618542E+02 -0.16331779470E+03  0.21772339110E+03  0.78525660529E+02 0.  0.
         -6    2    1    2    0  502  0.24784569114E+03 -0.75755112562E+02  0.39708087798E+03  0.50430744715E+03  0.17171620161E+03 0.  0.
        -24    2    5    5    0    0  0.23301545417E+03 -0.62806648174E+02  0.40873716352E+03  0.48095027157E+03  0.77499793180E+02 0.  0.
          5    1    3    3  501    0 -0.12972166423E+03  0.10047773110E+03 -0.14723383319E+03  0.22050708889E+03  0.47000000000E+01 0. -1.
        -13    1    4    4    0    0 -0.27487995077E+02 -0.43416746971E+02 -0.55542989632E+02  0.75667876197E+02  0.00000000000E+00 0.  1.
         14    1    4    4    0    0 -0.90636031840E+02  0.18694128429E+02 -0.10777480507E+03  0.14205551490E+03  0.00000000000E+00 0. -1.
         -5    1    5    5    0  502  0.14830236969E+02 -0.12948464388E+02 -0.11656285537E+02  0.23357175580E+02  0.47000000000E+01 0.  1.
         11    1    6    6    0    0  0.73887989337E+02 -0.58457386124E+02  0.14665481952E+03  0.17431103536E+03  0.00000000000E+00 0. -1.
        -12    1    6    6    0    0  0.15912746484E+03 -0.43492620499E+01  0.26208234400E+03  0.30663923621E+03  0.00000000000E+00 0.  1.
</event>
<event>
12    1  0.8494789E-002  0.2490671E+03  0.7818608E-02  0.1114172E+00
         21   -1    0    0  503  502  0.00000000000E+00  0.00000000000E+00  0.52752836835E+03  0.52752836835E+03  0.00000000000E+00 0.  1.
         21   -1    0    0  501  503 -0.00000000000E+00 -0.00000000000E+00 -0.12588821156E+03  0.12588821156E+03  0.00000000000E+00 0. -1.
          6    2    1    2  501    0  0.15173184542E+03  0.96392516966E+02  0.11358170989E+03  0.27374297493E+03  0.17239588527E+03 0.  0.
         24    2    3    3    0    0  0.13780489560E+03  0.74809130274E+02  0.14793996919E+03  0.23058764508E+03  0.81840285649E+02 0.  0.
         -6    2    1    2    0  502 -0.15173184542E+03 -0.96392516966E+02  0.28805844690E+03  0.37967360498E+03  0.16988321650E+03 0.  0.
        -24    2    5    5    0    0 -0.15664138756E+02 -0.69985425282E+02  0.14712216890E+03  0.18194429571E+03  0.79469926168E+02 0.  0.
          5    1    3    3  501    0  0.13926949827E+02  0.21583386692E+02 -0.34358259301E+02  0.43155329853E+02  0.47000000000E+01 0. -1.
        -13    1    4    4    0    0  0.29365405652E+02  0.55569542562E+02  0.77802095471E+02  0.10001733434E+03  0.00000000000E+00 0.  1.
         14    1    4    4    0    0  0.10843948994E+03  0.19239587712E+02  0.70137873719E+02  0.13057031073E+03  0.00000000000E+00 0. -1.
         -5    1    5    5    0  502 -0.13606770667E+03 -0.26407091684E+02  0.14093627800E+03  0.19772930927E+03  0.47000000000E+01 0.  1.
         11    1    6    6    0    0 -0.35636191878E+02 -0.43757631244E+02  0.38209073705E+02  0.68151315300E+02  0.00000000000E+00 0. -1.
        -12    1    6    6    0    0  0.19972053123E+02 -0.26227794038E+02  0.10891309519E+03  0.11379298041E+03  0.00000000000E+00 0.  1.
</event>
<event>
12    1  0.8494789E-002  0.2749907E+03  0.7818608E-02  0.1099479E+00
         21   -1    0    0  503  502  0.00000000000E+00  0.00000000000E+00  0.39784225022E+03  0.39784225022E+03  0.00000000000E+00 0.  1.
         21   -1    0    0  501  503 -0.00000000000E+00 -0.00000000000E+00 -0.22172536846E+03  0.22172536846E+03  0.00000000000E+00 0. -1.
          6    2    1    2  501    0 -0.92699783669E+02 -0.18301033529E+03  0.21488903959E+03  0.34899454056E+03  0.18312251989E+03 0.  0.
         24    2    3    3    0    0 -0.10946030697E+03 -0.10992781859E+03  0.21088579690E+03  0.27376100189E+03  0.80041131427E+02 0.  0.
         -6    2    1    2    0  502  0.92699783669E+02  0.18301033529E+03 -0.38772157829E+02  0.27057307812E+03  0.17210600707E+03 0.  0.
        -24    2    5    5    0    0  0.83784971714E+02  0.19784675277E+03 -0.10194946774E+01  0.22877658627E+03  0.78577528546E+02 0.  0.
          5    1    3    3  501    0  0.16760523299E+02 -0.73082516697E+02  0.40032426815E+01  0.75233538665E+02  0.47000000000E+01 0. -1.
        -13    1    4    4    0    0 -0.79442075151E+02 -0.61693877239E+02  0.71980081760E+02  0.12368633701E+03  0.00000000000E+00 0.  1.
         14    1    4    4    0    0 -0.30018231817E+02 -0.48233941351E+02  0.13890571514E+03  0.15007466488E+03  0.00000000000E+00 0. -1.
         -5    1    5    5    0  502  0.89148119555E+01 -0.14836417480E+02 -0.37752663152E+02  0.41796491849E+02  0.47000000000E+01 0.  1.
         11    1    6    6    0    0 -0.32367976262E+01  0.82893342578E+01  0.17239583042E+02  0.19400854228E+02  0.00000000000E+00 0. -1.
        -12    1    6    6    0    0  0.87021769340E+02  0.18955741851E+03 -0.18259077719E+02  0.20937573205E+03  0.00000000000E+00 0.  1.
</event>
<event>
12    1  0.8494789E-002  0.2366901E+03  0.7818608E-02  0.1122850E+00
         21   -1    0    0  503  502  0.00000000000E+00  0.00000000000E+00  0.61106854705E+03  0.61106854705E+03  0.00000000000E+00 0.  1.
         21   -1    0    0  501  503 -0.00000000000E+00 -0.00000000000E+00 -0.11180962992E+03  0.11180962992E+03  0.00000000000E+00 0. -1.
          6    2    1    2  501    0 -0.11139611391E+03 -0.11001258928E+03  0.87227623807E+02  0.24770243316E+03  0.17098530066E+03 0.  0.
         24    2    3    3    0    0 -0.10339361725E+03 -0.13988247458E+03  0.97755497403E+02  0.21469976474E+03  0.79262254069E+02 0.  0.
         -6    2    1    2    0  502  0.11139611391E+03  0.11001258928E+03  0.41203129333E+03  0.47517574381E+03  0.17751151182E+03 0.  0.
        -24    2    5    5    0    0  0.23598836627E+00  0.92708430728E+02  0.23468908824E+03  0.26510824246E+03  0.81292701185E+02 0.  0.
          5    1    3    3  501    0 -0.80024966601E+01  0.29869885303E+02 -0.10527873595E+02  0.33002668426E+02  0.47000000000E+01 0. -1.
        -13    1    4    4    0    0 -0.66053889499E+02 -0.69761124457E+02  0.95147073260E+02  0.13521352134E+03  0.00000000000E+00 0.  1.
         14    1    4    4    0    0 -0.37339727755E+02 -0.70121350127E+02  0.26084241432E+01  0.79486243394E+02  0.00000000000E+00 0. -1.
         -5    1    5    5    0  502  0.11116012555E+03  0.17304158554E+02  0.17734220509E+03  0.21006750135E+03  0.47000000000E+01 0.  1.
         11    1    6    6    0    0  0.29449719193E+02  0.15723415635E+02  0.31628021182E+02  0.45987427452E+02  0.00000000000E+00 0. -1.
        -12    1    6    6    0    0 -0.29213730827E+02  0.76985015092E+02  0.20306106706E+03  0.21912081501E+03  0.00000000000E+00 0.  1.
</event>
<event>
12    1  0.8494789E-002  0.1856293E+03  0.7818608E-02  0.1162696E+00
         21   -1    0    0  501  502  0.00000000000E+00  0.00000000000E+00  0.56488071068E+02  0.56488071068E+02  0.00000000000E+00 0.  1.
         21   -1    0    0  502  503 -0.00000000000E+00 -0.00000000000E+00 -0.63814370492E+03  0.63814370492E+03  0.00000000000E+00 0.  1.
         -6    2    1    2    0  503  0.29410653069E+02 -0.63045599715E+02 -0.36862109825E+03  0.41272236931E+03  0.17210027859E+03 0.  0.
        -24    2    3    3    0    0 -0.93848735730E+01 -0.57072650050E+02 -0.95650391109E+02  0.13690383118E+03  0.79046179141E+02 0.  0.
          6    2    1    2  501    0 -0.29410653069E+02  0.63045599715E+02 -0.21303453560E+03  0.28190940668E+03  0.17102475277E+03 0.  0.
         24    2    5    5    0    0 -0.57304792860E+02  0.81282336042E+02 -0.94961919587E+02  0.15913361820E+03  0.80094224706E+02 0.  0.
          5    1    5    5  501    0  0.27894139791E+02 -0.18236736326E+02 -0.11807261601E+03  0.12277578848E+03  0.47000000000E+01 0. -1.
        -11    1    6    6    0    0  0.22093372480E+01  0.64837400588E+02 -0.58932613913E+02  0.87646007716E+02  0.00000000000E+00 0.  1.
         12    1    6    6    0    0 -0.59514130108E+02  0.16444935454E+02 -0.36029305674E+02  0.71487610479E+02  0.00000000000E+00 0. -1.
         -5    1    3    3    0  503  0.38795526642E+02 -0.59729496651E+01 -0.27297070714E+03  0.27581853813E+03  0.47000000000E+01 0.  1.
         13    1    4    4    0    0  0.33526348212E+02 -0.37255863826E+02 -0.41896752290E+02  0.65324981946E+02  0.00000000000E+00 0. -1.
        -14    1    4    4    0    0 -0.42911221785E+02 -0.19816786224E+02 -0.53753638819E+02  0.71578849234E+02  0.00000000000E+00 0.  1.
</event>
<event>
12    1  0.8494789E-002  0.2455151E+03  0.7818608E-02  0.1116216E+00
         21   -1    0    0  503  502  0.00000000000E+00  0.00000000000E+00  0.99392770722E+02  0.99392770722E+02  0.00000000000E+00 0.  1.
         21   -1    0    0  501  503 -0.00000000000E+00 -0.00000000000E+00 -0.80115160138E+03  0.80115160138E+03  0.00000000000E+00 0. -1.
          6    2    1    2  501    0 -0.17295370144E+03 -0.27773785525E+02 -0.57336898401E+03  0.62372243083E+03  0.17202707024E+03 0.  0.
         24    2    3    3    0    0 -0.14833219453E+03 -0.76728895521E+02 -0.38077348381E+03  0.42342780262E+03  0.80080551378E+02 0.  0.
         -6    2    1    2    0  502  0.17295370144E+03  0.27773785525E+02 -0.12838984665E+03  0.27682194127E+03  0.17164518182E+03 0.  0.
        -24    2    5    5    0    0  0.75478653396E+01 -0.11442451193E+01 -0.13071783189E+02  0.73067950210E+02  0.71482685065E+02 0.  0.
          5    1    3    3  501    0 -0.24621506912E+02  0.48955109995E+02 -0.19259550019E+03  0.20029462821E+03  0.47000000000E+01 0. -1.
        -11    1    4    4    0    0  0.60438854011E+01 -0.19747941771E+02 -0.41967083706E+02  0.46773345719E+02  0.00000000000E+00 0.  1.
         12    1    4    4    0    0 -0.15437607993E+03 -0.56980953749E+02 -0.33880640011E+03  0.37665445690E+03  0.00000000000E+00 0. -1.
         -5    1    5    5    0  502  0.16540583610E+03  0.28918030644E+02 -0.11531806346E+03  0.20375399106E+03  0.47000000000E+01 0.  1.
         13    1    6    6    0    0  0.10418703576E+02 -0.22192911946E+02  0.21422039468E+02  0.32557311004E+02  0.00000000000E+00 0. -1.
        -14    1    6    6    0    0 -0.28708382365E+01  0.21048666827E+02 -0.34493822657E+02  0.40510639206E+02  0.00000000000E+00 0.  1.
</event>
<event>
12    1  0.8494789E-002  0.1911900E+03  0.7818608E-02  0.1158330E+00
         21   -1    0    0  503  502  0.00000000000E+00  0.00000000000E+00  0.31673673293E+02  0.31673673293E+02  0.00000000000E+00 0.  1.
         21   -1    0    0  501  503 -0.00000000000E+00 -0.00000000000E+00 -0.21092636921E+04  0.21092636921E+04  0.00000000000E+00 0.  1.
          6    2    1    2  501    0 -0.68809441389E+02  0.92571300287E+01 -0.17623670074E+04  0.17722652006E+04  0.17368373162E+03 0.  0.
         24    2    3    3    0    0 -0.29552180980E+02 -0.58157456773E+02 -0.11901875086E+04  0.11947729254E+04  0.81733814728E+02 0.  0.
         -6    2    1    2    0  502  0.68809441389E+02 -0.92571300287E+01 -0.31522301138E+03  0.36867216481E+03  0.17813810520E+03 0.  0.
        -24    2    5    5    0    0  0.18470069669E+02  0.63420417927E+02 -0.16467992505E+03  0.19402569573E+03  0.78506050756E+02 0.  0.
          5    1    3    3  501    0 -0.39257260409E+02  0.67414586801E+02 -0.57217949883E+03  0.57749227518E+03  0.47000000000E+01 0. -1.
        -11    1    4    4    0    0  0.23119470063E+02  0.35040706520E+01 -0.28840488220E+03  0.28935128215E+03  0.00000000000E+00 0.  1.
         12    1    4    4    0    0 -0.52671651043E+02 -0.61661527425E+02 -0.90178262639E+03  0.90542164324E+03  0.00000000000E+00 0. -1.
         -5    1    5    5    0  502  0.50339371720E+02 -0.72677547955E+02 -0.15054308632E+03  0.17464646908E+03  0.47000000000E+01 0.  1.
         11    1    6    6    0    0  0.43763230485E+02  0.49946574632E+02 -0.76481732739E+02  0.10128838089E+03  0.00000000000E+00 0. -1.
        -12    1    6    6    0    0 -0.25293160816E+02  0.13473843294E+02 -0.88198192315E+02  0.92737314846E+02  0.00000000000E+00 0.  1.
</event>
<event>
12    1  0.8494789E-002  0.2867798E+03  0.7818608E-02  0.1092372E+00
         21   -1    0    0  503  502  0.00000000000E+00  0.00000000000E+00  0.29675294096E+03  0.29675294096E+03  0.00000000000E+00 0.  1.
         21   -1    0    0  501  503 -0.00000000000E+00 -0.00000000000E+00 -0.93969639222E+03  0.93969639222E+03  0.00000000000E+00 0. -1.
          6    2    1    2  501    0 -0.21017194437E+03 -0.85561532637E+02 -0.84192876232E+03  0.88943053077E+03  0.17535565622E+03 0.  0.
         24    2    3    3    0    0 -0.17685019182E+03  0.12638788344E+01 -0.58121562588E+03  0.61258685505E+03  0.78571390978E+02 0.  0.
         -6    2    1    2    0  502  0.21017194437E+03  0.85561532637E+02  0.19898531106E+03  0.34701880240E+03  0.17127134360E+03 0.  0.
        -24    2    5    5    0    0  0.10073348762E+03 -0.73692032583E+01  0.14468364623E+03  0.19344908438E+03  0.79294703968E+02 0.  0.
          5    1    3    3  501    0 -0.33321752554E+02 -0.86825411472E+02 -0.26071313645E+03  0.27684367572E+03  0.47000000000E+01 0. -1.
        -13    1    4    4    0    0 -0.14285544734E+02  0.25078516373E+02 -0.10096323630E+03  0.10500754190E+03  0.00000000000E+00 0.  1.
         14    1    4    4    0    0 -0.16256464708E+03 -0.23814637538E+02 -0.48025238958E+03  0.50757931315E+03  0.00000000000E+00 0. -1.
         -5    1    5    5    0  502  0.10943845675E+03  0.92930735896E+02  0.54301664829E+02  0.15356971802E+03  0.47000000000E+01 0.  1.
         13    1    6    6    0    0  0.10377943695E+03 -0.28045201674E+02  0.12197170555E+03  0.16258475275E+03  0.00000000000E+00 0. -1.
        -14    1    6    6    0    0 -0.30459493335E+01  0.20675998416E+02  0.22711940681E+02  0.30864331636E+02  0.00000000000E+00 0.  1.
</event>
<event>
12    1  0.8494789E-002  0.1923567E+03  0.7818608E-02  0.1156757E+00
         21   -1    0    0  503  502  0.00000000000E+00  0.00000000000E+00  0.34145774857E+03  0.34145774857E+03  0.00000000000E+00 0.  1.
         21   -1    0    0  501  503 -0.00000000000E+00 -0.00000000000E+00 -0.22350957472E+03  0.22350957472E+03  0.00000000000E+00 0.  1.
          6    2    1    2  501    0 -0.10281966257E+02 -0.81388916473E+02 -0.14454185151E+03  0.24061055601E+03  0.17398625885E+03 0.  0.
         24    2    3    3    0    0 -0.91867390521E+00 -0.11856688022E+03 -0.96932626536E+02  0.17930312958E+03  0.93245531501E+02 0.  0.
         -6    2    1    2    0  502  0.10281966257E+02  0.81388916473E+02  0.26249002537E+03  0.32435676728E+03  0.17197797682E+03 0.  0.
        -24    2    5    5    0    0  0.33076439257E+02 -0.52757135642E+01  0.18895872154E+03  0.20834259254E+03  0.81113213679E+02 0.  0.
          5    1    3    3  501    0 -0.93632923518E+01  0.37177963747E+02 -0.47609224975E+02  0.61307426424E+02  0.47000000000E+01 0. -1.
        -11    1    4    4    0    0  0.45722642681E+02 -0.58553782747E+02 -0.40296036765E+02  0.84515537665E+02  0.00000000000E+00 0.  1.
         12    1    4    4    0    0 -0.46641316586E+02 -0.60013097473E+02 -0.56636589770E+02  0.94787591920E+02  0.00000000000E+00 0. -1.
         -5    1    5    5    0  502 -0.22794473000E+02  0.86664630037E+02  0.73531303827E+02  0.11601417474E+03  0.47000000000E+01 0.  1.
         11    1    6    6    0    0  0.41660734594E+01 -0.23414373173E+02  0.94054354316E+01  0.25574425797E+02  0.00000000000E+00 0. -1.
        -12    1    6    6    0    0  0.28910365798E+02  0.18138659609E+02  0.17955328611E+03  0.18276816674E+03  0.00000000000E+00 0.  1.
</event>
<event>
12    1  0.8494789E-002  0.1933635E+03  0.7818608E-02  0.1156032E+00
         21   -1    0    0  501  502  0.00000000000E+00  0.00000000000E+00  0.75854765165E+02  0.75854765165E+02  0.00000000000E+00 0.  1.
         21   -1    0    0  502  503 -0.00000000000E+00 -0.00000000000E+00 -0.49676457942E+03  0.49676457942E+03  0.00000000000E+00 0.  1.
         -6    2    1    2    0  503  0.61622351022E+01 -0.82511087792E+02 -0.17044568563E+03  0.25776184690E+03  0.17476665934E+03 0.  0.
        -24    2    3    3    0    0 -0.18310259042E+02  0.22732295958E+02 -0.74426945761E+02  0.11313556575E+03  0.80051627822E+02 0.  0.
          6    2    1    2  501    0 -0.61622351022E+01  0.82511087792E+02 -0.25046412863E+03  0.31485749769E+03  0.17192123595E+03 0.  0.
         24    2    5    5    0    0  0.37163327450E+02  0.54130948666E+02 -0.24103129317E+03  0.26200293259E+03  0.78982149143E+02 0.  0.
          5    1    5    5  501    0 -0.43325562553E+02  0.28380139126E+02 -0.94328354513E+01  0.52854565100E+02  0.47000000000E+01 0. -1.
        -11    1    6    6    0    0  0.18918115728E+02  0.87324306322E+01 -0.56478954767E+01  0.21588172010E+02  0.00000000000E+00 0.  1.
         12    1    6    6    0    0  0.18245211723E+02  0.45398518034E+02 -0.23538339770E+03  0.24041476058E+03  0.00000000000E+00 0. -1.
         -5    1    3    3    0  503  0.24472494144E+02 -0.10524338375E+03 -0.96018739868E+02  0.14462628115E+03  0.47000000000E+01 0.  1.
         13    1    4    4    0    0 -0.15465719973E+01  0.39148826036E+02 -0.79947520966E+02  0.89031615584E+02  0.00000000000E+00 0. -1.
        -14    1    4    4    0    0 -0.16763687045E+02 -0.16416530077E+02  0.55205752049E+01  0.24103950168E+02  0.00000000000E+00 0.  1.
</event>
<event>
12    1  0.8494789E-002  0.2065310E+03  0.7818608E-02  0.1144468E+00
         21   -1    0    0  501  502  0.00000000000E+00  0.00000000000E+00  0.11615120343E+04  0.11615120343E+04  0.00000000000E+00 0. -1.
         21   -1    0    0  502  503 -0.00000000000E+00 -0.00000000000E+00 -0.47950566497E+02  0.47950566497E+02  0.00000000000E+00 0. -1.
         -6    2    1    2    0  503  0.10607190956E+03  0.39012078244E+02  0.26209958031E+03  0.33331055582E+03  0.17212363108E+03 0.  0.
        -24    2    3    3    0    0  0.33256028065E+02 -0.32110077068E+02  0.17753423452E+03  0.20089491746E+03  0.81873945681E+02 0.  0.
          6    2    1    2  501    0 -0.10607190956E+03 -0.39012078244E+02  0.85146188751E+03  0.87615204500E+03  0.17286372615E+03 0.  0.
         24    2    5    5    0    0 -0.39859297674E+02  0.39773741120E+02  0.51874580667E+03  0.52785131896E+03  0.79743895671E+02 0.  0.
          5    1    5    5  501    0 -0.66212611888E+02 -0.78785819364E+02  0.33271608085E+03  0.34830072604E+03  0.47000000000E+01 0. -1.
        -11    1    6    6    0    0 -0.14540671513E+02  0.62063830395E+02  0.32536862959E+03  0.33155406089E+03  0.00000000000E+00 0.  1.
         12    1    6    6    0    0 -0.25318626161E+02 -0.22290089275E+02  0.19337717708E+03  0.19629725807E+03  0.00000000000E+00 0. -1.
         -5    1    3    3    0  503  0.72815881497E+02  0.71122155312E+02  0.84565345784E+02  0.13241563836E+03  0.47000000000E+01 0.  1.
         13    1    4    4    0    0  0.35331991877E+02  0.25747841386E+01  0.22392021191E+02  0.41909208730E+02  0.00000000000E+00 0. -1.
        -14    1    4    4    0    0 -0.20759638112E+01 -0.34684861206E+02  0.15514221333E+03  0.15898570873E+03  0.00000000000E+00 0.  1.
</event>
<event>
12    1  0.8494789E-002  0.1759115E+03  0.7818608E-02  0.1172259E+00
         21   -1    0    0  501  502  0.00000000000E+00  0.00000000000E+00  0.86909945657E+02  0.86909945657E+02  0.00000000000E+00 0.  1.
         21   -1    0    0  502  503 -0.00000000000E+00 -0.00000000000E+00 -0.49419579278E+03  0.49419579278E+03  0.00000000000E+00 0.  1.
         -6    2    1    2    0  503  0.12916760492E+02  0.29942505021E+02 -0.35848472772E+03  0.39855057365E+03  0.17107853003E+03 0.  0.
        -24    2    3    3    0    0  0.56179976261E+02 -0.10946256013E+02 -0.13611094625E+03  0.16829900404E+03  0.80761097198E+02 0.  0.
          6    2    1    2  501    0 -0.12916760492E+02 -0.29942505021E+02 -0.48801119398E+02  0.18255516479E+03  0.17286249630E+03 0.  0.
         24    2    5    5    0    0 -0.70722149969E+02 -0.38524574897E+02 -0.13478608870E+02  0.11410894702E+03  0.79708302744E+02 0.  0.
          5    1    5    5  501    0  0.57805389477E+02  0.85820698762E+01 -0.35322510528E+02  0.68446217762E+02  0.47000000000E+01 0. -1.
        -11    1    6    6    0    0 -0.25471955354E+02 -0.18304865439E+02  0.33448585215E+02  0.45855168315E+02  0.00000000000E+00 0.  1.
         12    1    6    6    0    0 -0.45250194615E+02 -0.20219709458E+02 -0.46927194085E+02  0.68253778708E+02  0.00000000000E+00 0. -1.
         -5    1    3    3    0  503 -0.43263215769E+02  0.40888761034E+02 -0.22237378148E+03  0.23025156961E+03  0.47000000000E+01 0.  1.
         11    1    4    4    0    0  0.51602065001E+02  0.17257221368E+01 -0.26821182442E+02  0.58181844736E+02  0.00000000000E+00 0. -1.
        -12    1    4    4    0    0  0.45779112602E+01 -0.12671978150E+02 -0.10928976380E+03  0.11011715931E+03  0.00000000000E+00 0.  1.
</event>
<event>
12    1  0.8494789E-002  0.1721485E+03  0.7818608E-02  0.1175811E+00
         21   -1    0    0  503  502  0.00000000000E+00  0.00000000000E+00  0.16007357886E+03  0.16007357886E+03  0.00000000000E+00 0.  1.
         21   -1    0    0  501  503 -0.00000000000E+00 -0.00000000000E+00 -0.58745379191E+03  0.58745379191E+03  0.00000000000E+00 0.  1.
          6    2    1    2  501    0 -0.72973907229E+01 -0.25927171765E-01 -0.52343863649E+03  0.55102007169E+03  0.17199378087E+03 0.  0.
         24    2    3    3    0    0 -0.48614332094E+02  0.13993483596E+00 -0.48632521030E+03  0.49528306821E+03  0.80185625964E+02 0.  0.
         -6    2    1    2    0  502  0.72973907229E+01  0.25927171765E-01  0.96058423435E+02  0.19650729908E+03  0.17127359777E+03 0.  0.
        -24    2    5    5    0    0  0.25513041646E+02  0.19672495335E+02  0.12790804152E+03  0.15462310455E+03  0.80684044322E+02 0.  0.
          5    1    3    3  501    0  0.41316941371E+02 -0.16586200773E+00 -0.37113426186E+02  0.55737003487E+02  0.47000000000E+01 0. -1.
        -11    1    4    4    0    0  0.24897616895E+01 -0.30399032388E+02 -0.23669059688E+03  0.23864772937E+03  0.00000000000E+00 0.  1.
         12    1    4    4    0    0 -0.51104093783E+02  0.30538967224E+02 -0.24963461342E+03  0.25663533883E+03  0.00000000000E+00 0. -1.
         -5    1    5    5    0  502 -0.18215650923E+02 -0.19646568163E+02 -0.31849618084E+02  0.41884194528E+02  0.47000000000E+01 0.  1.
         13    1    6    6    0    0  0.50268269511E+02  0.31237271266E+02  0.93952346323E+02  0.11103922467E+03  0.00000000000E+00 0. -1.
        -14    1    6    6    0    0 -0.24755227865E+02 -0.11564775932E+02  0.33955695196E+02  0.43583879878E+02  0.00000000000E+00 0.  1.
</event>
<event>
12    1  0.8494789E-002  0.1927460E+03  0.7818608E-02  0.1156071E+00
         21   -1    0    0  503  502  0.00000000000E+00  0.00000000000E+00  0.80689356792E+03  0.80689356792E+03  0.00000000000E+00 0.  1.
         21   -1    0    0  501  503 -0.00000000000E+00 -0.00000000000E+00 -0.14331022995E+03  0.14331022995E+03  0.00000000000E+00 0.  1.
          6    2    1    2  501    0 -0.84030612094E+02 -0.72754420767E+00 -0.59678553916E+02  0.20177347983E+03  0.17346277490E+03 0.  0.
         24    2    3    3    0    0 -0.87204667028E+02 -0.52034598500E+02 -0.72588489408E+02  0.14856403632E+03  0.80560106134E+02 0.  0.
         -6    2    1    2    0  502  0.84030612094E+02  0.72754420767E+00  0.72326189189E+03  0.74843031803E+03  0.17314301488E+03 0.  0.
        -24    2    5    5    0    0 -0.22839733686E+02 -0.23981059544E+01  0.37356190566E+03  0.38272112910E+03  0.79997255938E+02 0.  0.
          5    1    3    3  501    0  0.31740549345E+01  0.51307054292E+02  0.12909935492E+02  0.53209443516E+02  0.47000000000E+01 0. -1.
        -13    1    4    4    0    0 -0.84675429089E+02 -0.21169252122E+02 -0.78083529715E+02  0.11711149875E+03  0.00000000000E+00 0.  1.
         14    1    4    4    0    0 -0.25292379387E+01 -0.30865346377E+02  0.54950403062E+01  0.31452537569E+02  0.00000000000E+00 0. -1.
         -5    1    5    5    0  502  0.10687034578E+03  0.31256501620E+01  0.34969998623E+03  0.36570918893E+03  0.47000000000E+01 0.  1.
         13    1    6    6    0    0  0.16607849212E+02 -0.10032202812E+02  0.24020433111E+02  0.30877936388E+02  0.00000000000E+00 0. -1.
        -14    1    6    6    0    0 -0.39447582899E+02  0.76340968578E+01  0.34954147254E+03  0.35184319271E+03  0.00000000000E+00 0.  1.
</event>
<event>
12    1  0.8494789E-002  0.1962711E+03  0.7818608E-02  0.1153019E+00
         21   -1    0    0  501  502  0.00000000000E+00  0.00000000000E+00  0.31591155607E+02  0.31591155607E+02  0.00000000000E+00 0.  1.
         21   -1    0    0  502  503 -0.00000000000E+00 -0.00000000000E+00 -0.16849220928E+04  0.16849220928E+04  0.00000000000E+00 0.  1.
         -6    2    1    2    0  503  0.94440621414E+02 -0.90626693737E+01 -0.12784445793E+04  0.12933559091E+04  0.17131200287E+03 0.  0.
        -24    2    3    3    0    0  0.30029361853E+02  0.95734942694E+01 -0.26628024800E+03  0.27896208001E+03  0.76949705924E+02 0.  0.
          6    2    1    2  501    0 -0.94440621414E+02  0.90626693737E+01 -0.37488635784E+03  0.42315733925E+03  0.17181731437E+03 0.  0.
         24    2    5    5    0    0 -0.10833654836E+03  0.47408078049E+02 -0.34260840822E+03  0.37093260197E+03  0.78905894870E+02 0.  0.
          5    1    5    5  501    0  0.13895926950E+02 -0.38345408675E+02 -0.32277949622E+02  0.52224737282E+02  0.47000000000E+01 0. -1.
        -11    1    6    6    0    0 -0.61518792314E+01  0.78512738694E+01  0.12364505714E+01  0.10050717858E+02  0.00000000000E+00 0.  1.
         12    1    6    6    0    0 -0.10218466913E+03  0.39556804180E+02 -0.34384485879E+03  0.36088188411E+03  0.00000000000E+00 0. -1.
         -5    1    3    3    0  503  0.64411259561E+02 -0.18636163643E+02 -0.10121643313E+04  0.10143938291E+04  0.47000000000E+01 0.  1.
         11    1    4    4    0    0  0.38737921234E+02 -0.25803044330E+02 -0.14026837097E+03  0.14778917259E+03  0.00000000000E+00 0. -1.
        -12    1    4    4    0    0 -0.87085593808E+01  0.35376538599E+02 -0.12601187703E+03  0.13117290742E+03  0.00000000000E+00 0.  1.
</event>
<event>
12    1  0.8494789E-002  0.2656099E+03  0.7818608E-02  0.1105109E+00
         21   -1    0    0  503  502  0.00000000000E+00  0.00000000000E+00  0.21628290396E+03  0.21628290396E+03  0.00000000000E+00 0.  1.
         21   -1    0    0  501  503 -0.00000000000E+00 -0.00000000000E+00 -0.36910902324E+03  0.36910902324E+03  0.00000000000E+00 0.  1.
          6    2    1    2  501    0 -0.14783138951E+02 -0.20264937713E+03 -0.18890636818E+03  0.32593597289E+03  0.17106528354E+03 0.  0.
         24    2    3    3    0    0 -0.73635663768E+02 -0.15218383975E+03 -0.15157966837E+03  0.23976310791E+03  0.76992337200E+02 0.  0.
         -6    2    1    2    0  502  0.14783138951E+02  0.20264937713E+03  0.36080248903E+02  0.25945595432E+03  0.15725869331E+03 0.  0.
        -24    2    5    5    0    0 -0.87132907141E+01  0.35213795161E+02  0.65211732337E+01  0.87751017666E+02  0.79635309985E+02 0.  0.
          5    1    3    3  501    0  0.58852524818E+02 -0.50465537378E+02 -0.37326699810E+02  0.86172864981E+02  0.47000000000E+01 0. -1.
        -13    1    4    4    0    0 -0.61593956280E+02 -0.83954115665E+02 -0.13129145194E+03  0.16756955075E+03  0.00000000000E+00 0.  1.
         14    1    4    4    0    0 -0.12041707488E+02 -0.68229724089E+02 -0.20288216438E+02  0.72193557156E+02  0.00000000000E+00 0. -1.
         -5    1    5    5    0  502  0.23496429665E+02  0.16743558197E+03  0.29559075669E+02  0.17170493665E+03  0.47000000000E+01 0.  1.
         13    1    6    6    0    0 -0.33849741231E+02 -0.48652241123E+01 -0.12982722430E+02  0.36579044120E+02  0.00000000000E+00 0. -1.
        -14    1    6    6    0    0  0.25136450517E+02  0.40079019273E+02  0.19503895664E+02  0.51171973546E+02  0.00000000000E+00 0.  1.
</event>
<event>
12    1  0.8494789E-002  0.2000653E+03  0.7818608E-02  0.1151713E+00
         21   -1    0    0  503  502  0.00000000000E+00  0.00000000000E+00  0.31230354262E+03  0.31230354262E+03  0.00000000000E+00 0.  1.
         21   -1    0    0  501  503 -0.00000000000E+00 -0.00000000000E+00 -0.16882554142E+03  0.16882554142E+03  0.00000000000E+00 0. -1.
          6    2    1    2  501    0 -0.10107786953E+03  0.13055008018E+02 -0.55870258841E+02  0.19870055924E+03  0.16116220859E+03 0.  0.
         24    2    3    3    0    0 -0.34761753971E+01  0.30233023864E+02 -0.26024105852E+01  0.86091818091E+02  0.80491670836E+02 0.  0.
         -6    2    1    2    0  502  0.10107786953E+03 -0.13055008018E+02  0.19934826005E+03  0.28242852480E+03  0.17215973366E+03 0.  0.
        -24    2    5    5    0    0  0.38802328018E+02 -0.30206314040E+02  0.27119976374E+02  0.98425584426E+02  0.80833535638E+02 0.  0.
          5    1    3    3  501    0 -0.97601694131E+02 -0.17178015846E+02 -0.53267848256E+02  0.11260874115E+03  0.47000000000E+01 0. -1.
        -13    1    4    4    0    0  0.95332089051E+01  0.24566617889E+02  0.36200436903E+02  0.44775801707E+02  0.00000000000E+00 0.  1.
         14    1    4    4    0    0 -0.13009384302E+02  0.56664059755E+01 -0.38802847489E+02  0.41316016384E+02  0.00000000000E+00 0. -1.
         -5    1    5    5    0  502  0.62275541511E+02  0.17151306021E+02  0.17222828367E+03  0.18400294037E+03  0.47000000000E+01 0.  1.
         11    1    6    6    0    0  0.29685911953E+02  0.63911047844E+01 -0.21269375926E+02  0.37074060220E+02  0.00000000000E+00 0. -1.
        -12    1    6    6    0    0  0.91164160642E+01 -0.36597418824E+02  0.48389352300E+02  0.61351524207E+02  0.00000000000E+00 0.  1.
</event>
<event>
12    1  0.8494789E-002  0.1882724E+03  0.7818608E-02  0.1160292E+00
         21   -1    0    0  503  502  0.00000000000E+00  0.00000000000E+00  0.31466260261E+02  0.31466260261E+02  0.00000000000E+00 0.  1.
         21   -1    0    0  501  503 -0.00000000000E+00 -0.00000000000E+00 -0.12680556192E+04  0.12680556192E+04  0.00000000000E+00 0.  1.
          6    2    1    2  501    0 -0.65931089384E+01 -0.75334489055E+02 -0.84227377286E+03  0.86305945273E+03  0.17241738941E+03 0.  0.
         24    2    3    3    0    0 -0.47149584280E+02 -0.10300651386E+03 -0.54946035301E+03  0.56612114686E+03  0.75848850997E+02 0.  0.
         -6    2    1    2    0  502  0.65931089384E+01  0.75334489055E+02 -0.39431558610E+03  0.43646242675E+03  0.17116049252E+03 0.  0.
        -24    2    5    5    0    0  0.67200137533E+02  0.67581998379E+02 -0.25344759179E+03  0.28284213237E+03  0.81736191906E+02 0.  0.
          5    1    3    3  501    0  0.40556475341E+02  0.27672024802E+02 -0.29281341985E+03  0.29693830587E+03  0.47000000000E+01 0. -1.
        -13    1    4    4    0    0 -0.16608908784E+02 -0.78343877537E+02 -0.47732174756E+03  0.48399346038E+03  0.00000000000E+00 0.  1.
         14    1    4    4    0    0 -0.30540675495E+02 -0.24662636320E+02 -0.72138605447E+02  0.82127686476E+02  0.00000000000E+00 0. -1.
         -5    1    5    5    0  502 -0.60607028594E+02  0.77524906761E+01 -0.14086799431E+03  0.15362029438E+03  0.47000000000E+01 0.  1.
         11    1    6    6    0    0 -0.55300778061E+01 -0.14532353828E+02 -0.25335563274E+02  0.29726450086E+02  0.00000000000E+00 0. -1.
        -12    1    6    6    0    0  0.72730215339E+02  0.82114352207E+02 -0.22811202852E+03  0.25311568228E+03  0.00000000000E+00 0.  1.
</event>
<event>
12    1  0.8494789E-002  0.1801520E+03  0.7818608E-02  0.1168452E+00
         21   -1    0    0  503  502  0.00000000000E+00  0.00000000000E+00  0.10879047544E+03  0.10879047544E+03  0.00000000000E+00 0. -1.
         21   -1    0    0  501  503 -0.00000000000E+00 -0.00000000000E+00 -0.29294632738E+03  0.29294632738E+03  0.00000000000E+00 0. -1.
          6    2    1    2  501    0  0.23886980093E+02  0.34677648497E+02 -0.92404279683E+02  0.20246796335E+03  0.17516163437E+03 0.  0.
         24    2    3    3    0    0  0.21449563837E+02  0.79608438890E+02 -0.10394402952E+03  0.15577778505E+03  0.81638040831E+02 0.  0.
         -6    2    1    2    0  502 -0.23886980093E+02 -0.34677648497E+02 -0.91751572255E+02  0.19926883947E+03  0.17180393549E+03 0.  0.
        -24    2    5    5    0    0 -0.65379187730E+02 -0.27640879805E+01 -0.10250462607E+03  0.14562373899E+03  0.80106158450E+02 0.  0.
          5    1    3    3  501    0  0.24374162560E+01 -0.44930790393E+02  0.11539749838E+02  0.46690178300E+02  0.47000000000E+01 0. -1.
        -11    1    4    4    0    0  0.36134866208E+01 -0.11021644484E+02 -0.44377463643E+02  0.45868215706E+02  0.00000000000E+00 0.  1.
         12    1    4    4    0    0  0.17836077217E+02  0.90630083374E+02 -0.59566565878E+02  0.10990956934E+03  0.00000000000E+00 0. -1.
         -5    1    5    5    0  502  0.41492207637E+02 -0.31913560516E+02  0.10753053812E+02  0.53645100482E+02  0.47000000000E+01 0.  1.
         11    1    6    6    0    0 -0.37446353788E+02 -0.88926909428E+00 -0.11036289067E+03  0.11654607608E+03  0.00000000000E+00 0. -1.
        -12    1    6    6    0    0 -0.27932833942E+02 -0.18748188863E+01  0.78582646046E+01  0.29077662913E+02  0.00000000000E+00 0.  1.
</event>
<event>
12    1  0.8494789E-002  0.3270958E+03  0.7818608E-02  0.1072483E+00
         21   -1    0    0  503  502  0.00000000000E+00  0.00000000000E+00  0.23469112901E+03  0.23469112901E+03  0.00000000000E+00 0. -1.
         21   -1    0    0  501  503 -0.00000000000E+00 -0.00000000000E+00 -0.10158498964E+04  0.10158498964E+04  0.00000000000E+00 0. -1.
          6    2    1    2  501    0 -0.11885413421E+03 -0.25098870655E+03 -0.85521373148E+03  0.91563211052E+03  0.17282939354E+03 0.  0.
         24    2    3    3    0    0 -0.15145549091E+03 -0.18258365794E+03 -0.64985990561E+03  0.69669288852E+03  0.82386443730E+02 0.  0.
         -6    2    1    2    0  502  0.11885413421E+03  0.25098870655E+03  0.74054964095E+02  0.33490891489E+03  0.17192500555E+03 0.  0.
        -24    2    5    5    0    0  0.46755689344E+02  0.20544647769E+03  0.98891511800E+02  0.24596385060E+03  0.79525687745E+02 0.  0.
          5    1    3    3  501    0  0.32601356702E+02 -0.68405048610E+02 -0.20535382587E+03  0.21893922201E+03  0.47000000000E+01 0. -1.
        -13    1    4    4    0    0  0.77199342624E+01 -0.30436195272E+01 -0.83179244567E+01  0.11749420075E+02  0.00000000000E+00 0.  1.
         14    1    4    4    0    0 -0.15917542517E+03 -0.17954003841E+03 -0.64154198116E+03  0.68494346844E+03  0.00000000000E+00 0. -1.
         -5    1    5    5    0  502  0.72098444864E+02  0.45542228855E+02 -0.24836547705E+02  0.88945064297E+02  0.47000000000E+01 0.  1.
         13    1    6    6    0    0  0.61836200108E+02  0.10384173494E+03  0.68128766178E+02  0.13873842417E+03  0.00000000000E+00 0. -1.
        -14    1    6    6    0    0 -0.15080510764E+02  0.10160474275E+03  0.30762745623E+02  0.10722542643E+03  0.00000000000E+00 0.  1.
</event>
<event>
12    1  0.8494789E-002  0.2015176E+03  0.7818608E-02  0.1148656E+00
         21   -1    0    0  501  502  0.00000000000E+00  0.00000000000E+00  0.13128819335E+03  0.13128819335E+03  0.00000000000E+00 0. -1.
         21   -1    0    0  502  503 -0.00000000000E+00 -0.00000000000E+00 -0.31906372738E+03  0.31906372738E+03  0.00000000000E+00 0. -1.
         -6    2    1    2    0  503  0.10175171431E+03  0.24885243924E+02 -0.51595601112E+02  0.20713529092E+03  0.17108546391E+03 0.  0.
        -24    2    3    3    0    0  0.10480806887E+03 -0.18002577761E+02 -0.80340779964E+02  0.15520185410E+03  0.79524527571E+02 0.  0.
          6    2    1    2  501    0 -0.10175171431E+03 -0.24885243924E+02 -0.13617993291E+03  0.24321662982E+03  0.17215303704E+03 0.  0.
         24    2    5    5    0    0  0.16369887211E+00  0.21580040860E+02 -0.26244324870E+02  0.86201655850E+02  0.79222698278E+02 0.  0.
          5    1    5    5  501    0 -0.10191541318E+03 -0.46465284785E+02 -0.10993560804E+03  0.15701497397E+03  0.47000000000E+01 0. -1.
        -13    1    6    6    0    0 -0.39443592227E+02  0.10630030589E+02 -0.10348419526E+02  0.42141242326E+02  0.00000000000E+00 0.  1.
         14    1    6    6    0    0  0.39607291099E+02  0.10950010272E+02 -0.15895905344E+02  0.44060413524E+02  0.00000000000E+00 0. -1.
         -5    1    3    3    0  503 -0.30563545653E+01  0.42887821685E+02  0.28745178852E+02  0.51933436814E+02  0.47000000000E+01 0.  1.
         13    1    4    4    0    0  0.57671141473E+02  0.20547601598E+02 -0.97796691144E+01  0.61998438837E+02  0.00000000000E+00 0. -1.
        -14    1    4    4    0    0  0.47136927401E+02 -0.38550179359E+02 -0.70561110849E+02  0.93203415268E+02  0.00000000000E+00 0.  1.
</event>
<event>
12    1  0.8494789E-002  0.1916650E+03  0.7818608E-02  0.1157417E+00
         21   -1    0    0  503  502  0.00000000000E+00  0.00000000000E+00  0.33621150850E+03  0.33621150850E+03  0.00000000000E+00 0. -1.
         21   -1    0    0  501  503 -0.00000000000E+00 -0.00000000000E+00 -0.16214615210E+03  0.16214615210E+03  0.00000000000E+00 0. -1.
          6    2    1    2  501    0 -0.52799953158E+02 -0.60307853177E+02 -0.56488333347E+02  0.19981591316E+03  0.17409938294E+03 0.  0.
         24    2    3    3    0    0 -0.65911119370E+01 -0.74648823606E+02 -0.89144507823E+02  0.14125452510E+03  0.79938776353E+02 0.  0.
         -6    2    1    2    0  502  0.52799953158E+02  0.60307853177E+02  0.23055368975E+03  0.29854174744E+03  0.17189327764E+03 0.  0.
        -24    2    5    5    0    0  0.53081459238E+02  0.68038197148E+02  0.25173786035E+03  0.27550489550E+03  0.71303292512E+02 0.  0.
          5    1    3    3  501    0 -0.46208841221E+02  0.14340970429E+02  0.32656174475E+02  0.58561388057E+02  0.47000000000E+01 0. -1.
        -11    1    4    4    0    0  0.17725583885E+02 -0.88194964442E+01  0.80504689739E+01  0.21372643550E+02  0.00000000000E+00 0.  1.
         12    1    4    4    0    0 -0.24316695822E+02 -0.65829327162E+02 -0.97194976797E+02  0.11988188155E+03  0.00000000000E+00 0. -1.
         -5    1    5    5    0  502 -0.28150608011E+00 -0.77303439707E+01 -0.21184170596E+02  0.23036851943E+02  0.47000000000E+01 0.  1.
         11    1    6    6    0    0 -0.85121796375E+01  0.43900346888E+02  0.12064049111E+03  0.12866167166E+03  0.00000000000E+00 0. -1.
        -12    1    6    6    0    0  0.61593638876E+02  0.24137850260E+02  0.13109736924E+03  0.14684322384E+03  0.00000000000E+00 0.  1.
</event>
<event>
12    1  0.8494789E-002  0.1825763E+03  0.7818608E-02  0.1165825E+00
         21   -1    0    0  503  502  0.00000000000E+00  0.00000000000E+00  0.14568801164E+03  0.14568801164E+03  0.00000000000E+00 0. -1.
         21   -1    0    0  501  503 -0.00000000000E+00 -0.00000000000E+00 -0.40715554476E+03  0.40715554476E+03  0.00000000000E+00 0. -1.
          6    2    1    2  501    0 -0.21958198931E+02 -0.52424582992E+02 -0.31540928588E+03  0.36444083418E+03  0.17350390369E+03 0.  0.
         24    2    3    3    0    0 -0.24527917619E+02  0.17036372974E+02 -0.26499473717E+03  0.27844580770E+03  0.80112423195E+02 0.  0.
         -6    2    1    2    0  502  0.21958198931E+02  0.52424582992E+02  0.53941752763E+02  0.18840272222E+03  0.17133409949E+03 0.  0.
        -24    2    5    5    0    0 -0.55041437423E+01  0.13930759916E+02  0.96411366137E+02  0.12467115438E+03  0.77610460266E+02 0.  0.
          5    1    3    3  501    0  0.25697186881E+01 -0.69460955967E+02 -0.50414548709E+02  0.85995026481E+02  0.47000000000E+01 0. -1.
        -13    1    4    4    0    0 -0.20610752207E+02  0.48861496314E+02 -0.17790467620E+03  0.18564030473E+03  0.00000000000E+00 0.  1.
         14    1    4    4    0    0 -0.39171654118E+01 -0.31825123339E+02 -0.87090060970E+02  0.92805502963E+02  0.00000000000E+00 0. -1.
         -5    1    5    5    0  502  0.27462342673E+02  0.38493823076E+02 -0.42469613374E+02  0.63731567847E+02  0.47000000000E+01 0.  1.
         13    1    6    6    0    0 -0.37032828572E+02 -0.71189165424E+01  0.29946514286E+02  0.48154990216E+02  0.00000000000E+00 0. -1.
        -14    1    6    6    0    0  0.31528684830E+02  0.21049676459E+02  0.66464851851E+02  0.76516164160E+02  0.00000000000E+00 0.  1.
</event>
<event>
12    1  0.8494789E-002  0.2126060E+03  0.7818608E-02  0.1139570E+00
         21   -1    0    0  501  502  0.00000000000E+00  0.00000000000E+00  0.80324732500E+02  0.80324732500E+02  0.00000000000E+00 0. -1.
         21   -1    0    0  502  503 -0.00000000000E+00 -0.00000000000E+00 -0.56694909547E+03  0.56694909547E+03  0.00000000000E+00 0. -1.
         -6    2    1    2    0  503 -0.14024660747E+02  0.12780310137E+03 -0.21335263429E+03  0.30119869707E+03  0.16932508594E+03 0.  0.
        -24    2    3    3    0    0 -0.31095181194E+01  0.15359076893E+03 -0.21085291433E+03  0.27269461427E+03  0.79395262855E+02 0.  0.
          6    2    1    2  501    0  0.14024660747E+02 -0.12780310137E+03 -0.27327172867E+03  0.34607513090E+03  0.16899773579E+03 0.  0.
         24    2    5    5    0    0 -0.49929704914E+02 -0.95828778072E+02 -0.21824435402E+03  0.25572791069E+03  0.78038683387E+02 0.  0.
          5    1    5    5  501    0  0.63954365661E+02 -0.31974323302E+02 -0.55027374652E+02  0.90347220205E+02  0.47000000000E+01 0. -1.
        -13    1    6    6    0    0 -0.23194392992E+01 -0.39528292432E+02 -0.15042210794E+03  0.15554637976E+03  0.00000000000E+00 0.  1.
         14    1    6    6    0    0 -0.47610265615E+02 -0.56300485640E+02 -0.67822246086E+02  0.10018153093E+03  0.00000000000E+00 0. -1.
         -5    1    3    3    0  503 -0.10915142628E+02 -0.25787667556E+02 -0.24997199597E+01  0.28504082803E+02  0.47000000000E+01 0.  1.
         11    1    4    4    0    0 -0.11815511407E+02  0.75665247131E+01 -0.63609806647E+02  0.65138821817E+02  0.00000000000E+00 0. -1.
        -12    1    4    4    0    0  0.87059932879E+01  0.14602424422E+03 -0.14724310769E+03  0.20755579245E+03  0.00000000000E+00 0.  1.
</event>
<event>
12    1  0.8494789E-002  0.2166208E+03  0.7818608E-02  0.1137525E+00
         21   -1    0    0  503  502  0.00000000000E+00  0.00000000000E+00  0.39672004742E+03  0.39672004742E+03  0.00000000000E+00 0. -1.
         21   -1    0    0  501  503 -0.00000000000E+00 -0.00000000000E+00 -0.12318067330E+03  0.12318067330E+03  0.00000000000E+00 0. -1.
          6    2    1    2  501    0 -0.11202144435E+03  0.53737286421E+02  0.72294713664E+02  0.22836616333E+03  0.17744880666E+03 0.  0.
         24    2    3    3    0    0 -0.37039564938E+02  0.37897368574E+02 -0.29948256178E+02  0.10050334575E+03  0.79974274261E+02 0.  0.
         -6    2    1    2    0  502  0.11202144435E+03 -0.53737286421E+02  0.20124466046E+03  0.29153455740E+03  0.17045962820E+03 0.  0.
        -24    2    5    5    0    0  0.98611237075E+02 -0.31449976840E+02  0.57792085308E+02  0.14566718906E+03  0.84650621522E+02 0.  0.
          5    1    3    3  501    0 -0.74981879409E+02  0.15839917847E+02  0.10224296984E+03  0.12786281758E+03  0.47000000000E+01 0. -1.
        -13    1    4    4    0    0 -0.38831635622E+02  0.39382220019E+02  0.13550236902E+02  0.56942638671E+02  0.00000000000E+00 0.  1.
         14    1    4    4    0    0  0.17920706843E+01 -0.14848514447E+01 -0.43498493079E+02  0.43560707080E+02  0.00000000000E+00 0. -1.
         -5    1    5    5    0  502  0.13410207271E+02 -0.22287309581E+02  0.14345257515E+03  0.14586736833E+03  0.47000000000E+01 0.  1.
         11    1    6    6    0    0 -0.13375423097E+02 -0.59770506073E+01  0.19939375984E+02  0.24742792720E+02  0.00000000000E+00 0. -1.
        -12    1    6    6    0    0  0.11198666017E+03 -0.25472926233E+02  0.37852709325E+02  0.12092439634E+03  0.00000000000E+00 0.  1.
</event>
<event>
12    1  0.8494789E-002  0.1760964E+03  0.7818608E-02  0.1172685E+00
         21   -1    0    0  501  502  0.00000000000E+00  0.00000000000E+00  0.14959014293E+03  0.14959014293E+03  0.00000000000E+00 0.  1.
         21   -1    0    0  502  503 -0.00000000000E+00 -0.00000000000E+00 -0.47370865720E+03  0.47370865720E+03  0.00000000000E+00 0.  1.
         -6    2    1    2    0  503 -0.34216238574E+02 -0.14555713166E+02 -0.39872033427E+03  0.43587594298E+03  0.17212586365E+03 0.  0.
        -24    2    3    3    0    0 -0.72274325938E+02 -0.48141928793E+02 -0.29041808836E+03  0.31617665992E+03  0.89909903438E+02 0.  0.
          6    2    1    2  501    0  0.34216238574E+02  0.14555713166E+02  0.74601820001E+02  0.18742285716E+03  0.16786684029E+03 0.  0.
         24    2    5    5    0    0  0.72662740792E+02 -0.43515690400E+01  0.91883459709E+02  0.14098619143E+03  0.78330874838E+02 0.  0.
          5    1    5    5  501    0 -0.38446502218E+02  0.18907282206E+02 -0.17281639708E+02  0.46436665731E+02  0.47000000000E+01 0. -1.
        -13    1    6    6    0    0 -0.14899024948E+02 -0.79844633865E+01  0.27350704816E+02  0.32152661692E+02  0.00000000000E+00 0.  1.
         14    1    6    6    0    0  0.87561765740E+02  0.36328943466E+01  0.64532754893E+02  0.10883352974E+03  0.00000000000E+00 0. -1.
         -5    1    3    3    0  503  0.38058087364E+02  0.33586215627E+02 -0.10830224591E+03  0.11969928306E+03  0.47000000000E+01 0.  1.
         13    1    4    4    0    0 -0.91376285972E+02 -0.24529124522E+02 -0.22205250733E+03  0.24136822409E+03  0.00000000000E+00 0. -1.
        -14    1    4    4    0    0  0.19101960034E+02 -0.23612804271E+02 -0.68365581027E+02  0.74808435834E+02  0.00000000000E+00 0.  1.
</event>
<event>
12    1  0.8494789E-002  0.1819970E+03  0.7818608E-02  0.1166878E+00
         21   -1    0    0  503  502  0.00000000000E+00  0.00000000000E+00  0.10310832858E+03  0.10310832858E+03  0.00000000000E+00 0. -1.
         21   -1    0    0  501  503 -0.00000000000E+00 -0.00000000000E+00 -0.42766603129E+03  0.42766603129E+03  0.00000000000E+00 0. -1.
          6    2    1    2  501    0  0.43625990141E+02 -0.31441825474E+02 -0.30044297196E+03  0.35126753910E+03  0.17387089814E+03 0.  0.
         24    2    3    3    0    0 -0.31272085523E+02  0.85501826997E+01 -0.21169407046E+03  0.22835480593E+03  0.79249536082E+02 0.  0.
         -6    2    1    2    0  502 -0.43625990141E+02  0.31441825474E+02 -0.24114730747E+02  0.17950682076E+03  0.16955637132E+03 0.  0.
        -24    2    5    5    0    0 -0.19844371277E+02 -0.18367250192E+02  0.48240323483E+02  0.88381339766E+02  0.68941841128E+02 0.  0.
          5    1    3    3  501    0  0.74898075663E+02 -0.39992008174E+02 -0.88748901505E+02  0.12291273317E+03  0.47000000000E+01 0. -1.
        -11    1    4    4    0    0 -0.19700385382E+02 -0.13566233037E+01 -0.40567305173E+01  0.20159431377E+02  0.00000000000E+00 0.  1.
         12    1    4    4    0    0 -0.11571700141E+02  0.99068060033E+01 -0.20763733994E+03  0.20819537456E+03  0.00000000000E+00 0. -1.
         -5    1    5    5    0  502 -0.23781618864E+02  0.49809075666E+02 -0.72355054230E+02  0.91125480998E+02  0.47000000000E+01 0.  1.
         11    1    6    6    0    0 -0.34987598582E+02 -0.11173804422E+01  0.52072201646E-01  0.35005475359E+02  0.00000000000E+00 0. -1.
        -12    1    6    6    0    0  0.15143227306E+02 -0.17249869749E+02  0.48188251281E+02  0.53375864406E+02  0.00000000000E+00 0.  1.
</event>
<event>
12    1  0.8494789E-002  0.2178995E+03  0.7818608E-02  0.1135567E+00
         21   -1    0    0  503  502  0.00000000000E+00  0.00000000000E+00  0.19130154819E+04  0.19130154819E+04  0.00000000000E+00 0. -1.
         21   -1    0    0  501  503 -0.00000000000E+00 -0.00000000000E+00 -0.67129861230E+02  0.67129861230E+02  0.00000000000E+00 0. -1.
          6    2    1    2  501    0  0.31745734221E+02 -0.12915478842E+03  0.17091170853E+04  0.17228792847E+04  0.17188096802E+03 0.  0.
         24    2    3    3    0    0 -0.39979960464E+02 -0.10088887182E+03  0.97083625169E+03  0.98056923042E+03  0.84947197471E+02 0.  0.
         -6    2    1    2    0  502 -0.31745734221E+02  0.12915478842E+03  0.13676853534E+03  0.25726605845E+03  0.17260197438E+03 0.  0.
        -24    2    5    5    0    0 -0.47714876567E+02  0.11469282511E+03  0.32083298660E+02  0.15028358013E+03  0.78260225066E+02 0.  0.
          5    1    3    3  501    0  0.71725694685E+02 -0.28265916601E+02  0.73828083362E+03  0.74231005423E+03  0.47000000000E+01 0. -1.
        -11    1    4    4    0    0 -0.15648319896E+02 -0.53806062387E+02  0.19409119636E+03  0.20201820405E+03  0.00000000000E+00 0.  1.
         12    1    4    4    0    0 -0.24331640568E+02 -0.47082809437E+02  0.77674505533E+03  0.77855102637E+03  0.00000000000E+00 0. -1.
         -5    1    5    5    0  502  0.15969142346E+02  0.14461963317E+02  0.10468523668E+03  0.10698247832E+03  0.47000000000E+01 0.  1.
         13    1    6    6    0    0 -0.59713684968E+02  0.72682410170E+02 -0.32069504808E+01  0.94120887437E+02  0.00000000000E+00 0. -1.
        -14    1    6    6    0    0  0.11998808401E+02  0.42010414938E+02  0.35290249141E+02  0.56162692695E+02  0.00000000000E+00 0.  1.
</event>
<event>
12    1  0.8494789E-002  0.2390825E+03  0.7818608E-02  0.1120466E+00
         21   -1    0    0  501  502  0.00000000000E+00  0.00000000000E+00  0.10698473031E+03  0.10698473031E+03  0.00000000000E+00 0.  1.
         21   -1    0    0  502  503 -0.00000000000E+00 -0.00000000000E+00 -0.69867643387E+03  0.69867643387E+03  0.00000000000E+00 0. -1.
         -6    2    1    2    0  503 -0.67118186807E+02  0.15181695315E+03 -0.49155412045E+03  0.54645470363E+03  0.17156354952E+03 0.  0.
        -24    2    3    3    0    0 -0.96235837033E+02  0.16594504446E+03 -0.43589234139E+03  0.48189648055E+03  0.73640957212E+02 0.  0.
          6    2    1    2  501    0  0.67118186807E+02 -0.15181695315E+03 -0.10013758311E+03  0.25920646055E+03  0.17206747332E+03 0.  0.
         24    2    5    5    0    0  0.65546177193E+02 -0.86824069416E+02  0.54217371531E+01  0.13514435415E+03  0.79999255305E+02 0.  0.
          5    1    5    5  501    0  0.15720096145E+01 -0.64992883737E+02 -0.10555932026E+03  0.12406210640E+03  0.47000000000E+01 0. -1.
        -13    1    6    6    0    0  0.38080628528E+00 -0.65131040252E+02 -0.64272405951E+01  0.65448505249E+02  0.00000000000E+00 0.  1.
         14    1    6    6    0    0  0.65165370907E+02 -0.21693029165E+02  0.11848977748E+02  0.69695848897E+02  0.00000000000E+00 0. -1.
         -5    1    3    3    0  503  0.29117650225E+02 -0.14128091305E+02 -0.55661779067E+02  0.64558223082E+02  0.47000000000E+01 0.  1.
         13    1    4    4    0    0 -0.47019826138E+02  0.83718000396E+02 -0.30442865139E+03  0.31921211040E+03  0.00000000000E+00 0. -1.
        -14    1    4    4    0    0 -0.49216010895E+02  0.82227044062E+02 -0.13146369000E+03  0.16268437015E+03  0.00000000000E+00 0.  1.
</event>
<event>
12    1  0.8494789E-002  0.1742944E+03  0.7818608E-02  0.1174006E+00
         21   -1    0    0  503  502  0.00000000000E+00  0.00000000000E+00  0.65593009996E+03  0.65593009996E+03  0.00000000000E+00 0. -1.
         21   -1    0    0  501  503 -0.00000000000E+00 -0.00000000000E+00 -0.35630053520E+03  0.35630053520E+03  0.00000000000E+00 0. -1.
          6    2    1    2  501    0 -0.19538301880E+02 -0.16720084236E+02 -0.32258515682E+03  0.36666024461E+03  0.17238690532E+03 0.  0.
         24    2    3    3    0    0 -0.40080513731E+02 -0.52193793451E+02 -0.10989846068E+03  0.15000824895E+03  0.78065123050E+02 0.  0.
         -6    2    1    2    0  502  0.19538301880E+02  0.16720084236E+02  0.62221472157E+03  0.64557039055E+03  0.17014306615E+03 0.  0.
        -24    2    5    5    0    0  0.12378406173E+02 -0.52102910397E+02  0.44726848374E+03  0.45737861382E+03  0.79234851072E+02 0.  0.
          5    1    3    3  501    0  0.20542211852E+02  0.35473709215E+02 -0.21268669613E+03  0.21665199566E+03  0.47000000000E+01 0. -1.
        -11    1    4    4    0    0 -0.60198036660E+02 -0.46047908601E+02 -0.62807764520E+02  0.98432864370E+02  0.00000000000E+00 0.  1.
         12    1    4    4    0    0  0.20117522929E+02 -0.61458848500E+01 -0.47090696165E+02  0.51575384581E+02  0.00000000000E+00 0. -1.
         -5    1    5    5    0  502  0.71598957067E+01  0.68822994633E+02  0.17494623783E+03  0.18819177673E+03  0.47000000000E+01 0.  1.
         13    1    6    6    0    0  0.32226295725E+02 -0.39355747763E+02  0.13573063846E+03  0.14494900909E+03  0.00000000000E+00 0. -1.
        -14    1    6    6    0    0 -0.19847889552E+02 -0.12747162635E+02  0.31153784528E+03  0.31242960473E+03  0.00000000000E+00 0.  1.
</event>
<event>
12    1  0.8494789E-002  0.2433380E+03  0.7818608E-02  0.1117847E+00
         21   -1    0    0  501  502  0.00000000000E+00  0.00000000000E+00  0.19699835028E+03  0.19699835028E+03  0.00000000000E+00 0. -1.
         21   -1    0    0  502  503 -0.00000000000E+00 -0.00000000000E+00 -0.30301045465E+03  0.30301045465E+03  0.00000000000E+00 0.  1.
         -6    2    1    2    0  503  0.16511478359E+03 -0.40777411709E+02 -0.82859679462E+02  0.25557182387E+03  0.17182997878E+03 0.  0.
        -24    2    3    3    0    0  0.84434647991E+02  0.19291725566E+02 -0.88415459765E+02  0.15472271763E+03  0.92846353561E+02 0.  0.
          6    2    1    2  501    0 -0.16511478359E+03  0.40777411709E+02 -0.23152424914E+02  0.24443698107E+03  0.17403365728E+03 0.  0.
         24    2    5    5    0    0 -0.19257684094E+03  0.37937964223E+02 -0.34998770605E+02  0.21402887422E+03  0.77835186525E+02 0.  0.
          5    1    5    5  501    0  0.27462057347E+02  0.28394474860E+01  0.11846345690E+02  0.30408106846E+02  0.47000000000E+01 0. -1.
        -13    1    6    6    0    0 -0.46513221457E+02 -0.17397306376E+02 -0.29450626039E+02  0.57736343957E+02  0.00000000000E+00 0.  1.
         14    1    6    6    0    0 -0.14606361948E+03  0.55335270599E+02 -0.55481445659E+01  0.15629253026E+03  0.00000000000E+00 0. -1.
         -5    1    3    3    0  503  0.80680135599E+02 -0.60069137275E+02  0.55557803030E+01  0.10084910623E+03  0.47000000000E+01 0.  1.
         13    1    4    4    0    0  0.61000178628E+02  0.34734622418E+02 -0.93404813024E+01  0.70814972839E+02  0.00000000000E+00 0. -1.
        -14    1    4    4    0    0  0.23434469362E+02 -0.15442896852E+02 -0.79074978463E+02  0.83907744794E+02  0.00000000000E+00 0.  1.
</event>
<event>
12    1  0.8494789E-002  0.2153484E+03  0.7818608E-02  0.1137709E+00
         21   -1    0    0  501  502  0.00000000000E+00  0.00000000000E+00  0.10156733079E+03  0.10156733079E+03  0.00000000000E+00 0.  1.
         21   -1    0    0  502  503 -0.00000000000E+00 -0.00000000000E+00 -0.53928709403E+03  0.53928709403E+03  0.00000000000E+00 0. -1.
         -6    2    1    2    0  503 -0.12305620761E+03 -0.27256799941E+02 -0.34758504620E+03  0.40888911448E+03  0.17461151229E+03 0.  0.
        -24    2    3    3    0    0 -0.12821118132E+03 -0.46715308367E+02 -0.17758247704E+03  0.23763441870E+03  0.79461649547E+02 0.  0.
          6    2    1    2  501    0  0.12305620761E+03  0.27256799941E+02 -0.90134717031E+02  0.23196531034E+03  0.17262060889E+03 0.  0.
         24    2    5    5    0    0  0.92246035026E+02  0.65302918600E+02 -0.11213603463E+03  0.17808654035E+03  0.79790497148E+02 0.  0.
          5    1    5    5  501    0  0.30810172579E+02 -0.38046118659E+02  0.22001317600E+02  0.53878769989E+02  0.47000000000E+01 0. -1.
        -11    1    6    6    0    0  0.62612723980E+02  0.20663418804E+02 -0.15718996601E+02  0.67782128434E+02  0.00000000000E+00 0.  1.
         12    1    6    6    0    0  0.29633311046E+02  0.44639499796E+02 -0.96417038030E+02  0.11030441192E+03  0.00000000000E+00 0. -1.
         -5    1    3    3    0  503  0.51549737161E+01  0.19458508426E+02 -0.17000256917E+03  0.17125469578E+03  0.47000000000E+01 0.  1.
         13    1    4    4    0    0 -0.87772435145E+02 -0.67144679216E+02 -0.10741783825E+03  0.15411359542E+03  0.00000000000E+00 0. -1.
        -14    1    4    4    0    0 -0.40438746176E+02  0.20429370849E+02 -0.70164638789E+02  0.83520823284E+02  0.00000000000E+00 0.  1.
</event>
<event>
12    1  0.8494789E-002  0.2071090E+03  0.7818608E-02  0.1144809E+00
         21   -1    0    0  501  502  0.00000000000E+00  0.00000000000E+00  0.15145723647E+03  0.15145723647E+03  0.00000000000E+00 0. -1.
         21   -1    0    0  502  503 -0.00000000000E+00 -0.00000000000E+00 -0.69869210178E+03  0.69869210178E+03  0.00000000000E+00 0. -1.
         -6    2    1    2    0  503 -0.10523590138E+03 -0.48083095689E+02 -0.60505630413E+03  0.63952111259E+03  0.17177759822E+03 0.  0.
        -24    2    3    3    0    0 -0.10496275535E+03  0.10588944136E+01 -0.55046041672E+03  0.56591533345E+03  0.78963238267E+02 0.  0.
          6    2    1    2  501    0  0.10523590138E+03  0.48083095689E+02  0.57821438822E+02  0.21062822567E+03  0.16623583136E+03 0.  0.
         24    2    5    5    0    0  0.10743982373E+03  0.36187341910E+02 -0.25655593034E+02  0.12614822165E+03  0.49013517866E+02 0.  0.
          5    1    5    5  501    0 -0.22039223467E+01  0.11895753779E+02  0.83477031856E+02  0.84480004020E+02  0.47000000000E+01 0. -1.
        -11    1    6    6    0    0  0.59675811987E+02 -0.45432085209E+01 -0.49665046467E+01  0.60054220903E+02  0.00000000000E+00 0.  1.
         12    1    6    6    0    0  0.47764011742E+02  0.40730550431E+02 -0.20689088387E+02  0.66094000744E+02  0.00000000000E+00 0. -1.
         -5    1    3    3    0  503 -0.27314603350E+00 -0.49141990102E+02 -0.54595887415E+02  0.73605779138E+02  0.47000000000E+01 0.  1.
         11    1    4    4    0    0 -0.83859627569E+02  0.26632807222E+02 -0.28180550615E+03  0.29522209750E+03  0.00000000000E+00 0. -1.
        -12    1    4    4    0    0 -0.21103127779E+02 -0.25573912808E+02 -0.26865491057E+03  0.27069323595E+03  0.00000000000E+00 0.  1.
</event>
<event>
12    1  0.8494789E-002  0.2195300E+03  0.7818608E-02  0.1134272E+00
         21   -1    0    0  501  502  0.00000000000E+00  0.00000000000E+00  0.18602968572E+04  0.18602968572E+04  0.00000000000E+00 0.  1.
         21   -1    0    0  502  503 -0.00000000000E+00 -0.00000000000E+00 -0.26342881029E+02  0.26342881029E+02  0.00000000000E+00 0.  1.
         -6    2    1    2    0  503  0.37655171563E+01  0.13517355490E+03  0.10413029410E+04  0.10641501601E+04  0.17267796420E+03 0.  0.
        -24    2    3    3    0    0  0.41300038788E+01  0.17415219080E+02  0.23154985386E+03  0.24586578986E+03  0.80711244653E+02 0.  0.
          6    2    1    2  501    0 -0.37655171563E+01 -0.13517355490E+03  0.79265103516E+03  0.82248957809E+03  0.17293748421E+03 0.  0.
         24    2    5    5    0    0  0.59682067810E+02 -0.11290826880E+03  0.57906025807E+03  0.59851536291E+03  0.81238111633E+02 0.  0.
          5    1    5    5  501    0 -0.63447584966E+02 -0.22265286101E+02  0.21359077710E+03  0.22397421518E+03  0.47000000000E+01 0. -1.
        -13    1    6    6    0    0 -0.77132130401E+01 -0.59658120086E+02  0.31946212985E+03  0.32507635619E+03  0.00000000000E+00 0.  1.
         14    1    6    6    0    0  0.67395280850E+02 -0.53250148715E+02  0.25959812822E+03  0.27343900672E+03  0.00000000000E+00 0. -1.
         -5    1    3    3    0  503 -0.36448672250E+00  0.11775833582E+03  0.80975308713E+03  0.81828437027E+03  0.47000000000E+01 0.  1.
         11    1    4    4    0    0 -0.13831855926E+02  0.31607540474E+01  0.21950694881E+03  0.21996502263E+03  0.00000000000E+00 0. -1.
        -12    1    4    4    0    0  0.17961859805E+02  0.14254465033E+02  0.12042905046E+02  0.25900767227E+02  0.00000000000E+00 0.  1.
</event>
<event>
12    1  0.8494789E-002  0.1721543E+03  0.7818608E-02  0.1175626E+00
         21   -1    0    0  503  502  0.00000000000E+00  0.00000000000E+00  0.29837678179E+03  0.29837678179E+03  0.00000000000E+00 0. -1.
         21   -1    0    0  501  503 -0.00000000000E+00 -0.00000000000E+00 -0.99315910582E+02  0.99315910582E+02  0.00000000000E+00 0. -1.
          6    2    1    2  501    0  0.89328067654E+01 -0.90552493364E+01  0.10055580068E+03  0.19937044598E+03  0.17168375900E+03 0.  0.
         24    2    3    3    0    0  0.53254578675E+02 -0.18431552231E+02  0.11451617523E+03  0.15173310161E+03  0.82056123888E+02 0.  0.
         -6    2    1    2    0  502 -0.89328067654E+01  0.90552493364E+01  0.98505070523E+02  0.19832224638E+03  0.17165859115E+03 0.  0.
        -24    2    5    5    0    0 -0.34311960382E+02 -0.52473291499E+02  0.38622428228E+02  0.10866800151E+03  0.79914239308E+02 0.  0.
          5    1    3    3  501    0 -0.44321771909E+02  0.93763028942E+01 -0.13960374551E+02  0.47637344371E+02  0.47000000000E+01 0. -1.
        -13    1    4    4    0    0  0.32145645260E+02 -0.49659749944E+02  0.86389300199E+02  0.10470217029E+03  0.00000000000E+00 0.  1.
         14    1    4    4    0    0  0.21108933414E+02  0.31228197713E+02  0.28126875033E+02  0.47030931326E+02  0.00000000000E+00 0. -1.
         -5    1    5    5    0  502  0.25379153617E+02  0.61528540835E+02  0.59882642296E+02  0.89654244874E+02  0.47000000000E+01 0.  1.
         13    1    6    6    0    0 -0.51323355070E+02 -0.36318390924E+02  0.52062449015E+02  0.81630943229E+02  0.00000000000E+00 0. -1.
        -14    1    6    6    0    0  0.17011394688E+02 -0.16154900575E+02 -0.13440020787E+02  0.27037058282E+02  0.00000000000E+00 0.  1.
</event>
<event>
12    1  0.8494789E-002  0.1803613E+03  0.7818608E-02  0.1167587E+00
         21   -1    0    0  501  502  0.00000000000E+00  0.00000000000E+00  0.81510623078E+03  0.81510623078E+03  0.00000000000E+00 0.  1.
         21   -1    0    0  502  503 -0.00000000000E+00 -0.00000000000E+00 -0.64208856783E+02  0.64208856783E+02  0.00000000000E+00 0.  1.
         -6    2    1    2    0  503 -0.46553386257E+02 -0.29188666329E+02  0.10394444855E+03  0.20769146879E+03  0.17120777380E+03 0.  0.
        -24    2    3    3    0    0 -0.74298756338E+02 -0.57099614255E+02  0.34763431909E+02  0.12796111297E+03  0.79905438446E+02 0.  0.
          6    2    1    2  501    0  0.46553386257E+02  0.29188666329E+02  0.64695292545E+03  0.67162361878E+03  0.17178766411E+03 0.  0.
         24    2    5    5    0    0 -0.19499276055E+01  0.18131503036E+02  0.14048961576E+03  0.16270122158E+03  0.80011260113E+02 0.  0.
          5    1    5    5  501    0  0.48503313863E+02  0.11057163293E+02  0.50646330969E+03  0.50892239720E+03  0.47000000000E+01 0. -1.
        -11    1    6    6    0    0  0.98194496003E+01 -0.26043645950E+02  0.21310304479E+02  0.35054559787E+02  0.00000000000E+00 0.  1.
         12    1    6    6    0    0 -0.11769377206E+02  0.44175148986E+02  0.11917931128E+03  0.12764666179E+03  0.00000000000E+00 0. -1.
         -5    1    3    3    0  503  0.27745370081E+02  0.27910947927E+02  0.69181016641E+02  0.79730355816E+02  0.47000000000E+01 0.  1.
         13    1    4    4    0    0  0.60813569080E+01 -0.25712902359E+02  0.32172115176E+02  0.41631493422E+02  0.00000000000E+00 0. -1.
        -14    1    4    4    0    0 -0.80380113246E+02 -0.31386711896E+02  0.25913167321E+01  0.86329619549E+02  0.00000000000E+00 0.  1.
</event>
<event>
12    1  0.8494789E-002  0.2667814E+03  0.7818608E-02  0.1103686E+00
         21   -1    0    0  501  502  0.00000000000E+00  0.00000000000E+00  0.70183418314E+03  0.70183418314E+03  0.00000000000E+00 0.  1.
         21   -1    0    0  502  503 -0.00000000000E+00 -0.00000000000E+00 -0.20846165285E+03  0.20846165285E+03  0.00000000000E+00 0. -1.
         -6    2    1    2    0  503  0.71351615993E+02 -0.19144719147E+03 -0.82474100743E+02  0.27565289601E+03  0.16564860867E+03 0.  0.
        -24    2    3    3    0    0  0.47422937109E+02 -0.56203630203E+02 -0.92835021198E+01  0.11995332547E+03  0.94312426898E+02 0.  0.
          6    2    1    2  501    0 -0.71351615993E+02  0.19144719147E+03  0.57584663103E+03  0.63464293999E+03  0.17154952225E+03 0.  0.
         24    2    5    5    0    0 -0.10819297538E+03  0.18137495943E+03  0.51079089385E+03  0.55905805685E+03  0.83880735900E+02 0.  0.
          5    1    5    5  501    0  0.36841359387E+02  0.10072232041E+02  0.65055737184E+02  0.75584883147E+02  0.47000000000E+01 0. -1.
        -13    1    6    6    0    0 -0.52728149260E+02  0.95130353626E+02  0.15910928720E+03  0.19273247567E+03  0.00000000000E+00 0.  1.
         14    1    6    6    0    0 -0.55464826120E+02  0.86244605808E+02  0.35168160665E+03  0.36632558118E+03  0.00000000000E+00 0. -1.
         -5    1    3    3    0  503  0.23928678883E+02 -0.13524356127E+03 -0.73190598623E+02  0.15569957054E+03  0.47000000000E+01 0.  1.
         13    1    4    4    0    0 -0.13650599711E+02 -0.37264384471E+02 -0.33141918948E+02  0.51704545390E+02  0.00000000000E+00 0. -1.
        -14    1    4    4    0    0  0.61073536820E+02 -0.18939245732E+02  0.23858416828E+02  0.68248780078E+02  0.00000000000E+00 0.  1.
</event>
<event>
12    1  0.8494789E-002  0.3972334E+03  0.7818608E-02  0.1044743E+00
         21   -1    0    0  501  502  0.00000000000E+00  0.00000000000E+00  0.36920076519E+03  0.36920076519E+03  0.00000000000E+00 0.  1.
         21   -1    0    0  502  503 -0.00000000000E+00 -0.00000000000E+00 -0.10802175430E+04  0.10802175430E+04  0.00000000000E+00 0.  1.
         -6    2    1    2    0  503 -0.24004379935E+03 -0.26558883033E+03 -0.91889933626E+03  0.10010845904E+04  0.17215084804E+03 0.  0.
        -24    2    3    3    0    0 -0.23959150685E+03 -0.24261323855E+03 -0.72717349535E+03  0.80792928896E+03  0.87767704482E+02 0.  0.
          6    2    1    2  501    0  0.24004379935E+03  0.26558883033E+03  0.20788255844E+03  0.44833371783E+03  0.17213225160E+03 0.  0.
         24    2    5    5    0    0  0.21867178066E+03  0.15570003903E+03  0.11565579166E+03  0.30321247147E+03  0.80633063303E+02 0.  0.
          5    1    5    5  501    0  0.21372018689E+02  0.10988879130E+03  0.92226766782E+02  0.14512124636E+03  0.47000000000E+01 0. -1.
        -11    1    6    6    0    0  0.17555520250E+03  0.13927944150E+03  0.12431897862E+03  0.25626860985E+03  0.00000000000E+00 0.  1.
         12    1    6    6    0    0  0.43116578158E+02  0.16420597535E+02 -0.86631869578E+01  0.46943861620E+02  0.00000000000E+00 0. -1.
         -5    1    3    3    0  503 -0.45229249746E+00 -0.22975591778E+02 -0.19172584091E+03  0.19315530140E+03  0.47000000000E+01 0.  1.
         13    1    4    4    0    0 -0.22699518493E+02 -0.32359600943E+02 -0.35332650820E+02  0.53017055058E+02  0.00000000000E+00 0. -1.
        -14    1    4    4    0    0 -0.21689198836E+03 -0.21025363761E+03 -0.69184084453E+03  0.75491223390E+03  0.00000000000E+00 0.  1.
</event>
<event>
12    1  0.8494789E-002  0.2051560E+03  0.7818608E-02  0.1145969E+00
         21   -1    0    0  501  502  0.00000000000E+00  0.00000000000E+00  0.17414855897E+04  0.17414855897E+04  0.00000000000E+00 0.  1.
         21   -1    0    0  502  503 -0.00000000000E+00 -0.00000000000E+00 -0.25028737853E+02  0.25028737853E+02  0.00000000000E+00 0.  1.
         -6    2    1    2    0  503  0.40815669207E+02  0.10561935597E+03  0.66384147034E+03  0.69409270826E+03  0.16810063269E+03 0.  0.
        -24    2    3    3    0    0 -0.28029513377E+02  0.10477700841E+03  0.36883159766E+03  0.39111864387E+03  0.71924759565E+02 0.  0.
          6    2    1    2  501    0 -0.40815669207E+02 -0.10561935597E+03  0.10526153815E+04  0.10724216193E+04  0.17107782127E+03 0.  0.
         24    2    5    5    0    0  0.17085710664E+02 -0.10196401059E+03  0.89785141825E+03  0.90707378694E+03  0.77182282529E+02 0.  0.
          5    1    5    5  501    0 -0.57901379871E+02 -0.36553453768E+01  0.15476396329E+03  0.16534783238E+03  0.47000000000E+01 0. -1.
        -13    1    6    6    0    0 -0.27662802929E+02 -0.32481857702E+02  0.21117153320E+03  0.21543843246E+03  0.00000000000E+00 0.  1.
         14    1    6    6    0    0  0.44748513593E+02 -0.69482152890E+02  0.68667988505E+03  0.69163535448E+03  0.00000000000E+00 0. -1.
         -5    1    3    3    0  503  0.68845182583E+02  0.84234755573E+00  0.29500987269E+03  0.30297406440E+03  0.47000000000E+01 0.  1.
         11    1    4    4    0    0 -0.18195400960E+02  0.57559545807E+02  0.91467175085E+02  0.10959205285E+03  0.00000000000E+00 0. -1.
        -12    1    4    4    0    0 -0.98341124167E+01  0.47217462606E+02  0.27736442257E+03  0.28152659102E+03  0.00000000000E+00 0.  1.
</event>
<event>
12    1  0.8494789E-002  0.2262976E+03  0.7818608E-02  0.1129395E+00
         21   -1    0    0  501  502  0.00000000000E+00  0.00000000000E+00  0.13730859247E+03  0.13730859247E+03  0.00000000000E+00 0. -1.
         21   -1    0    0  502  503 -0.00000000000E+00 -0.00000000000E+00 -0.11243727993E+04  0.11243727993E+04  0.00000000000E+00 0.  1.
         -6    2    1    2    0  503 -0.37325988276E+02  0.14192851641E+03 -0.10098661661E+04  0.10349107655E+04  0.17226051733E+03 0.  0.
        -24    2    3    3    0    0 -0.79104550549E+02  0.81833839902E+02 -0.81073659317E+03  0.82270450911E+03  0.81207010455E+02 0.  0.
          6    2    1    2  501    0  0.37325988276E+02 -0.14192851641E+03  0.22801959338E+02  0.22677062625E+03  0.17137110143E+03 0.  0.
         24    2    5    5    0    0  0.85365305984E+02 -0.60430192115E+02  0.76315626265E+01  0.13084365483E+03  0.78248180016E+02 0.  0.
          5    1    5    5  501    0 -0.48039317708E+02 -0.81498324298E+02  0.15170396711E+02  0.95926971419E+02  0.47000000000E+01 0. -1.
        -13    1    6    6    0    0  0.65642374208E+02  0.80957832690E+00  0.10302232159E+02  0.66450829161E+02  0.00000000000E+00 0.  1.
         14    1    6    6    0    0  0.19722931776E+02 -0.61239770442E+02 -0.26706695323E+01  0.64392825667E+02  0.00000000000E+00 0. -1.
         -5    1    3    3    0  503  0.41778562273E+02  0.60094676511E+02 -0.19912957297E+03  0.21220625637E+03  0.47000000000E+01 0.  1.
         13    1    4    4    0    0 -0.47000899972E+02  0.88613586877E+02 -0.70185081684E+03  0.70898238446E+03  0.00000000000E+00 0. -1.
        -14    1    4    4    0    0 -0.32103650577E+02 -0.67797469745E+01 -0.10888577633E+03  0.11372212465E+03  0.00000000000E+00 0.  1.
</event>
<event>
12    1  0.8494789E-002  0.2232773E+03  0.7818608E-02  0.1132201E+00
         21   -1    0    0  501  502  0.00000000000E+00  0.00000000000E+00  0.17562222359E+04  0.17562222359E+04  0.00000000000E+00 0.  1.
         21   -1    0    0  502  503 -0.00000000000E+00 -0.00000000000E+00 -0.47494916884E+02  0.47494916884E+02  0.00000000000E+00 0. -1.
         -6    2    1    2    0  503 -0.12766503200E+03  0.60109129981E+02  0.27934166662E+03  0.35760945983E+03  0.17303551990E+03 0.  0.
        -24    2    3    3    0    0 -0.46633859416E+02  0.20891121870E+02  0.24239874557E+03  0.26018783746E+03  0.79557545777E+02 0.  0.
          6    2    1    2  501    0  0.12766503200E+03 -0.60109129981E+02  0.14293856524E+04  0.14461076930E+04  0.16784709841E+03 0.  0.
         24    2    5    5    0    0  0.40235531191E+02 -0.76325089497E+02  0.10404759820E+04  0.10471343898E+04  0.80347643336E+02 0.  0.
          5    1    5    5  501    0  0.87429500805E+02  0.16215959516E+02  0.38890967038E+03  0.39897330321E+03  0.47000000000E+01 0. -1.
        -13    1    6    6    0    0  0.31026899921E+02 -0.59748631411E+02  0.10018026293E+04  0.10040622867E+04  0.00000000000E+00 0.  1.
         14    1    6    6    0    0  0.92086312694E+01 -0.16576458086E+02  0.38673352772E+02  0.43072103120E+02  0.00000000000E+00 0. -1.
         -5    1    3    3    0  503 -0.81031172579E+02  0.39218008111E+02  0.36942921050E+02  0.97421622371E+02  0.47000000000E+01 0.  1.
         13    1    4    4    0    0  0.15963233027E+02  0.26725704015E+02  0.67487510022E+02  0.74321276044E+02  0.00000000000E+00 0. -1.
        -14    1    4    4    0    0 -0.62597092442E+02 -0.58345821448E+01  0.17491123555E+03  0.18586656142E+03  0.00000000000E+00 0.  1.
</event>
<event>
12    1  0.8494789E-002  0.3129053E+03  0.7818608E-02  0.1079150E+00
         21   -1    0    0  503  502  0.00000000000E+00  0.00000000000E+00  0.33699249303E+03  0.33699249303E+03  0.00000000000E+00 0.  1.
         21   -1    0    0  501  503 -0.00000000000E+00 -0.00000000000E+00 -0.29391140133E+03  0.29391140133E+03  0.00000000000E+00 0.  1.
          6    2    1    2  501    0  0.10537387829E+03 -0.23871639325E+03 -0.18996468279E+02  0.31190025774E+03  0.16979909993E+03 0.  0.
         24    2    3    3    0    0  0.10586901236E+03 -0.99505240114E+02 -0.40353661413E+02  0.17098109646E+03  0.80601344712E+02 0.  0.
         -6    2    1    2    0  502 -0.10537387829E+03  0.23871639325E+03  0.62077559976E+02  0.31900363662E+03  0.17268620701E+03 0.  0.
        -24    2    5    5    0    0 -0.13595538229E+02  0.14003177268E+03 -0.17574920303E+02  0.16238778283E+03  0.79165511249E+02 0.  0.
          5    1    3    3  501    0 -0.49513407097E+00 -0.13921115314E+03  0.21357193134E+02  0.14091916128E+03  0.47000000000E+01 0. -1.
        -13    1    4    4    0    0  0.51779027254E+02 -0.89006735524E+02 -0.49000400326E+00  0.10297333022E+03  0.00000000000E+00 0.  1.
         14    1    4    4    0    0  0.54089985107E+02 -0.10498504589E+02 -0.39863657410E+02  0.68007766245E+02  0.00000000000E+00 0. -1.
         -5    1    5    5    0  502 -0.91778340062E+02  0.98684620579E+02  0.79652480279E+02  0.15661585379E+03  0.47000000000E+01 0.  1.
         13    1    6    6    0    0  0.17348336914E+01 -0.10231683798E+02 -0.16318876997E+01  0.10505239586E+02  0.00000000000E+00 0. -1.
        -14    1    6    6    0    0 -0.15330371920E+02  0.15026345647E+03 -0.15943032603E+02  0.15188254325E+03  0.00000000000E+00 0.  1.
</event>
<event>
12    1  0.8494789E-002  0.3336099E+03  0.7818608E-02  0.1069603E+00
         21   -1    0    0  501  502  0.00000000000E+00  0.00000000000E+00  0.17536727012E+03  0.17536727012E+03  0.00000000000E+00 0.  1.
         21   -1    0    0  502  503 -0.00000000000E+00 -0.00000000000E+00 -0.66216684069E+03  0.66216684069E+03  0.00000000000E+00 0.  1.
         -6    2    1    2    0  503 -0.10944580358E+03  0.26348486097E+03 -0.15679107324E+03  0.36861774106E+03  0.17289575614E+03 0.  0.
        -24    2    3    3    0    0 -0.31801199597E+02  0.21681244648E+03 -0.71440519787E+02  0.24406331208E+03  0.80275769657E+02 0.  0.
          6    2    1    2  501    0  0.10944580358E+03 -0.26348486097E+03 -0.33000849733E+03  0.46891636975E+03  0.17197179312E+03 0.  0.
         24    2    5    5    0    0  0.40481815491E+02 -0.16172784027E+03 -0.28087880954E+03  0.33645377451E+03  0.80706660383E+02 0.  0.
          5    1    5    5  501    0  0.68963988088E+02 -0.10175702070E+03 -0.49129687786E+02  0.13246259524E+03  0.47000000000E+01 0. -1.
        -13    1    6    6    0    0 -0.10592275652E+02 -0.11621348821E+03 -0.18282718332E+03  0.21689525146E+03  0.00000000000E+00 0.  1.
         14    1    6    6    0    0  0.51074091143E+02 -0.45514352058E+02 -0.98051626222E+02  0.11955852305E+03  0.00000000000E+00 0. -1.
         -5    1    3    3    0  503 -0.77644603982E+02  0.46672414497E+02 -0.85350553458E+02  0.12455442898E+03  0.47000000000E+01 0.  1.
         11    1    4    4    0    0 -0.22324812997E+02  0.68355584517E+02 -0.62098785518E+02  0.95011274977E+02  0.00000000000E+00 0. -1.
        -12    1    4    4    0    0 -0.94763866005E+01  0.14845686196E+03 -0.93417342688E+01  0.14905203710E+03  0.00000000000E+00 0.  1.
</event>
<event>
12    1  0.8494789E-002  0.2209023E+03  0.7818608E-02  0.1133679E+00
         21   -1    0    0  503  502  0.00000000000E+00  0.00000000000E+00  0.89226177548E+03  0.89226177548E+03  0.00000000000E+00 0. -1.
         21   -1    0    0  501  503 -0.00000000000E+00 -0.00000000000E+00 -0.10025946854E+03  0.10025946854E+03  0.00000000000E+00 0. -1.
          6    2    1    2  501    0 -0.23710857814E+02  0.13088593038E+03  0.60393602489E+02  0.22900918548E+03  0.17636464573E+03 0.  0.
         24    2    3    3    0    0 -0.28452618178E+02 -0.35157684901E+01  0.56005792300E+02  0.94370246731E+02  0.70336211070E+02 0.  0.
         -6    2    1    2    0  502  0.23710857814E+02 -0.13088593038E+03  0.73160870444E+03  0.76351205854E+03  0.17322250305E+03 0.  0.
        -24    2    5    5    0    0 -0.52924868939E+02 -0.65579977754E+02  0.42098382766E+03  0.43694230161E+03  0.81175221267E+02 0.  0.
          5    1    3    3  501    0  0.47417603636E+01  0.13440169887E+03  0.43878101899E+01  0.13463893875E+03  0.47000000000E+01 0. -1.
        -11    1    4    4    0    0 -0.37067394341E+02  0.20622089515E+02  0.53992959945E+02  0.68662231415E+02  0.00000000000E+00 0.  1.
         12    1    4    4    0    0  0.86147761631E+01 -0.24137858005E+02  0.20128323542E+01  0.25708015316E+02  0.00000000000E+00 0. -1.
         -5    1    5    5    0  502  0.76635726753E+02 -0.65305952624E+02  0.31062487679E+03  0.32656975693E+03  0.47000000000E+01 0.  1.
         11    1    6    6    0    0 -0.44765420262E+02 -0.72092942076E+02  0.22171611029E+03  0.23740128203E+03  0.00000000000E+00 0. -1.
        -12    1    6    6    0    0 -0.81594486773E+01  0.65129643216E+01  0.19926771737E+03  0.19954101958E+03  0.00000000000E+00 0.  1.
</event>
<event>
12    1  0.8494789E-002  0.1930121E+03  0.7818608E-02  0.1156026E+00
         21   -1    0    0  503  502  0.00000000000E+00  0.00000000000E+00  0.83650632501E+02  0.83650632501E+02  0.00000000000E+00 0. -1.
         21   -1    0    0  501  503 -0.00000000000E+00 -0.00000000000E+00 -0.44767837663E+03  0.44767837663E+03  0.00000000000E+00 0.  1.
          6    2    1    2  501    0  0.84671519763E+02  0.17743666778E+02 -0.20946862404E+03  0.28405953545E+03  0.17125598166E+03 0.  0.
         24    2    3    3    0    0  0.18119207647E+02  0.22548204225E+02 -0.26918182448E+02  0.89639763941E+02  0.80460993864E+02 0.  0.
         -6    2    1    2    0  502 -0.84671519763E+02 -0.17743666778E+02 -0.15455912009E+03  0.24726947368E+03  0.17253859580E+03 0.  0.
        -24    2    5    5    0    0 -0.90201433748E+02 -0.61257574140E+02 -0.65305988815E+02  0.14770918278E+03  0.75261819415E+02 0.  0.
          5    1    3    3  501    0  0.66552312117E+02 -0.48045374466E+01 -0.18255044159E+03  0.19441977151E+03  0.47000000000E+01 0. -1.
        -13    1    4    4    0    0  0.42343522466E+02  0.36129564801E+02 -0.27005798878E+02  0.61867863391E+02  0.00000000000E+00 0.  1.
         14    1    4    4    0    0 -0.24224314819E+02 -0.13581360576E+02  0.87616429649E-01  0.27771900551E+02  0.00000000000E+00 0. -1.
         -5    1    5    5    0  502  0.55299139852E+01  0.43513907361E+02 -0.89253131270E+02  0.99560290900E+02  0.47000000000E+01 0.  1.
         13    1    6    6    0    0 -0.60910381120E+01  0.16715307839E+02 -0.83171031753E+01  0.19638647271E+02  0.00000000000E+00 0. -1.
        -14    1    6    6    0    0 -0.84110395636E+02 -0.77972881978E+02 -0.56988885640E+02  0.12807053551E+03  0.00000000000E+00 0.  1.
</event>
<event>
12    1  0.8494789E-002  0.2098022E+03  0.7818608E-02  0.1142230E+00
         21   -1    0    0  501  502  0.00000000000E+00  0.00000000000E+00  0.20551056589E+03  0.20551056589E+03  0.00000000000E+00 0. -1.
         21   -1    0    0  502  503 -0.00000000000E+00 -0.00000000000E+00 -0.40928327644E+03  0.40928327644E+03  0.00000000000E+00 0. -1.
         -6    2    1    2    0  503 -0.11751700477E+03  0.17012685202E+02 -0.31584177773E+03  0.37917406550E+03  0.17296608200E+03 0.  0.
        -24    2    3    3    0    0 -0.64836528572E+02 -0.15836434565E+02 -0.71938283007E+02  0.12744941041E+03  0.81324458533E+02 0.  0.
          6    2    1    2  501    0  0.11751700477E+03 -0.17012685202E+02  0.11206906718E+03  0.23561977682E+03  0.16987502920E+03 0.  0.
         24    2    5    5    0    0  0.44244717818E+02  0.15231341365E+02 -0.55706149709E+01  0.93248114965E+02  0.80464839395E+02 0.  0.
          5    1    5    5  501    0  0.73272286954E+02 -0.32244026567E+02  0.11763968215E+03  0.14237166186E+03  0.47000000000E+01 0. -1.
        -13    1    6    6    0    0  0.67517502177E+02  0.12096990602E+02  0.18593252449E+01  0.68617835671E+02  0.00000000000E+00 0.  1.
         14    1    6    6    0    0 -0.23272784358E+02  0.31343507626E+01 -0.74299402159E+01  0.24630279294E+02  0.00000000000E+00 0. -1.
         -5    1    3    3    0  503 -0.52680476200E+02  0.32849119767E+02 -0.24390349472E+03  0.25172465509E+03  0.47000000000E+01 0.  1.
         13    1    4    4    0    0 -0.28294657187E+02 -0.48501640918E+02 -0.40175246369E+02  0.69043806514E+02  0.00000000000E+00 0. -1.
        -14    1    4    4    0    0 -0.36541871384E+02  0.32665206354E+02 -0.31763036638E+02  0.58405603900E+02  0.00000000000E+00 0.  1.
</event>
<event>
12    1  0.8494789E-002  0.1879653E+03  0.7818608E-02  0.1161103E+00
         21   -1    0    0  501  502  0.00000000000E+00  0.00000000000E+00  0.49594869560E+02  0.49594869560E+02  0.00000000000E+00 0.  1.
         21   -1    0    0  502  503 -0.00000000000E+00 -0.00000000000E+00 -0.10306649033E+04  0.10306649033E+04  0.00000000000E+00 0. -1.
         -6    2    1    2    0  503  0.31022787626E+02 -0.56157088085E+02 -0.79365844806E+03  0.81482797526E+03  0.17301695056E+03 0.  0.
        -24    2    3    3    0    0  0.83476656466E+02 -0.58053153100E+02 -0.50204204848E+03  0.51848827504E+03  0.80282950554E+02 0.  0.
          6    2    1    2  501    0 -0.31022787626E+02  0.56157088085E+02 -0.18741158566E+03  0.26543179759E+03  0.17667740330E+03 0.  0.
         24    2    5    5    0    0  0.22771563276E+02 -0.22875742248E+02 -0.55364678314E+02  0.10234134355E+03  0.79791348636E+02 0.  0.
          5    1    5    5  501    0 -0.53794350901E+02  0.79032830333E+02 -0.13204690735E+03  0.16309045404E+03  0.47000000000E+01 0. -1.
        -13    1    6    6    0    0  0.23395679102E+02 -0.36694930803E+02  0.17712001690E+01  0.43554711540E+02  0.00000000000E+00 0.  1.
         14    1    6    6    0    0 -0.62411582625E+00  0.13819188555E+02 -0.57135878483E+02  0.58786632008E+02  0.00000000000E+00 0. -1.
         -5    1    3    3    0  503 -0.52453868840E+02  0.18960650151E+01 -0.29161639958E+03  0.29633970022E+03  0.47000000000E+01 0.  1.
         11    1    4    4    0    0  0.30246550990E+02 -0.43572659265E+02 -0.39012463808E+03  0.39371393640E+03  0.00000000000E+00 0. -1.
        -12    1    4    4    0    0  0.53230105476E+02 -0.14480493835E+02 -0.11191741040E+03  0.12477433864E+03  0.00000000000E+00 0.  1.
</event>
<event>
12    1  0.8494789E-002  0.2153163E+03  0.7818608E-02  0.1137546E+00
         21   -1    0    0  501  502  0.00000000000E+00  0.00000000000E+00  0.36276602390E+03  0.36276602390E+03  0.00000000000E+00 0. -1.
         21   -1    0    0  502  503 -0.00000000000E+00 -0.00000000000E+00 -0.22832680853E+03  0.22832680853E+03  0.00000000000E+00 0.  1.
         -6    2    1    2    0  503 -0.11758923131E+03 -0.50704878664E+02 -0.12919921786E+03  0.25110463132E+03  0.17309790852E+03 0.  0.
        -24    2    3    3    0    0 -0.11960345113E+03 -0.66237760059E+02 -0.15498228944E+03  0.22057293850E+03  0.77074540399E+02 0.  0.
          6    2    1    2  501    0  0.11758923131E+03  0.50704878664E+02  0.26363843322E+03  0.33998820111E+03  0.17230363137E+03 0.  0.
         24    2    5    5    0    0  0.10650084338E+03  0.26520291601E+02  0.27816829146E+03  0.30931160777E+03  0.79058945217E+02 0.  0.
          5    1    5    5  501    0  0.11088387936E+02  0.24184587064E+02 -0.14529858242E+02  0.30676593341E+02  0.47000000000E+01 0. -1.
        -11    1    6    6    0    0 -0.18434973083E+01  0.18297960739E+02  0.91439360605E+02  0.93270416089E+02  0.00000000000E+00 0.  1.
         12    1    6    6    0    0  0.10834434069E+03  0.82223308616E+01  0.18672893086E+03  0.21604119168E+03  0.00000000000E+00 0. -1.
         -5    1    3    3    0  503  0.20142198217E+01  0.15532881395E+02  0.25783071584E+02  0.30531692816E+02  0.47000000000E+01 0.  1.
         13    1    4    4    0    0 -0.38033782801E+02  0.45206465506E+01 -0.96196859397E+01  0.39491052619E+02  0.00000000000E+00 0. -1.
        -14    1    4    4    0    0 -0.81569668334E+02 -0.70758406610E+02 -0.14536260350E+03  0.18108188588E+03  0.00000000000E+00 0.  1.
</event>
<event>
12    1  0.8494789E-002  0.1789599E+03  0.7818608E-02  0.1169338E+00
         21   -1    0    0  503  502  0.00000000000E+00  0.00000000000E+00  0.33583957301E+02  0.33583957301E+02  0.00000000000E+00 0.  1.
         21   -1    0    0  501  503 -0.00000000000E+00 -0.00000000000E+00 -0.95718632702E+03  0.95718632702E+03  0.00000000000E+00 0.  1.
          6    2    1    2  501    0 -0.34520143050E+02 -0.34383949553E+02 -0.52091996177E+03  0.55011193025E+03  0.16997538928E+03 0.  0.
         24    2    3    3    0    0 -0.16202404863E+02  0.60455320445E+01 -0.12256177374E+03  0.14926106211E+03  0.83417083969E+02 0.  0.
         -6    2    1    2    0  502  0.34520143050E+02  0.34383949553E+02 -0.40268240795E+03  0.44065835408E+03  0.17219978828E+03 0.  0.
        -24    2    5    5    0    0  0.18016978050E+02  0.10276501023E+02 -0.40276038624E+03  0.41106748369E+03  0.79563367518E+02 0.  0.
          5    1    3    3  501    0 -0.18317738187E+02 -0.40429481597E+02 -0.39835818804E+03  0.40085086814E+03  0.47000000000E+01 0. -1.
        -11    1    4    4    0    0 -0.18680383070E+02 -0.85466299823E+01 -0.13074462304E+03  0.13234862315E+03  0.00000000000E+00 0.  1.
         12    1    4    4    0    0  0.24779782069E+01  0.14592162027E+02  0.81828493044E+01  0.16912438953E+02  0.00000000000E+00 0. -1.
         -5    1    5    5    0  502  0.16503165000E+02  0.24107448530E+02  0.77978293036E-01  0.29590870387E+02  0.47000000000E+01 0.  1.
         11    1    6    6    0    0 -0.13863753669E+02  0.32157367541E+02 -0.10226599558E+03  0.10809548466E+03  0.00000000000E+00 0. -1.
        -12    1    6    6    0    0  0.31880731719E+02 -0.21880866518E+02 -0.30049439066E+03  0.30297199903E+03  0.00000000000E+00 0.  1.
</event>
<event>
12    1  0.8494789E-002  0.1971999E+03  0.7818608E-02  0.1154779E+00
         21   -1    0    0  503  502  0.00000000000E+00  0.00000000000E+00  0.87491919444E+03  0.87491919444E+03  0.00000000000E+00 0.  1.
         21   -1    0    0  501  503 -0.00000000000E+00 -0.00000000000E+00 -0.44446764424E+02  0.44446764424E+02  0.00000000000E+00 0.  1.
          6    2    1    2  501    0 -0.42136954788E+02  0.82488802265E+02  0.29077516036E+03  0.34476962442E+03  0.16042435783E+03 0.  0.
         24    2    3    3    0    0  0.25568763688E+02  0.78381569516E+02  0.16968828123E+03  0.20589897968E+03  0.82479360625E+02 0.  0.
         -6    2    1    2    0  502  0.42136954788E+02 -0.82488802265E+02  0.53969726966E+03  0.57459633444E+03  0.17409158285E+03 0.  0.
        -24    2    5    5    0    0  0.92728860242E+02 -0.39959681616E+02  0.38963684036E+03  0.41055826129E+03  0.80906123834E+02 0.  0.
          5    1    3    3  501    0 -0.67705718476E+02  0.41072327492E+01  0.12108687913E+03  0.13887064474E+03  0.47000000000E+01 0. -1.
        -13    1    4    4    0    0 -0.63365321004E+00  0.59835882946E+02  0.39237340848E+02  0.71556294770E+02  0.00000000000E+00 0.  1.
         14    1    4    4    0    0  0.26202416898E+02  0.18545686570E+02  0.13045094038E+03  0.13434268491E+03  0.00000000000E+00 0. -1.
         -5    1    5    5    0  502 -0.50591905454E+02 -0.42529120650E+02  0.15006042930E+03  0.16403807315E+03  0.47000000000E+01 0.  1.
         13    1    6    6    0    0  0.11386407128E+02  0.11788481623E+02  0.10755361107E+02  0.19603478233E+02  0.00000000000E+00 0. -1.
        -14    1    6    6    0    0  0.81342453114E+02 -0.51748163239E+02  0.37888147925E+03  0.39095478306E+03  0.00000000000E+00 0.  1.
</event>
<event>
12    1  0.8494789E-002  0.1986066E+03  0.7818608E-02  0.1151006E+00
         21   -1    0    0  503  502  0.00000000000E+00  0.00000000000E+00  0.11569659585E+03  0.11569659585E+03  0.00000000000E+00 0. -1.
         21   -1    0    0  501  503 -0.00000000000E+00 -0.00000000000E+00 -0.55365340854E+03  0.55365340854E+03  0.00000000000E+00 0. -1.
          6    2    1    2  501    0 -0.98390399609E+02  0.85884124003E+01 -0.42662658313E+03  0.47042044317E+03  0.17184504753E+03 0.  0.
         24    2    3    3    0    0  0.14258836411E+02  0.20753418746E+02 -0.16583073071E+03  0.18603618834E+03  0.80471195597E+02 0.  0.
         -6    2    1    2    0  502  0.98390399609E+02 -0.85884124003E+01 -0.11330229563E+02  0.19892956121E+03  0.17230834182E+03 0.  0.
        -24    2    5    5    0    0  0.13677138186E+03 -0.53672779279E+01 -0.19186672559E+02  0.15934055766E+03  0.79284716958E+02 0.  0.
          5    1    3    3  501    0 -0.11264923602E+03 -0.12165006346E+02 -0.26079585242E+03  0.28438425483E+03  0.47000000000E+01 0. -1.
        -11    1    4    4    0    0 -0.10078303626E+01  0.35520337293E+02 -0.24603868905E+02  0.43221064871E+02  0.00000000000E+00 0.  1.
         12    1    4    4    0    0  0.15266666773E+02 -0.14766918548E+02 -0.14122686180E+03  0.14281512347E+03  0.00000000000E+00 0. -1.
         -5    1    5    5    0  502 -0.38380982250E+02 -0.32211344725E+01  0.78564429954E+01  0.39589003553E+02  0.47000000000E+01 0.  1.
         11    1    6    6    0    0  0.72657249963E+02 -0.34921556929E+02 -0.33515054678E+02  0.87303207275E+02  0.00000000000E+00 0. -1.
        -12    1    6    6    0    0  0.64114131897E+02  0.29554279002E+02  0.14328382119E+02  0.72037350384E+02  0.00000000000E+00 0.  1.
</event>
<event>
12    1  0.8494789E-002  0.2056085E+03  0.7818608E-02  0.1145112E+00
         21   -1    0    0  503  502  0.00000000000E+00  0.00000000000E+00  0.53399338613E+03  0.53399338613E+03  0.00000000000E+00 0.  1.
         21   -1    0    0  501  503 -0.00000000000E+00 -0.00000000000E+00 -0.79253850290E+02  0.79253850290E+02  0.00000000000E+00 0.  1.
          6    2    1    2  501    0 -0.10582090063E+03  0.35794296410E+02  0.23948357896E+03  0.31557293588E+03  0.17249521327E+03 0.  0.
         24    2    3    3    0    0 -0.34536425527E+02 -0.44649247400E+02  0.11925119665E+03  0.15423305895E+03  0.79879087307E+02 0.  0.
         -6    2    1    2    0  502  0.10582090063E+03 -0.35794296410E+02  0.21525595688E+03  0.29767430054E+03  0.17261392634E+03 0.  0.
        -24    2    5    5    0    0  0.11270653179E+03 -0.26114869095E+02  0.75255127924E+02  0.15709185022E+03  0.75031769479E+02 0.  0.
          5    1    3    3  501    0 -0.71284475099E+02  0.80443543811E+02  0.12023238231E+03  0.16133987693E+03  0.47000000000E+01 0. -1.
        -13    1    4    4    0    0 -0.50720928654E+02 -0.39603127785E+02  0.12114413537E+03  0.13717478584E+03  0.00000000000E+00 0.  1.
         14    1    4    4    0    0  0.16184503127E+02 -0.50461196154E+01 -0.18929387214E+01  0.17058273115E+02  0.00000000000E+00 0. -1.
         -5    1    5    5    0  502 -0.68856311678E+01 -0.96794273151E+01  0.14000082895E+03  0.14058245032E+03  0.47000000000E+01 0.  1.
         13    1    6    6    0    0  0.48158990397E+02 -0.26032364197E+02 -0.39846495282E+01  0.54889432259E+02  0.00000000000E+00 0. -1.
        -14    1    6    6    0    0  0.64547541396E+02 -0.82504897939E-01  0.79239777452E+02  0.10220241797E+03  0.00000000000E+00 0.  1.
</event>
<event>
12    1  0.8494789E-002  0.2075487E+03  0.7818608E-02  0.1143577E+00
         21   -1    0    0  503  502  0.00000000000E+00  0.00000000000E+00  0.32306050240E+03  0.32306050240E+03  0.00000000000E+00 0. -1.
         21   -1    0    0  501  503 -0.00000000000E+00 -0.00000000000E+00 -0.18272003755E+03  0.18272003755E+03  0.00000000000E+00 0. -1.
          6    2    1    2  501    0 -0.27563879081E+02  0.11008923992E+03 -0.61567505719E+02  0.21622351314E+03  0.17344348272E+03 0.  0.
         24    2    3    3    0    0 -0.62081011020E+02  0.13360352722E+03 -0.55432115721E+02  0.17374896647E+03  0.73566496996E+02 0.  0.
         -6    2    1    2    0  502  0.27563879081E+02 -0.11008923992E+03  0.20190797057E+03  0.28955702681E+03  0.17377294098E+03 0.  0.
        -24    2    5    5    0    0  0.85160852106E+02 -0.71041780290E+02  0.14289231681E+03  0.19819482021E+03  0.81016462996E+02 0.  0.
          5    1    3    3  501    0  0.34517131939E+02 -0.23514287304E+02 -0.61353899979E+01  0.42474546673E+02  0.47000000000E+01 0. -1.
        -11    1    4    4    0    0 -0.17079418664E+02  0.19910970435E+02 -0.43625812771E+02  0.50905449860E+02  0.00000000000E+00 0.  1.
         12    1    4    4    0    0 -0.45001592356E+02  0.11369255679E+03 -0.11806302950E+02  0.12284351661E+03  0.00000000000E+00 0. -1.
         -5    1    5    5    0  502 -0.57596973024E+02 -0.39047459631E+02  0.59015653761E+02  0.91362206596E+02  0.47000000000E+01 0.  1.
         11    1    6    6    0    0  0.43746193431E+02 -0.87399983179E+01  0.10553227419E+03  0.11457389714E+03  0.00000000000E+00 0. -1.
        -12    1    6    6    0    0  0.41414658675E+02 -0.62301781973E+02  0.37360042617E+02  0.83620923067E+02  0.00000000000E+00 0.  1.
</event>
<event>
12    1  0.8494789E-002  0.1801027E+03  0.7818608E-02  0.1169942E+00
         21   -1    0    0  503  502  0.00000000000E+00  0.00000000000E+00  0.14787333899E+03  0.14787333899E+03  0.00000000000E+00 0. -1.
         21   -1    0    0  501  503 -0.00000000000E+00 -0.00000000000E+00 -0.37684572578E+03  0.37684572578E+03  0.00000000000E+00 0. -1.
          6    2    1    2  501    0  0.48004779623E+02 -0.20173606713E+02 -0.28817059235E+03  0.33513688459E+03  0.16298161811E+03 0.  0.
         24    2    3    3    0    0 -0.93531969982E+01  0.37118973953E+02 -0.16604885899E+03  0.18848019350E+03  0.80543523945E+02 0.  0.
         -6    2    1    2    0  502 -0.48004779623E+02  0.20173606713E+02  0.59198205556E+02  0.18958218018E+03  0.17241096898E+03 0.  0.
        -24    2    5    5    0    0 -0.33022954929E+02 -0.29826107721E+02 -0.21354403093E+02  0.93482027861E+02  0.79389966290E+02 0.  0.
          5    1    3    3  501    0  0.57357976621E+02 -0.57292580666E+02 -0.12212173336E+03  0.14665669108E+03  0.47000000000E+01 0. -1.
        -13    1    4    4    0    0 -0.38749317674E+02  0.24596805358E+02 -0.48955232149E+02  0.67105344115E+02  0.00000000000E+00 0.  1.
         14    1    4    4    0    0  0.29396120676E+02  0.12522168595E+02 -0.11709362684E+03  0.12137484939E+03  0.00000000000E+00 0. -1.
         -5    1    5    5    0  502 -0.14981824694E+02  0.49999714434E+02  0.80552608650E+02  0.96100152314E+02  0.47000000000E+01 0.  1.
         11    1    6    6    0    0 -0.49740118836E+02 -0.30920542178E+02  0.85660742191E+01  0.59190683203E+02  0.00000000000E+00 0. -1.
        -12    1    6    6    0    0  0.16717163907E+02  0.10944344573E+01 -0.29920477312E+02  0.34291344658E+02  0.00000000000E+00 0.  1.
</event>
<event>
12    1  0.8494789E-002  0.1925194E+03  0.7818608E-02  0.1156757E+00
         21   -1    0    0  501  502  0.00000000000E+00  0.00000000000E+00  0.82051271541E+03  0.82051271541E+03  0.00000000000E+00 0. -1.
         21   -1    0    0  502  503 -0.00000000000E+00 -0.00000000000E+00 -0.45020507129E+02  0.45020507129E+02  0.00000000000E+00 0. -1.
         -6    2    1    2    0  503 -0.77160673500E+02 -0.22819329707E+02  0.34820330158E+03  0.39788097145E+03  0.17489778978E+03 0.  0.
        -24    2    3    3    0    0 -0.11379985708E+03 -0.21556131077E+02  0.32485727436E+03  0.35416424203E+03  0.80529419288E+02 0.  0.
          6    2    1    2  501    0  0.77160673500E+02  0.22819329707E+02  0.42728890670E+03  0.46765225109E+03  0.17218689501E+03 0.  0.
         24    2    5    5    0    0 -0.63088271743E+00 -0.19667560965E+02  0.84910132900E+02  0.11395467286E+03  0.73407941186E+02 0.  0.
          5    1    5    5  501    0  0.77791556218E+02  0.42486890672E+02  0.34237877380E+03  0.35369757823E+03  0.47000000000E+01 0. -1.
        -11    1    6    6    0    0 -0.18024786560E+02 -0.50652799878E+01  0.88939903727E+02  0.90889253858E+02  0.00000000000E+00 0.  1.
         12    1    6    6    0    0  0.17393903843E+02 -0.14602280977E+02 -0.40297708263E+01  0.23065418998E+02  0.00000000000E+00 0. -1.
         -5    1    3    3    0  503  0.36639183580E+02 -0.12631986300E+01  0.23346027220E+02  0.43716729419E+02  0.47000000000E+01 0.  1.
         11    1    4    4    0    0 -0.10395349947E+03 -0.42561268751E+02  0.29911379454E+03  0.31951033431E+03  0.00000000000E+00 0. -1.
        -12    1    4    4    0    0 -0.98463576073E+01  0.21005137674E+02  0.25743479825E+02  0.34653907721E+02  0.00000000000E+00 0.  1.
</event>
<event>
12    1  0.8494789E-002  0.2115556E+03  0.7818608E-02  0.1140371E+00
         21   -1    0    0  501  502  0.00000000000E+00  0.00000000000E+00  0.26245664031E+03  0.26245664031E+03  0.00000000000E+00 0.  1.
         21   -1    0    0  502  503 -0.00000000000E+00 -0.00000000000E+00 -0.21382621589E+03  0.21382621589E+03  0.00000000000E+00 0.  1.
         -6    2    1    2    0  503  0.11330609328E+03 -0.47927695164E+02 -0.83015584249E+02  0.22711130466E+03  0.17190876283E+03 0.  0.
        -24    2    3    3    0    0  0.45850333970E+02 -0.75728010010E+02 -0.90378228910E+02  0.15363045338E+03  0.87161386624E+02 0.  0.
          6    2    1    2  501    0 -0.11330609328E+03  0.47927695164E+02  0.13164600867E+03  0.24917155154E+03  0.17210594341E+03 0.  0.
         24    2    5    5    0    0 -0.14550298254E+03  0.66095664748E+02  0.94023454094E+02  0.19621627409E+03  0.64192378608E+02 0.  0.
          5    1    5    5  501    0  0.32196889260E+02 -0.18167969583E+02  0.37622554575E+02  0.52955277447E+02  0.47000000000E+01 0. -1.
        -11    1    6    6    0    0 -0.74368389621E+02  0.68363218882E+02  0.57118545191E+02  0.11604617734E+03  0.00000000000E+00 0.  1.
         12    1    6    6    0    0 -0.71134592918E+02 -0.22675541348E+01  0.36904908903E+02  0.80170096748E+02  0.00000000000E+00 0. -1.
         -5    1    3    3    0  503  0.67455759309E+02  0.27800314845E+02  0.73626446610E+01  0.73480851287E+02  0.47000000000E+01 0.  1.
         13    1    4    4    0    0 -0.14460209154E+02  0.16789989097E+01 -0.41546865649E+02  0.44023388459E+02  0.00000000000E+00 0. -1.
        -14    1    4    4    0    0  0.60310543124E+02 -0.77407008919E+02 -0.48831363261E+02  0.10960706492E+03  0.00000000000E+00 0.  1.
</event>
<event>
12    1  0.8494789E-002  0.2650528E+03  0.7818608E-02  0.1104284E+00
         21   -1    0    0  501  502  0.00000000000E+00  0.00000000000E+00  0.94982755588E+02  0.94982755588E+02  0.00000000000E+00 0.  1.
         21   -1    0    0  502  503 -0.00000000000E+00 -0.00000000000E+00 -0.94199044009E+03  0.94199044009E+03  0.00000000000E+00 0. -1.
         -6    2    1    2    0  503 -0.24020919452E+02 -0.19886501729E+03 -0.66478035975E+03  0.71532156577E+03  0.17212703469E+03 0.  0.
        -24    2    3    3    0    0  0.10884364447E+01 -0.21546042242E+03 -0.53327972407E+03  0.58033862459E+03  0.77338714537E+02 0.  0.
          6    2    1    2  501    0  0.24020919452E+02  0.19886501729E+03 -0.18222732474E+03  0.32165162990E+03  0.17357613160E+03 0.  0.
         24    2    5    5    0    0  0.34440980227E+02  0.23673684730E+02 -0.67066660059E+02  0.11168818222E+03  0.78928376951E+02 0.  0.
          5    1    5    5  501    0 -0.10420060775E+02  0.17519133256E+03 -0.11516066469E+03  0.20996344768E+03  0.47000000000E+01 0. -1.
        -11    1    6    6    0    0  0.34055023344E+02 -0.80242100241E+01  0.26652094655E+01  0.35088971244E+02  0.00000000000E+00 0.  1.
         12    1    6    6    0    0  0.38595688307E+00  0.31697894754E+02 -0.69731869525E+02  0.76599210975E+02  0.00000000000E+00 0. -1.
         -5    1    3    3    0  503 -0.25109355897E+02  0.16595405124E+02 -0.13150063569E+03  0.13498294118E+03  0.47000000000E+01 0.  1.
         11    1    4    4    0    0 -0.68785339562E+01  0.47468603903E+01 -0.24683095878E+02  0.26059588160E+02  0.00000000000E+00 0. -1.
        -12    1    4    4    0    0  0.79669704008E+01 -0.22020728281E+03 -0.50859662819E+03  0.55427903643E+03  0.00000000000E+00 0.  1.
</event>
<event>
12    1  0.8494789E-002  0.1728592E+03  0.7818608E-02  0.1175124E+00
         21   -1    0    0  501  502  0.00000000000E+00  0.00000000000E+00  0.29230709842E+03  0.29230709842E+03  0.00000000000E+00 0. -1.
         21   -1    0    0  502  503 -0.00000000000E+00 -0.00000000000E+00 -0.20380376222E+03  0.20380376222E+03  0.00000000000E+00 0. -1.
         -6    2    1    2    0  503  0.90119456519E+01  0.28631091345E+01 -0.13126613799E+03  0.21705092750E+03  0.17260038699E+03 0.  0.
        -24    2    3    3    0    0 -0.40228680450E+02 -0.45298618417E+02 -0.89582972789E+02  0.13640498823E+03  0.83131824465E+02 0.  0.
          6    2    1    2  501    0 -0.90119456519E+01 -0.28631091345E+01  0.21976947418E+03  0.27905993314E+03  0.17171607945E+03 0.  0.
         24    2    5    5    0    0 -0.14840754286E+02  0.41052155222E+02  0.21548220377E+03  0.23430508825E+03  0.80998560493E+02 0.  0.
          5    1    5    5  501    0  0.58288086345E+01 -0.43915264356E+02  0.42872704147E+01  0.44754844890E+02  0.47000000000E+01 0. -1.
        -11    1    6    6    0    0  0.19430548511E+02  0.34561863936E+02  0.43654183641E+02  0.58972505488E+02  0.00000000000E+00 0.  1.
         12    1    6    6    0    0 -0.34271302797E+02  0.64902912851E+01  0.17182802013E+03  0.17533258276E+03  0.00000000000E+00 0. -1.
         -5    1    3    3    0  503  0.49240626102E+02  0.48161727552E+02 -0.41683165198E+02  0.80645939269E+02  0.47000000000E+01 0.  1.
         13    1    4    4    0    0 -0.99367863659E+01 -0.24668108716E+02 -0.95630477524E+02  0.99259475831E+02  0.00000000000E+00 0. -1.
        -14    1    4    4    0    0 -0.30291894084E+02 -0.20630509701E+02  0.60475047351E+01  0.37145512398E+02  0.00000000000E+00 0.  1.
</event>
<event>
12    1  0.8494789E-002  0.1783022E+03  0.7818608E-02  0.1169508E+00
         21   -1    0    0  503  502  0.00000000000E+00  0.00000000000E+00  0.14301475255E+03  0.14301475255E+03  0.00000000000E+00 0. -1.
         21   -1    0    0  501  503 -0.00000000000E+00 -0.00000000000E+00 -0.22218983076E+03  0.22218983076E+03  0.00000000000E+00 0. -1.
          6    2    1    2  501    0  0.38881071447E+02 -0.29804098589E+02 -0.44437796126E+02  0.18355012247E+03  0.17121888834E+03 0.  0.
         24    2    3    3    0    0  0.18240964781E+02 -0.84892237229E+01 -0.94079268688E+02  0.12552681946E+03  0.80630477440E+02 0.  0.
         -6    2    1    2    0  502 -0.38881071447E+02  0.29804098589E+02 -0.34737282085E+02  0.18165446085E+03  0.17143990892E+03 0.  0.
        -24    2    5    5    0    0 -0.48196212456E+02  0.65521038407E+02  0.22426953649E+02  0.11344660581E+03  0.75837212172E+02 0.  0.
          5    1    3    3  501    0  0.20640106666E+02 -0.21314874866E+02  0.49641472562E+02  0.58023303007E+02  0.47000000000E+01 0. -1.
        -13    1    4    4    0    0 -0.12372666901E+02  0.25159591307E+02 -0.66893350829E+02  0.72531429781E+02  0.00000000000E+00 0.  1.
         14    1    4    4    0    0  0.30613631683E+02 -0.33648815030E+02 -0.27185917859E+02  0.52995389682E+02  0.00000000000E+00 0. -1.
         -5    1    5    5    0  502  0.93151410089E+01 -0.35716939818E+02 -0.57164235734E+02  0.68207855039E+02  0.47000000000E+01 0.  1.
         11    1    6    6    0    0 -0.54947593936E+02  0.18139694081E+02 -0.53481351434E+01  0.58111006963E+02  0.00000000000E+00 0. -1.
        -12    1    6    6    0    0  0.67513814798E+01  0.47381344326E+02  0.27775088792E+02  0.55335598844E+02  0.00000000000E+00 0.  1.
</event>
<event>
12    1  0.8494789E-002  0.1929807E+03  0.7818608E-02  0.1155832E+00
         21   -1    0    0  501  502  0.00000000000E+00  0.00000000000E+00  0.12476177929E+03  0.12476177929E+03  0.00000000000E+00 0.  1.
         21   -1    0    0  502  503 -0.00000000000E+00 -0.00000000000E+00 -0.30888617695E+03  0.30888617695E+03  0.00000000000E+00 0.  1.
         -6    2    1    2    0  503  0.81567169787E+02 -0.29028109936E+02 -0.13227036274E+03  0.23395942428E+03  0.17246950164E+03 0.  0.
        -24    2    3    3    0    0  0.97652304598E+02 -0.66753508294E+02 -0.68276810240E+02  0.15780693250E+03  0.79052524726E+02 0.  0.
          6    2    1    2  501    0 -0.81567169787E+02  0.29028109936E+02 -0.51854034916E+02  0.19968853196E+03  0.17231028554E+03 0.  0.
         24    2    5    5    0    0 -0.20874341686E+01 -0.26124003177E+01  0.27126644188E+02  0.83163050045E+02  0.78543338680E+02 0.  0.
          5    1    5    5  501    0 -0.79479735618E+02  0.31640510254E+02 -0.78980679103E+02  0.11652548191E+03  0.47000000000E+01 0. -1.
        -13    1    6    6    0    0 -0.89817544659E+01 -0.13066562487E+02 -0.24971982400E+02  0.29580515098E+02  0.00000000000E+00 0.  1.
         14    1    6    6    0    0  0.68943202973E+01  0.10454162169E+02  0.52098626587E+02  0.53582534947E+02  0.00000000000E+00 0. -1.
         -5    1    3    3    0  503 -0.16085134811E+02  0.37725398358E+02 -0.63993552500E+02  0.76152491782E+02  0.47000000000E+01 0.  1.
         11    1    4    4    0    0  0.29503114204E+02 -0.50729302269E+02 -0.65215443949E+02  0.87732263084E+02  0.00000000000E+00 0. -1.
        -12    1    4    4    0    0  0.68149190394E+02 -0.16024206025E+02 -0.30613662914E+01  0.70074669415E+02  0.00000000000E+00 0.  1.
</event>
<event>
12    1  0.8494789E-002  0.1988740E+03  0.7818608E-02  0.1152909E+00
         21   -1    0    0  501  502  0.00000000000E+00  0.00000000000E+00  0.62209904976E+02  0.62209904976E+02  0.00000000000E+00 0. -1.
         21   -1    0    0  502  503 -0.00000000000E+00 -0.00000000000E+00 -0.90498525523E+03  0.90498525523E+03  0.00000000000E+00 0.  1.
         -6    2    1    2    0  503  0.61910087636E+02 -0.76864188761E+02 -0.70768460019E+03  0.73509751465E+03  0.17265543787E+03 0.  0.
        -24    2    3    3    0    0  0.34260945633E+01  0.23680296683E+02 -0.26860159651E+03  0.28084478200E+03  0.78450489808E+02 0.  0.
          6    2    1    2  501    0 -0.61910087636E+02  0.76864188761E+02 -0.13509075006E+03  0.23209764555E+03  0.16086902702E+03 0.  0.
         24    2    5    5    0    0 -0.90566474686E+02  0.70243338602E+02 -0.14422170630E+03  0.20094498054E+03  0.80265632005E+02 0.  0.
          5    1    5    5  501    0  0.28656387050E+02  0.66208501591E+01  0.91309562426E+01  0.31152665015E+02  0.47000000000E+01 0. -1.
        -11    1    6    6    0    0 -0.22468516486E+02  0.53948214363E+02 -0.10632490184E+03  0.12132695009E+03  0.00000000000E+00 0.  1.
         12    1    6    6    0    0 -0.68097958200E+02  0.16295124239E+02 -0.37896804460E+02  0.79618030453E+02  0.00000000000E+00 0. -1.
         -5    1    3    3    0  503  0.58483993072E+02 -0.10054448544E+03 -0.43908300368E+03  0.45425273265E+03  0.47000000000E+01 0.  1.
         13    1    4    4    0    0  0.31336920643E+02 -0.12978200255E+02 -0.84214538963E+02  0.90788351951E+02  0.00000000000E+00 0. -1.
        -14    1    4    4    0    0 -0.27910826080E+02  0.36658496938E+02 -0.18438705755E+03  0.19005643005E+03  0.00000000000E+00 0.  1.
</event>
<event>
12    1  0.8494789E-002  0.2066578E+03  0.7818608E-02  0.1145086E+00
         21   -1    0    0  501  502  0.00000000000E+00  0.00000000000E+00  0.64300935694E+03  0.64300935694E+03  0.00000000000E+00 0. -1.
         21   -1    0    0  502  503 -0.00000000000E+00 -0.00000000000E+00 -0.16192724030E+03  0.16192724030E+03  0.00000000000E+00 0. -1.
         -6    2    1    2    0  503 -0.10081136987E+03 -0.55577223311E+02 -0.69705552835E+02  0.21809699974E+03  0.17162656308E+03 0.  0.
        -24    2    3    3    0    0 -0.57175916332E+02  0.31212289409E+02 -0.63511465020E+02  0.12064481122E+03  0.79234915702E+02 0.  0.
          6    2    1    2  501    0  0.10081136987E+03  0.55577223311E+02  0.55078766947E+03  0.58683959750E+03  0.16661901542E+03 0.  0.
         24    2    5    5    0    0  0.94532678855E+02  0.25199396666E+02  0.21625070162E+03  0.25083467615E+03  0.81130954890E+02 0.  0.
          5    1    5    5  501    0  0.62786910185E+01  0.30377826645E+02  0.33453696785E+03  0.33600492135E+03  0.47000000000E+01 0. -1.
        -13    1    6    6    0    0  0.75905113234E+02 -0.10206951639E+02  0.88867829722E+02  0.11731691795E+03  0.00000000000E+00 0.  1.
         14    1    6    6    0    0  0.18627565622E+02  0.35406348305E+02  0.12738287190E+03  0.13351775820E+03  0.00000000000E+00 0. -1.
         -5    1    3    3    0  503 -0.43635453542E+02 -0.86789512720E+02 -0.61940878144E+01  0.97452188522E+02  0.47000000000E+01 0.  1.
         11    1    4    4    0    0 -0.71228685848E+02  0.10439805297E+02 -0.62837087467E+02  0.95556343502E+02  0.00000000000E+00 0. -1.
        -12    1    4    4    0    0  0.14052769516E+02  0.20772484111E+02 -0.67437755363E+00  0.25088467716E+02  0.00000000000E+00 0.  1.
</event>
<event>
12    1  0.8494789E-002  0.1737841E+03  0.7818608E-02  0.1174247E+00
         21   -1    0    0  501  502  0.00000000000E+00  0.00000000000E+00  0.14187792179E+03  0.14187792179E+03  0.00000000000E+00 0. -1.
         21   -1    0    0  502  503 -0.00000000000E+00 -0.00000000000E+00 -0.21201175051E+03  0.21201175051E+03  0.00000000000E+00 0. -1.
         -6    2    1    2    0  503  0.18839178128E+02  0.44536341126E+01 -0.26292144323E+02  0.17576175983E+03  0.17270254739E+03 0.  0.
        -24    2    3    3    0    0  0.78475515161E+02  0.16689621284E+02 -0.23523109187E+02  0.11463918108E+03  0.78433763363E+02 0.  0.
          6    2    1    2  501    0 -0.18839178128E+02 -0.44536341126E+01 -0.43841684399E+02  0.17812791248E+03  0.17155964101E+03 0.  0.
         24    2    5    5    0    0  0.18006000100E+02  0.11431097370E+02 -0.87090513188E+02  0.11894647075E+03  0.78157657273E+02 0.  0.
          5    1    5    5  501    0 -0.36845178227E+02 -0.15884731483E+02  0.43248828789E+02  0.59181441724E+02  0.47000000000E+01 0. -1.
        -11    1    6    6    0    0  0.30906293974E+02 -0.26649418288E+02 -0.43841510816E+02  0.59895480405E+02  0.00000000000E+00 0.  1.
         12    1    6    6    0    0 -0.12900293875E+02  0.38080515658E+02 -0.43249002372E+02  0.59050990347E+02  0.00000000000E+00 0. -1.
         -5    1    3    3    0  503 -0.59636337033E+02 -0.12235987172E+02 -0.27690351355E+01  0.61122578744E+02  0.47000000000E+01 0.  1.
         11    1    4    4    0    0  0.40190139916E+02 -0.26527126337E+02 -0.29693656470E+02  0.56574278721E+02  0.00000000000E+00 0. -1.
        -12    1    4    4    0    0  0.38285375244E+02  0.43216747622E+02  0.61705472824E+01  0.58064902363E+02  0.00000000000E+00 0.  1.
</event>
<event>
12    1  0.8494789E-002  0.2022529E+03  0.7818608E-02  0.1147883E+00
         21   -1    0    0  501  502  0.00000000000E+00  0.00000000000E+00  0.25391785175E+03  0.25391785175E+03  0.00000000000E+00 0.  1.
         21   -1    0    0  502  503 -0.00000000000E+00 -0.00000000000E+00 -0.19010339189E+03  0.19010339189E+03  0.00000000000E+00 0. -1.
         -6    2    1    2    0  503 -0.85423929365E+02 -0.62612132254E+02 -0.54998176170E+02  0.20945211649E+03  0.17212746122E+03 0.  0.
        -24    2    3    3    0    0 -0.10332235315E+03  0.73472804350E+01 -0.34458830736E+02  0.13422826583E+03  0.78104578237E+02 0.  0.
          6    2    1    2  501    0  0.85423929365E+02  0.62612132254E+02  0.11881263604E+03  0.23456912715E+03  0.17230410940E+03 0.  0.
         24    2    5    5    0    0  0.48624603534E+02  0.91393329530E+02  0.30843130936E+02  0.13485317293E+03  0.80727856230E+02 0.  0.
          5    1    5    5  501    0  0.36799325832E+02 -0.28781197276E+02  0.87969505100E+02  0.99715954219E+02  0.47000000000E+01 0. -1.
        -11    1    6    6    0    0 -0.60309864824E+01  0.13884721818E+01  0.28879095918E+02  0.29534773302E+02  0.00000000000E+00 0.  1.
         12    1    6    6    0    0  0.54655590016E+02  0.90004857348E+02  0.19640350176E+01  0.10531839963E+03  0.00000000000E+00 0. -1.
         -5    1    3    3    0  503  0.17898423784E+02 -0.69959412689E+02 -0.20539345434E+02  0.75223850663E+02  0.47000000000E+01 0.  1.
         13    1    4    4    0    0 -0.85122672493E+01 -0.14096697978E+02 -0.33149657704E+02  0.37014529492E+02  0.00000000000E+00 0. -1.
        -14    1    4    4    0    0 -0.94810085901E+02  0.21443978413E+02 -0.13091730321E+01  0.97213736337E+02  0.00000000000E+00 0.  1.
</event>
<event>
12    1  0.8494789E-002  0.2580351E+03  0.7818608E-02  0.1108829E+00
         21   -1    0    0  503  502  0.00000000000E+00  0.00000000000E+00  0.10094548150E+03  0.10094548150E+03  0.00000000000E+00 0. -1.
         21   -1    0    0  501  503 -0.00000000000E+00 -0.00000000000E+00 -0.85443867705E+03  0.85443867705E+03  0.00000000000E+00 0. -1.
          6    2    1    2  501    0 -0.12021512163E+03 -0.14436582167E+03 -0.14197458450E+03  0.29165446491E+03  0.17208247535E+03 0.  0.
         24    2    3    3    0    0 -0.13691538106E+03 -0.90592562750E+02 -0.14731625990E+03  0.23489985685E+03  0.80765266785E+02 0.  0.
         -6    2    1    2    0  502  0.12021512163E+03  0.14436582167E+03 -0.61151861105E+03  0.66372969365E+03  0.17688676784E+03 0.  0.
        -24    2    5    5    0    0  0.13853337694E+03  0.89687199706E+02 -0.54638818537E+03  0.57661268884E+03  0.81895381470E+02 0.  0.
          5    1    3    3  501    0  0.16700259433E+02 -0.53773258920E+02  0.53416754004E+01  0.56754608060E+02  0.47000000000E+01 0. -1.
        -13    1    4    4    0    0  0.27382280568E+01  0.97440712859E+01 -0.34465413638E+01  0.10692215182E+02  0.00000000000E+00 0.  1.
         14    1    4    4    0    0 -0.13965360912E+03 -0.10033663404E+03 -0.14386971854E+03  0.22420764167E+03  0.00000000000E+00 0. -1.
         -5    1    5    5    0  502 -0.18318255307E+02  0.54678621963E+02 -0.65130425681E+02  0.87117004808E+02  0.47000000000E+01 0.  1.
         13    1    6    6    0    0  0.10455014039E+03  0.27466272752E+02 -0.39365331401E+03  0.40822550095E+03  0.00000000000E+00 0. -1.
        -14    1    6    6    0    0  0.33983236545E+02  0.62220926955E+02 -0.15273487136E+03  0.16838718789E+03  0.00000000000E+00 0.  1.
</event>
<event>
12    1  0.8494789E-002  0.2394012E+03  0.7818608E-02  0.1121306E+00
         21   -1    0    0  503  502  0.00000000000E+00  0.00000000000E+00  0.30564223080E+03  0.30564223080E+03  0.00000000000E+00 0.  1.
         21   -1    0    0  501  503 -0.00000000000E+00 -0.00000000000E+00 -0.30028982017E+03  0.30028982017E+03  0.00000000000E+00 0.  1.
          6    2    1    2  501    0 -0.10065347380E+03 -0.12245708658E+03 -0.18711288126E+03  0.30384891017E+03  0.17940476594E+03 0.  0.
         24    2    3    3    0    0  0.54664024011E+01 -0.54701173952E+02 -0.28806105002E+02  0.10152388150E+03  0.80344301865E+02 0.  0.
         -6    2    1    2    0  502  0.10065347380E+03  0.12245708658E+03  0.19246529189E+03  0.30208314079E+03  0.17054171199E+03 0.  0.
        -24    2    5    5    0    0  0.65261295465E+02  0.10355793962E+03  0.21171198551E+03  0.25733597040E+03  0.80103391393E+02 0.  0.
          5    1    3    3  501    0 -0.10611987620E+03 -0.67755912626E+02 -0.15830677625E+03  0.20232502868E+03  0.47000000000E+01 0. -1.
        -13    1    4    4    0    0  0.13435719535E+02  0.89098757472E+01 -0.33568343733E+02  0.37238933205E+02  0.00000000000E+00 0.  1.
         14    1    4    4    0    0 -0.79693171334E+01 -0.63611049699E+02  0.47622387309E+01  0.64284948294E+02  0.00000000000E+00 0. -1.
         -5    1    5    5    0  502  0.35392178334E+02  0.18899146954E+02 -0.19246693613E+02  0.44747170389E+02  0.47000000000E+01 0.  1.
         11    1    6    6    0    0 -0.17170066440E+02  0.28093283237E+02  0.65442985982E+02  0.73258638800E+02  0.00000000000E+00 0. -1.
        -12    1    6    6    0    0  0.82431361905E+02  0.75464656387E+02  0.14626899952E+03  0.18407733160E+03  0.00000000000E+00 0.  1.
</event>
<event>
12    1  0.8494789E-002  0.3297985E+03  0.7818608E-02  0.1071263E+00
         21   -1    0    0  501  502  0.00000000000E+00  0.00000000000E+00  0.67612163861E+03  0.67612163861E+03  0.00000000000E+00 0.  1.
         21   -1    0    0  502  503 -0.00000000000E+00 -0.00000000000E+00 -0.20127741667E+03  0.20127741667E+03  0.00000000000E+00 0. -1.
         -6    2    1    2    0  503  0.10538412604E+03  0.26059894130E+03  0.40373196458E+02  0.33193402974E+03  0.17185046662E+03 0.  0.
        -24    2    3    3    0    0  0.22794815444E+02  0.96651776152E+02 -0.36531168783E+02  0.13284601258E+03  0.80326628962E+02 0.  0.
          6    2    1    2  501    0 -0.10538412604E+03 -0.26059894130E+03  0.43447102549E+03  0.54546502554E+03  0.17248014343E+03 0.  0.
         24    2    5    5    0    0 -0.17698312937E+02 -0.10485800773E+03  0.10044249256E+03  0.16659672255E+03  0.79732939153E+02 0.  0.
          5    1    5    5  501    0 -0.87685813099E+02 -0.15574093357E+03  0.33402853293E+03  0.37886830300E+03  0.47000000000E+01 0. -1.
        -13    1    6    6    0    0  0.13300078521E+02 -0.45992868588E+02  0.86135896808E+02  0.98547596462E+02  0.00000000000E+00 0.  1.
         14    1    6    6    0    0 -0.30998391458E+02 -0.58865139138E+02  0.14306595754E+02  0.68049126084E+02  0.00000000000E+00 0. -1.
         -5    1    3    3    0  503  0.82589310593E+02  0.16394716515E+03  0.76904365241E+02  0.19908801716E+03  0.47000000000E+01 0.  1.
         13    1    4    4    0    0  0.48479535876E+02  0.80301347315E+02 -0.40443807012E+02  0.10214829076E+03  0.00000000000E+00 0. -1.
        -14    1    4    4    0    0 -0.25684720433E+02  0.16350428837E+02  0.39126382288E+01  0.30697721817E+02  0.00000000000E+00 0.  1.
</event>
<event>
12    1  0.8494789E-002  0.1825609E+03  0.7818608E-02  0.1166705E+00
         21   -1    0    0  503  502  0.00000000000E+00  0.00000000000E+00  0.10567624271E+04  0.10567624271E+04  0.00000000000E+00 0.  1.
         21   -1    0    0  501  503 -0.00000000000E+00 -0.00000000000E+00 -0.45320604065E+02  0.45320604065E+02  0.00000000000E+00 0.  1.
          6    2    1    2  501    0 -0.39581422445E+02 -0.49244177684E+01  0.18609420209E+03  0.25678594684E+03  0.17238628585E+03 0.  0.
         24    2    3    3    0    0  0.19512291428E+02  0.15567632023E+01  0.26573436375E+02  0.86483165236E+02  0.79937708999E+02 0.  0.
         -6    2    1    2    0  502  0.39581422445E+02  0.49244177684E+01  0.82534762094E+03  0.84529708433E+03  0.17815029185E+03 0.  0.
        -24    2    5    5    0    0 -0.10273251430E+02  0.33121521665E+01  0.75458179813E+03  0.75859080091E+03  0.77134966744E+02 0.  0.
          5    1    3    3  501    0 -0.59093713873E+02 -0.64811809707E+01  0.15952076572E+03  0.17030278160E+03  0.47000000000E+01 0. -1.
        -11    1    4    4    0    0 -0.15363099686E+02  0.20976531039E+02 -0.14029602900E+02  0.29544363996E+02  0.00000000000E+00 0.  1.
         12    1    4    4    0    0  0.34875391114E+02 -0.19419767836E+02  0.40603039276E+02  0.56938801240E+02  0.00000000000E+00 0. -1.
         -5    1    5    5    0  502  0.49854673875E+02  0.16122656019E+01  0.70765822808E+02  0.86706283424E+02  0.47000000000E+01 0.  1.
         13    1    6    6    0    0 -0.19796728991E+02  0.20653924858E+02  0.10857200555E+03  0.11227811665E+03  0.00000000000E+00 0. -1.
        -14    1    6    6    0    0  0.95234775606E+01 -0.17341772692E+02  0.64600979259E+03  0.64631268425E+03  0.00000000000E+00 0.  1.
</event>
<event>
12    1  0.8494789E-002  0.1843539E+03  0.7818608E-02  0.1164314E+00
         21   -1    0    0  501  502  0.00000000000E+00  0.00000000000E+00  0.57529151896E+03  0.57529151896E+03  0.00000000000E+00 0.  1.
         21   -1    0    0  502  503 -0.00000000000E+00 -0.00000000000E+00 -0.81720786908E+02  0.81720786908E+02  0.00000000000E+00 0. -1.
         -6    2    1    2    0  503  0.53744794045E+02  0.38298455773E+02  0.69157674095E+02  0.19428907142E+03  0.16914545453E+03 0.  0.
        -24    2    3    3    0    0  0.43022846734E+02 -0.26044362009E+02 -0.76698712641E+01  0.93395463697E+02  0.78323761277E+02 0.  0.
          6    2    1    2  501    0 -0.53744794045E+02 -0.38298455773E+02  0.42441305796E+03  0.46272323444E+03  0.17213678668E+03 0.  0.
         24    2    5    5    0    0 -0.36230547668E+01  0.16006743407E+02  0.33448583159E+03  0.34623186374E+03  0.87899883812E+02 0.  0.
          5    1    5    5  501    0 -0.50121739278E+02 -0.54305199180E+02  0.89927226362E+02  0.11649137070E+03  0.47000000000E+01 0. -1.
        -11    1    6    6    0    0 -0.15855660474E+02  0.34370592052E+02  0.60541674263E+02  0.71400517432E+02  0.00000000000E+00 0.  1.
         12    1    6    6    0    0  0.12232605707E+02 -0.18363848645E+02  0.27394415733E+03  0.27483134631E+03  0.00000000000E+00 0. -1.
         -5    1    3    3    0  503  0.10721947311E+02  0.64342817782E+02  0.76827545359E+02  0.10089360773E+03  0.47000000000E+01 0.  1.
         13    1    4    4    0    0 -0.11493839162E+02  0.18245911824E+02  0.47095049394E+01  0.22072631782E+02  0.00000000000E+00 0. -1.
        -14    1    4    4    0    0  0.54516685896E+02 -0.44290273833E+02 -0.12379376204E+02  0.71322831916E+02  0.00000000000E+00 0.  1.
</event>
<event>
12    1  0.8494789E-002  0.1821372E+03  0.7818608E-02  0.1165881E+00
         21   -1    0    0  503  502  0.00000000000E+00  0.00000000000E+00  0.65727362194E+03  0.65727362194E+03  0.00000000000E+00 0. -1.
         21   -1    0    0  501  503 -0.00000000000E+00 -0.00000000000E+00 -0.58472674717E+02  0.58472674717E+02  0.00000000000E+00 0. -1.
          6    2    1    2  501    0  0.52198266352E+02 -0.33040430283E+02  0.16616303728E+03  0.24654436326E+03  0.17134071044E+03 0.  0.
         24    2    3    3    0    0 -0.14609211867E+02  0.79936832961E+01  0.14543545950E+03  0.16531161061E+03  0.76805778940E+02 0.  0.
         -6    2    1    2    0  502 -0.52198266352E+02  0.33040430283E+02  0.43263790994E+03  0.46920193339E+03  0.17075878934E+03 0.  0.
        -24    2    5    5    0    0  0.24625511060E+02 -0.69626706741E+01  0.29541177994E+03  0.30685895813E+03  0.78989909980E+02 0.  0.
          5    1    3    3  501    0  0.66807478218E+02 -0.41034113579E+02  0.20727577779E+02  0.81232752654E+02  0.47000000000E+01 0. -1.
        -11    1    4    4    0    0 -0.21410842302E+02 -0.21174831197E+02  0.19527763491E+02  0.35890544594E+02  0.00000000000E+00 0.  1.
         12    1    4    4    0    0  0.68016304354E+01  0.29168514493E+02  0.12590769601E+03  0.12942106602E+03  0.00000000000E+00 0. -1.
         -5    1    5    5    0  502 -0.76823777412E+02  0.40003100957E+02  0.13722613001E+03  0.16234297527E+03  0.47000000000E+01 0.  1.
         11    1    6    6    0    0  0.33523883663E+02  0.27015606367E+02  0.21243894915E+03  0.21675793153E+03  0.00000000000E+00 0. -1.
        -12    1    6    6    0    0 -0.88983726031E+01 -0.33978277041E+02  0.82972830784E+02  0.90101026598E+02  0.00000000000E+00 0.  1.
</event>
<event>
12    1  0.8494789E-002  0.2079614E+03  0.7818608E-02  0.1143421E+00
         21   -1    0    0  503  502  0.00000000000E+00  0.00000000000E+00  0.38887442733E+02  0.38887442733E+02  0.00000000000E+00 0. -1.
         21   -1    0    0  501  503 -0.00000000000E+00 -0.00000000000E+00 -0.12835204590E+04  0.12835204590E+04  0.00000000000E+00 0. -1.
          6    2    1    2  501    0  0.88432757976E+02  0.76843622713E+02 -0.37495371804E+03  0.42820992486E+03  0.17043519014E+03 0.  0.
         24    2    3    3    0    0  0.33520449167E+02 -0.46518731721E+01 -0.27186043882E+03  0.28570662059E+03  0.81085845954E+02 0.  0.
         -6    2    1    2    0  502 -0.88432757976E+02 -0.76843622713E+02 -0.86967929819E+03  0.89419797684E+03  0.17182155001E+03 0.  0.
        -24    2    5    5    0    0 -0.10619788021E+02 -0.69759628983E+01 -0.19425824881E+03  0.21071276695E+03  0.80635965750E+02 0.  0.
          5    1    3    3  501    0  0.54912308808E+02  0.81495495886E+02 -0.10309327922E+03  0.14250330427E+03  0.47000000000E+01 0. -1.
        -11    1    4    4    0    0  0.51314572807E+02 -0.23114808566E+02 -0.13172308351E+03  0.14324262804E+03  0.00000000000E+00 0.  1.
         12    1    4    4    0    0 -0.17794123639E+02  0.18462935394E+02 -0.14013735531E+03  0.14246399255E+03  0.00000000000E+00 0. -1.
         -5    1    5    5    0  502 -0.77812969955E+02 -0.69867659815E+02 -0.67542104939E+03  0.68348520989E+03  0.47000000000E+01 0.  1.
         13    1    6    6    0    0 -0.34623429673E+02 -0.31858322706E+02 -0.11337061108E+03  0.12274620183E+03  0.00000000000E+00 0. -1.
        -14    1    6    6    0    0  0.24003641652E+02  0.24882359808E+02 -0.80887637727E+02  0.87966565122E+02  0.00000000000E+00 0.  1.
</event>
<event>
12    1  0.8494789E-002  0.1768718E+03  0.7818608E-02  0.1171055E+00
         21   -1    0    0  503  502  0.00000000000E+00  0.00000000000E+00  0.46491950531E+03  0.46491950531E+03  0.00000000000E+00 0. -1.
         21   -1    0    0  501  503 -0.00000000000E+00 -0.00000000000E+00 -0.78298197462E+02  0.78298197462E+02  0.00000000000E+00 0. -1.
          6    2    1    2  501    0  0.13140310991E+02  0.40749386818E+02  0.90482500904E+02  0.19867242286E+03  0.17161138755E+03 0.  0.
         24    2    3    3    0    0 -0.36292077904E+02  0.23109316292E+02 -0.11787074022E+02  0.83625088620E+02  0.70732347018E+02 0.  0.
         -6    2    1    2    0  502 -0.13140310991E+02 -0.40749386818E+02  0.29613880694E+03  0.34454527991E+03  0.17082176862E+03 0.  0.
        -24    2    5    5    0    0  0.27064915165E+02 -0.79185317126E+02  0.18127715307E+03  0.21683830876E+03  0.84584997736E+02 0.  0.
          5    1    3    3  501    0  0.49432388894E+02  0.17640070526E+02  0.10226957493E+03  0.11504733424E+03  0.47000000000E+01 0. -1.
        -11    1    4    4    0    0  0.10232328257E+02 -0.17993458538E+02 -0.35266222442E+01  0.20997670256E+02  0.00000000000E+00 0.  1.
         12    1    4    4    0    0 -0.46524406161E+02  0.41102774830E+02 -0.82604517776E+01  0.62627418364E+02  0.00000000000E+00 0. -1.
         -5    1    5    5    0  502 -0.40205226156E+02  0.38435930308E+02  0.11486165387E+03  0.12770697115E+03  0.47000000000E+01 0.  1.
         11    1    6    6    0    0 -0.21837990585E+02 -0.58025184429E+02  0.12383198815E+03  0.13848531023E+03  0.00000000000E+00 0. -1.
        -12    1    6    6    0    0  0.48902905750E+02 -0.21160132697E+02  0.57445164919E+02  0.78352998533E+02  0.00000000000E+00 0.  1.
</event>
<event>
12    1  0.8494789E-002  0.2487821E+03  0.7818608E-02  0.1114333E+00
         21   -1    0    0  501  502  0.00000000000E+00  0.00000000000E+00  0.36350197540E+03  0.36350197540E+03  0.00000000000E+00 0.  1.
         21   -1    0    0  502  503 -0.00000000000E+00 -0.00000000000E+00 -0.17134412953E+03  0.17134412953E+03  0.00000000000E+00 0. -1.
         -6    2    1    2    0  503  0.11504470349E+03 -0.13490883075E+03  0.12651060962E+03  0.27910119123E+03  0.17451895079E+03 0.  0.
        -24    2    3    3    0    0  0.38258976338E+01 -0.40296277765E+02  0.98189372350E+02  0.13028808550E+03  0.75467906327E+02 0.  0.
          6    2    1    2  501    0 -0.11504470349E+03  0.13490883075E+03  0.65647236257E+02  0.25574491369E+03  0.17222144128E+03 0.  0.
         24    2    5    5    0    0 -0.86827518830E+02  0.34146953485E+02  0.84820025472E+02  0.14926087138E+03  0.79870761520E+02 0.  0.
          5    1    5    5  501    0 -0.28217184658E+02  0.10076187727E+03 -0.19172789215E+02  0.10648404231E+03  0.47000000000E+01 0. -1.
        -13    1    6    6    0    0 -0.39940841532E+02  0.48635055053E+02  0.16353742492E+02  0.65023721024E+02  0.00000000000E+00 0.  1.
         14    1    6    6    0    0 -0.46886677297E+02 -0.14488101569E+02  0.68466282980E+02  0.84237150356E+02  0.00000000000E+00 0. -1.
         -5    1    3    3    0  503  0.11121880585E+03 -0.94612552989E+02  0.28321237267E+02  0.14881310574E+03  0.47000000000E+01 0.  1.
         11    1    4    4    0    0 -0.19258293575E+02 -0.22400151551E+02  0.18279847920E+01  0.29597131437E+02  0.00000000000E+00 0. -1.
        -12    1    4    4    0    0  0.23084191209E+02 -0.17896126214E+02  0.96361387558E+02  0.10069095406E+03  0.00000000000E+00 0.  1.
</event>
<event>
12    1  0.8494789E-002  0.2076356E+03  0.7818608E-02  0.1143541E+00
         21   -1    0    0  501  502  0.00000000000E+00  0.00000000000E+00  0.12649563366E+03  0.12649563366E+03  0.00000000000E+00 0.  1.
         21   -1    0    0  502  503 -0.00000000000E+00 -0.00000000000E+00 -0.54637849978E+03  0.54637849978E+03  0.00000000000E+00 0.  1.
         -6    2    1    2    0  503 -0.10861806982E+03  0.38853776311E+02 -0.41652298370E+03  0.46521139839E+03  0.17211260331E+03 0.  0.
        -24    2    3    3    0    0 -0.94138844976E+02 -0.30926814003E+02 -0.32943695529E+03  0.35258349296E+03  0.77251679865E+02 0.  0.
          6    2    1    2  501    0  0.10861806982E+03 -0.38853776311E+02 -0.33598824242E+01  0.20766273506E+03  0.17264130936E+03 0.  0.
         24    2    5    5    0    0  0.30585498938E+02  0.32773147217E+02  0.20252902366E+02  0.99038833919E+02  0.85959052147E+02 0.  0.
          5    1    5    5  501    0  0.78032570885E+02 -0.71626923529E+02 -0.23612784790E+02  0.10862390114E+03  0.47000000000E+01 0. -1.
        -13    1    6    6    0    0  0.24518969019E+02 -0.12651981276E+02  0.40444638818E+02  0.48959383994E+02  0.00000000000E+00 0.  1.
         14    1    6    6    0    0  0.60665299186E+01  0.45425128493E+02 -0.20191736452E+02  0.50079449925E+02  0.00000000000E+00 0. -1.
         -5    1    3    3    0  503 -0.14479224847E+02  0.69780590315E+02 -0.87086028409E+02  0.11262790543E+03  0.47000000000E+01 0.  1.
         11    1    4    4    0    0 -0.18493865739E+02 -0.36533744192E+02 -0.18459173225E+03  0.18907893893E+03  0.00000000000E+00 0. -1.
        -12    1    4    4    0    0 -0.75644979237E+02  0.56069301889E+01 -0.14484522304E+03  0.16350455403E+03  0.00000000000E+00 0.  1.
</event>
<event>
12    1  0.8494789E-002  0.1852962E+03  0.7818608E-02  0.1163607E+00
         21   -1    0    0  501  502  0.00000000000E+00  0.00000000000E+00  0.97398763782E+03  0.97398763782E+03  0.00000000000E+00 0. -1.
         21   -1    0    0  502  503 -0.00000000000E+00 -0.00000000000E+00 -0.34776518994E+02  0.34776518994E+02  0.00000000000E+00 0. -1.
         -6    2    1    2    0  503  0.57770716712E+02 -0.95676585020E+01  0.50285820441E+03  0.53469819102E+03  0.17206622545E+03 0.  0.
        -24    2    3    3    0    0  0.67122033303E+02 -0.58488559655E+02  0.42042116666E+03  0.43826864739E+03  0.86018433758E+02 0.  0.
          6    2    1    2  501    0 -0.57770716712E+02  0.95676585020E+01  0.43635291442E+03  0.47406596580E+03  0.17580010866E+03 0.  0.
         24    2    5    5    0    0 -0.11624096652E+02  0.71663098226E+02  0.26524573470E+03  0.28622265043E+03  0.79356074564E+02 0.  0.
          5    1    5    5  501    0 -0.46146620060E+02 -0.62095439724E+02  0.17110717972E+03  0.18784331537E+03  0.47000000000E+01 0. -1.
        -13    1    6    6    0    0  0.20808697747E+02 -0.68564589721E+01  0.68513609426E+02  0.71931409051E+02  0.00000000000E+00 0.  1.
         14    1    6    6    0    0 -0.32432794399E+02  0.78519557198E+02  0.19673212527E+03  0.21429124137E+03  0.00000000000E+00 0. -1.
         -5    1    3    3    0  503 -0.93513165910E+01  0.48920901153E+02  0.82437037749E+02  0.96429543629E+02  0.47000000000E+01 0.  1.
         13    1    4    4    0    0  0.91464532467E+01 -0.63939843814E+02  0.24832207867E+03  0.25658490990E+03  0.00000000000E+00 0. -1.
        -14    1    4    4    0    0  0.57975580056E+02  0.54512841592E+01  0.17209908799E+03  0.18168373749E+03  0.00000000000E+00 0.  1.
</event>
<event>
12    1  0.8494789E-002  0.2789506E+03  0.7818608E-02  0.1096492E+00
         21   -1    0    0  503  502  0.00000000000E+00  0.00000000000E+00  0.64454161571E+02  0.64454161571E+02  0.00000000000E+00 0.  1.
         21   -1    0    0  501  503 -0.00000000000E+00 -0.00000000000E+00 -0.12005290118E+04  0.12005290118E+04  0.00000000000E+00 0.  1.
          6    2    1    2  501    0 -0.16228493645E+03  0.14830077830E+03 -0.55441199557E+03  0.61989008958E+03  0.16900160025E+03 0.  0.
         24    2    3    3    0    0 -0.44358172492E+02  0.71648114883E+01 -0.15685888511E+03  0.18182999276E+03  0.80239980314E+02 0.  0.
         -6    2    1    2    0  502  0.16228493645E+03 -0.14830077830E+03 -0.58166285468E+03  0.64509308381E+03  0.17170873251E+03 0.  0.
        -24    2    5    5    0    0  0.12542999530E+03 -0.38108369579E+02 -0.24605344817E+03  0.28990803715E+03  0.79494899829E+02 0.  0.
          5    1    3    3  501    0 -0.11792676396E+03  0.14113596681E+03 -0.39755311046E+03  0.43806009682E+03  0.47000000000E+01 0. -1.
        -13    1    4    4    0    0 -0.13203108594E+02  0.32729893433E+02 -0.23219220534E+02  0.42245712243E+02  0.00000000000E+00 0.  1.
         14    1    4    4    0    0 -0.31155063898E+02 -0.25565081945E+02 -0.13363966457E+03  0.13958428052E+03  0.00000000000E+00 0. -1.
         -5    1    5    5    0  502  0.36854941154E+02 -0.11019240872E+03 -0.33560940651E+03  0.35518504666E+03  0.47000000000E+01 0.  1.
         13    1    6    6    0    0  0.42677571745E+01  0.44702422966E+01  0.49760309268E+01  0.79345889166E+01  0.00000000000E+00 0. -1.
        -14    1    6    6    0    0  0.12116223812E+03 -0.42578611876E+02 -0.25102947909E+03  0.28197344824E+03  0.00000000000E+00 0.  1.
</event>
<event>
12    1  0.8494789E-002  0.2138951E+03  0.7818608E-02  0.1138931E+00
         21   -1    0    0  503  502  0.00000000000E+00  0.00000000000E+00  0.38213777804E+02  0.38213777804E+02  0.00000000000E+00 0. -1.
         21   -1    0    0  501  503 -0.00000000000E+00 -0.00000000000E+00 -0.22640899765E+04  0.22640899765E+04  0.00000000000E+00 0. -1.
          6    2    1    2  501    0 -0.12020957756E+03  0.36439290799E+02 -0.19046073558E+04  0.19163442008E+04  0.17049267272E+03 0.  0.
         24    2    3    3    0    0 -0.11453262954E+03  0.52876039636E+02 -0.18797708397E+04  0.18856629853E+04  0.79201549272E+02 0.  0.
         -6    2    1    2    0  502  0.12020957756E+03 -0.36439290799E+02 -0.32126884287E+03  0.38595955355E+03  0.17312695668E+03 0.  0.
        -24    2    5    5    0    0  0.81577073397E+02  0.43796089960E+02 -0.22006363054E+03  0.25107155666E+03  0.77691754236E+02 0.  0.
          5    1    3    3  501    0 -0.56769480136E+01 -0.16436748837E+02 -0.24836516154E+02  0.30681215520E+02  0.47000000000E+01 0. -1.
        -11    1    4    4    0    0  0.51177099688E+01  0.22744978489E+02 -0.43894273126E+03  0.43956142498E+03  0.00000000000E+00 0.  1.
         12    1    4    4    0    0 -0.11965033951E+03  0.30131061148E+02 -0.14408281084E+04  0.14461015603E+04  0.00000000000E+00 0. -1.
         -5    1    5    5    0  502  0.38632504158E+02 -0.80235380759E+02 -0.10120521233E+03  0.13488799690E+03  0.47000000000E+01 0.  1.
         13    1    6    6    0    0  0.84187560929E+02  0.21142649475E+02 -0.11797562244E+03  0.14646775936E+03  0.00000000000E+00 0. -1.
        -14    1    6    6    0    0 -0.26104875322E+01  0.22653440485E+02 -0.10208800810E+03  0.10460379730E+03  0.00000000000E+00 0.  1.
</event>
<event>
12    1  0.8494789E-002  0.1864474E+03  0.7818608E-02  0.1161886E+00
         21   -1    0    0  501  502  0.00000000000E+00  0.00000000000E+00  0.19416963528E+03  0.19416963528E+03  0.00000000000E+00 0.  1.
         21   -1    0    0  502  503 -0.00000000000E+00 -0.00000000000E+00 -0.18673870496E+03  0.18673870496E+03  0.00000000000E+00 0. -1.
         -6    2    1    2    0  503  0.92662807948E+01 -0.75705578501E+02 -0.36801436730E+02  0.19004468262E+03  0.17013358595E+03 0.  0.
        -24    2    3    3    0    0  0.71401523154E+02 -0.38051514099E+02 -0.32455484196E+02  0.11710913427E+03  0.78199076983E+02 0.  0.
          6    2    1    2  501    0 -0.92662807948E+01  0.75705578501E+02  0.44232367055E+02  0.19086365762E+03  0.16927857197E+03 0.  0.
         24    2    5    5    0    0 -0.45291986778E+02  0.10145384243E+03  0.15827839426E+02  0.13804574611E+03  0.80385703378E+02 0.  0.
          5    1    5    5  501    0  0.36025705983E+02 -0.25748263928E+02  0.28404527629E+02  0.52817911514E+02  0.47000000000E+01 0. -1.
        -11    1    6    6    0    0 -0.47204937403E+02  0.14450140326E+02  0.12654337265E+02  0.50963172215E+02  0.00000000000E+00 0.  1.
         12    1    6    6    0    0  0.19129506245E+01  0.87003702103E+02  0.31735021607E+01  0.87082573892E+02  0.00000000000E+00 0. -1.
         -5    1    3    3    0  503 -0.62135242360E+02 -0.37654064402E+02 -0.43459525339E+01  0.72935548346E+02  0.47000000000E+01 0.  1.
         11    1    4    4    0    0  0.29225853887E+02  0.19211304080E+02 -0.29788119629E+02  0.45940796803E+02  0.00000000000E+00 0. -1.
        -12    1    4    4    0    0  0.42175669268E+02 -0.57262818179E+02 -0.26673645668E+01  0.71168337466E+02  0.00000000000E+00 0.  1.
</event>
<event>
12    1  0.8494789E-002  0.1703255E+03  0.7818608E-02  0.1178564E+00
         21   -1    0    0  503  502  0.00000000000E+00  0.00000000000E+00  0.23439040334E+04  0.23439040334E+04  0.00000000000E+00 0.  1.
         21   -1    0    0  501  503 -0.00000000000E+00 -0.00000000000E+00 -0.16696132379E+02  0.16696132379E+02  0.00000000000E+00 0.  1.
          6    2    1    2  501    0  0.35176133698E+02  0.26876314061E+02  0.17936959294E+04  0.18017646481E+04  0.16447207530E+03 0.  0.
         24    2    3    3    0    0  0.59862509389E+02 -0.58010316317E+01  0.69593228855E+03  0.70322729001E+03  0.81176962069E+02 0.  0.
         -6    2    1    2    0  502 -0.35176133698E+02 -0.26876314061E+02  0.53351197165E+03  0.55883551765E+03  0.16031972822E+03 0.  0.
        -24    2    5    5    0    0 -0.87084230588E+02 -0.28722941344E+02  0.37658324403E+03  0.39346751559E+03  0.67772232961E+02 0.  0.
          5    1    3    3  501    0 -0.24686375691E+02  0.32677345692E+02  0.10977636408E+04  0.10985373581E+04  0.47000000000E+01 0. -1.
        -11    1    4    4    0    0  0.57291406632E+02  0.29633211696E+02  0.49405299282E+03  0.49824571471E+03  0.00000000000E+00 0.  1.
         12    1    4    4    0    0  0.25711027575E+01 -0.35434243327E+02  0.20187929572E+03  0.20498157530E+03  0.00000000000E+00 0. -1.
         -5    1    5    5    0  502  0.51908096890E+02  0.18466272838E+01  0.15692872762E+03  0.16536800206E+03  0.47000000000E+01 0.  1.
         11    1    6    6    0    0  0.41550873761E+01  0.11596892205E+02  0.23102884750E+02  0.26181977459E+02  0.00000000000E+00 0. -1.
        -12    1    6    6    0    0 -0.91239317964E+02 -0.40319833549E+02  0.35348035928E+03  0.36728553813E+03  0.00000000000E+00 0.  1.
</event>
<event>
12    1  0.8494789E-002  0.3408460E+03  0.7818608E-02  0.1066457E+00
         21   -1    0    0  501  502  0.00000000000E+00  0.00000000000E+00  0.61624347889E+03  0.61624347889E+03  0.00000000000E+00 0. -1.
         21   -1    0    0  502  503 -0.00000000000E+00 -0.00000000000E+00 -0.42143211806E+03  0.42143211806E+03  0.00000000000E+00 0.  1.
         -6    2    1    2    0  503 -0.22701148347E+03  0.18683843825E+03 -0.28840695697E+03  0.44634153590E+03  0.17204469827E+03 0.  0.
        -24    2    3    3    0    0 -0.55900490892E+02  0.10325586447E+03 -0.17370830946E+03  0.22398396764E+03  0.78788340220E+02 0.  0.
          6    2    1    2  501    0  0.22701148347E+03 -0.18683843825E+03  0.48321831781E+03  0.59133406105E+03  0.17243321446E+03 0.  0.
         24    2    5    5    0    0  0.14300519524E+03 -0.12885675372E+03  0.20318724318E+03  0.29324275798E+03  0.87474055995E+02 0.  0.
          5    1    5    5  501    0  0.84006288231E+02 -0.57981684527E+02  0.28003107463E+03  0.29809130307E+03  0.47000000000E+01 0. -1.
        -11    1    6    6    0    0  0.98938047059E+02 -0.35371126857E+02  0.77729962613E+02  0.13069736363E+03  0.00000000000E+00 0.  1.
         12    1    6    6    0    0  0.44067148184E+02 -0.93485626868E+02  0.12545728056E+03  0.16254539436E+03  0.00000000000E+00 0. -1.
         -5    1    3    3    0  503 -0.17111099258E+03  0.83582573782E+02 -0.11469864752E+03  0.22235756826E+03  0.47000000000E+01 0.  1.
         11    1    4    4    0    0 -0.31311673698E+02  0.80467236083E+02 -0.59254033436E+02  0.10472075950E+03  0.00000000000E+00 0. -1.
        -12    1    4    4    0    0 -0.24588817194E+02  0.22788628386E+02 -0.11445427602E+03  0.11926320813E+03  0.00000000000E+00 0.  1.
</event>
<event>
12    1  0.8494789E-002  0.1829964E+03  0.7818608E-02  0.1165086E+00
         21   -1    0    0  503  502  0.00000000000E+00  0.00000000000E+00  0.65502827033E+03  0.65502827033E+03  0.00000000000E+00 0. -1.
         21   -1    0    0  501  503 -0.00000000000E+00 -0.00000000000E+00 -0.58057471126E+02  0.58057471126E+02  0.00000000000E+00 0. -1.
          6    2    1    2  501    0  0.58972039753E+02  0.19608033580E+02  0.42373651360E+03  0.46156292190E+03  0.17212065959E+03 0.  0.
         24    2    3    3    0    0  0.71475900594E+02 -0.24529347658E+02  0.38821694906E+03  0.40335480886E+03  0.79197279178E+02 0.  0.
         -6    2    1    2    0  502 -0.58972039753E+02 -0.19608033580E+02  0.17323428561E+03  0.25152281956E+03  0.17143930295E+03 0.  0.
        -24    2    5    5    0    0 -0.27366684387E+02 -0.68435184612E+02  0.60070273561E+02  0.12419971566E+03  0.79905079289E+02 0.  0.
          5    1    3    3  501    0 -0.12503860841E+02  0.44137381237E+02  0.35519564537E+02  0.58208113037E+02  0.47000000000E+01 0. -1.
        -11    1    4    4    0    0 -0.13465774745E+02 -0.12323197103E+02  0.12942965881E+03  0.13071046193E+03  0.00000000000E+00 0.  1.
         12    1    4    4    0    0  0.84941675339E+02 -0.12206150554E+02  0.25878729025E+03  0.27264434693E+03  0.00000000000E+00 0. -1.
         -5    1    5    5    0  502 -0.31605355366E+02  0.48827151032E+02  0.11316401205E+03  0.12732310391E+03  0.47000000000E+01 0.  1.
         11    1    6    6    0    0 -0.54921908602E+02 -0.40378147266E+02  0.28993001023E+02  0.74077020252E+02  0.00000000000E+00 0. -1.
        -12    1    6    6    0    0  0.27555224215E+02 -0.28057037346E+02  0.31077272538E+02  0.50122695404E+02  0.00000000000E+00 0.  1.
</event>
<event>
12    1  0.8494789E-002  0.6441483E+03  0.7818608E-02  0.9817849E-01
         21   -1    0    0  503  502  0.00000000000E+00  0.00000000000E+00  0.16111088089E+04  0.16111088089E+04  0.00000000000E+00 0. -1.
         21   -1    0    0  501  503 -0.00000000000E+00 -0.00000000000E+00 -0.25752588273E+03  0.25752588273E+03  0.00000000000E+00 0.  1.
          6    2    1    2  501    0 -0.48848694552E+03  0.38301782402E+03  0.68173542992E+03  0.93791805506E+03  0.17206083848E+03 0.  0.
         24    2    3    3    0    0 -0.25010116198E+03  0.12015766996E+03  0.26993612584E+03  0.39429686413E+03  0.74940297271E+02 0.  0.
         -6    2    1    2    0  502  0.48848694552E+03 -0.38301782402E+03  0.67184749625E+03  0.93071663656E+03  0.17184949782E+03 0.  0.
        -24    2    5    5    0    0  0.11456848913E+03 -0.14122346868E+03  0.19947833864E+03  0.28153697471E+03  0.80009085331E+02 0.  0.
          5    1    3    3  501    0 -0.23838578354E+03  0.26286015406E+03  0.41179930408E+03  0.54362119093E+03  0.47000000000E+01 0. -1.
        -13    1    4    4    0    0 -0.10847631409E+03  0.80448514544E+02  0.91867689079E+02  0.16333629881E+03  0.00000000000E+00 0.  1.
         14    1    4    4    0    0 -0.14162484789E+03  0.39709155413E+02  0.17806843676E+03  0.23096056532E+03  0.00000000000E+00 0. -1.
         -5    1    5    5    0  502  0.37391845639E+03 -0.24179435534E+03  0.47236915760E+03  0.64917966185E+03  0.47000000000E+01 0.  1.
         11    1    6    6    0    0  0.93209819749E+02 -0.10791673899E+03  0.99127106959E+02  0.17366714250E+03  0.00000000000E+00 0. -1.
        -12    1    6    6    0    0  0.21358669385E+02 -0.33306729688E+02  0.10035123168E+03  0.10786983221E+03  0.00000000000E+00 0.  1.
</event>
<event>
12    1  0.8494789E-002  0.2224178E+03  0.7818608E-02  0.1132229E+00
         21   -1    0    0  501  502  0.00000000000E+00  0.00000000000E+00  0.24686523036E+03  0.24686523036E+03  0.00000000000E+00 0. -1.
         21   -1    0    0  502  503 -0.00000000000E+00 -0.00000000000E+00 -0.39291903842E+03  0.39291903842E+03  0.00000000000E+00 0. -1.
         -6    2    1    2    0  503  0.14081739953E+03  0.93121963847E+01 -0.29739831038E+03  0.37136969367E+03  0.17191113212E+03 0.  0.
        -24    2    3    3    0    0  0.71288891394E+02  0.25506808125E+02 -0.66733580375E+02  0.12986444205E+03  0.81723309171E+02 0.  0.
          6    2    1    2  501    0 -0.14081739953E+03 -0.93121963847E+01  0.15134450232E+03  0.26841457511E+03  0.17095311854E+03 0.  0.
         24    2    5    5    0    0 -0.67359470935E+02  0.18785647245E+02  0.10082255804E+02  0.10666579341E+03  0.79910829899E+02 0.  0.
          5    1    5    5  501    0 -0.73457928594E+02 -0.28097843630E+02  0.14126224651E+03  0.16174878170E+03  0.47000000000E+01 0. -1.
        -13    1    6    6    0    0 -0.27707012089E+02 -0.11530170242E+02 -0.30162401643E+02  0.42548722867E+02  0.00000000000E+00 0.  1.
         14    1    6    6    0    0 -0.39652458845E+02  0.30315817487E+02  0.40244657447E+02  0.64117070546E+02  0.00000000000E+00 0. -1.
         -5    1    3    3    0  503  0.69528508135E+02 -0.16194611741E+02 -0.23066473000E+03  0.24150525162E+03  0.47000000000E+01 0.  1.
         13    1    4    4    0    0  0.42312695976E+01  0.22343787763E+02 -0.57834731669E+02  0.62145029417E+02  0.00000000000E+00 0. -1.
        -14    1    4    4    0    0  0.67057621796E+02  0.31630203622E+01 -0.88988487060E+01  0.67719412631E+02  0.00000000000E+00 0.  1.
</event>
<event>
12    1  0.8494789E-002  0.2503270E+03  0.7818608E-02  0.1113161E+00
         21   -1    0    0  503  502  0.00000000000E+00  0.00000000000E+00  0.23153342512E+04  0.23153342512E+04  0.00000000000E+00 0. -1.
         21   -1    0    0  501  503 -0.00000000000E+00 -0.00000000000E+00 -0.27880247863E+02  0.27880247863E+02  0.00000000000E+00 0.  1.
          6    2    1    2  501    0  0.92285717521E+01 -0.18104373879E+03  0.93899156226E+03  0.97178637648E+03  0.17263141554E+03 0.  0.
         24    2    3    3    0    0 -0.59345855713E+01 -0.17796033184E+03  0.93501885804E+03  0.95513401577E+03  0.79470901417E+02 0.  0.
         -6    2    1    2    0  502 -0.92285717521E+01  0.18104373879E+03  0.13484624411E+04  0.13714281226E+04  0.17205272017E+03 0.  0.
        -24    2    5    5    0    0 -0.29231027910E+02  0.21959776526E+02  0.44534684943E+03  0.45417806552E+03  0.81284771786E+02 0.  0.
          5    1    3    3  501    0  0.15163157323E+02 -0.30834069441E+01  0.39727042148E+01  0.16652360709E+02  0.47000000000E+01 0. -1.
        -11    1    4    4    0    0  0.88126599202E+01 -0.10681836972E+03  0.36219174511E+03  0.37771773497E+03  0.00000000000E+00 0.  1.
         12    1    4    4    0    0 -0.14747245492E+02 -0.71141962123E+02  0.57282711293E+03  0.57741628080E+03  0.00000000000E+00 0. -1.
         -5    1    5    5    0  502  0.20002456158E+02  0.15908396226E+03  0.90311559163E+03  0.91725005704E+03  0.47000000000E+01 0.  1.
         11    1    6    6    0    0 -0.31965329711E+02  0.50803657832E+02  0.28854790525E+03  0.29472476580E+03  0.00000000000E+00 0. -1.
        -12    1    6    6    0    0  0.27343018009E+01 -0.28843881305E+02  0.15679894418E+03  0.15945329972E+03  0.00000000000E+00 0.  1.
</event>
<event>
12    1  0.8494789E-002  0.1795476E+03  0.7818608E-02  0.1168444E+00
         21   -1    0    0  503  502  0.00000000000E+00  0.00000000000E+00  0.17884290166E+03  0.17884290166E+03  0.00000000000E+00 0. -1.
         21   -1    0    0  501  503 -0.00000000000E+00 -0.00000000000E+00 -0.19035652847E+03  0.19035652847E+03  0.00000000000E+00 0. -1.
          6    2    1    2  501    0  0.52242045843E+02  0.33696382093E+01 -0.49989406366E+02  0.18557557218E+03  0.17087646539E+03 0.  0.
         24    2    3    3    0    0  0.26934326491E+02 -0.44932437323E+02  0.17831392169E+02  0.98424428332E+02  0.81394273008E+02 0.  0.
         -6    2    1    2    0  502 -0.52242045843E+02 -0.33696382093E+01  0.38475779553E+02  0.18362385796E+03  0.17174617837E+03 0.  0.
        -24    2    5    5    0    0 -0.11397097605E+02 -0.60468507059E+02  0.46931777472E+02  0.11275648520E+03  0.82006701184E+02 0.  0.
          5    1    3    3  501    0  0.25307719352E+02  0.48302075532E+02 -0.67820798535E+02  0.87151143844E+02  0.47000000000E+01 0. -1.
        -13    1    4    4    0    0  0.51369949570E+02 -0.72439707368E+01  0.97441012601E+01  0.52785361041E+02  0.00000000000E+00 0.  1.
         14    1    4    4    0    0 -0.24435623080E+02 -0.37688466586E+02  0.80872909089E+01  0.45639067290E+02  0.00000000000E+00 0. -1.
         -5    1    5    5    0  502 -0.40844948237E+02  0.57098868850E+02 -0.84559979182E+01  0.70867372755E+02  0.47000000000E+01 0.  1.
         13    1    6    6    0    0 -0.15345347721E+02  0.18159802245E+02  0.98887014037E+01  0.25749651060E+02  0.00000000000E+00 0. -1.
        -14    1    6    6    0    0  0.39482501160E+01 -0.78628309305E+02  0.37043076068E+02  0.87006834143E+02  0.00000000000E+00 0.  1.
</event>
<event>
12    1  0.8494789E-002  0.1854900E+03  0.7818608E-02  0.1162801E+00
         21   -1    0    0  501  502  0.00000000000E+00  0.00000000000E+00  0.10649626796E+04  0.10649626796E+04  0.00000000000E+00 0.  1.
         21   -1    0    0  502  503 -0.00000000000E+00 -0.00000000000E+00 -0.44811670760E+02  0.44811670760E+02  0.00000000000E+00 0.  1.
         -6    2    1    2    0  503  0.20524249630E+02  0.65411430987E+02  0.21603261291E+03  0.28473960504E+03  0.17235617979E+03 0.  0.
        -24    2    3    3    0    0  0.76776821631E+02  0.39743858403E+02  0.10611391501E+03  0.15853585595E+03  0.79995000098E+02 0.  0.
          6    2    1    2  501    0 -0.20524249630E+02 -0.65411430987E+02  0.80411839591E+03  0.82503474530E+03  0.17139438783E+03 0.  0.
         24    2    5    5    0    0 -0.61975652768E+02 -0.41996190270E+02  0.71882809050E+03  0.72724405802E+03  0.81027370128E+02 0.  0.
          5    1    5    5  501    0  0.41451403138E+02 -0.23415240717E+02  0.85290305413E+02  0.97790687273E+02  0.47000000000E+01 0. -1.
        -13    1    6    6    0    0 -0.38439180178E+02 -0.61251568070E+02  0.60918536734E+03  0.61346241689E+03  0.00000000000E+00 0.  1.
         14    1    6    6    0    0 -0.23536472590E+02  0.19255377801E+02  0.10964272316E+03  0.11378164113E+03  0.00000000000E+00 0. -1.
         -5    1    3    3    0  503 -0.56252572001E+02  0.25667572585E+02  0.10991869790E+03  0.12620374910E+03  0.47000000000E+01 0.  1.
         13    1    4    4    0    0  0.86318468431E+01 -0.15918801378E+02  0.52415395289E+02  0.55455303448E+02  0.00000000000E+00 0. -1.
        -14    1    4    4    0    0  0.68144974788E+02  0.55662659781E+02  0.53698519725E+02  0.10308055250E+03  0.00000000000E+00 0.  1.
</event>
<event>
12    1  0.8494789E-002  0.2434992E+03  0.7818608E-02  0.1118385E+00
         21   -1    0    0  501  502  0.00000000000E+00  0.00000000000E+00  0.74496212658E+02  0.74496212658E+02  0.00000000000E+00 0.  1.
         21   -1    0    0  502  503 -0.00000000000E+00 -0.00000000000E+00 -0.98644170888E+03  0.98644170888E+03  0.00000000000E+00 0.  1.
         -6    2    1    2    0  503  0.12385022589E+03  0.11325617997E+03 -0.70375879893E+03  0.74469343507E+03  0.17642569092E+03 0.  0.
        -24    2    3    3    0    0  0.13530953335E+03  0.13863004167E+03 -0.54911727267E+03  0.58749534275E+03  0.78064334668E+02 0.  0.
          6    2    1    2  501    0 -0.12385022589E+03 -0.11325617997E+03 -0.20818669729E+03  0.31624448646E+03  0.16882841447E+03 0.  0.
         24    2    5    5    0    0 -0.10542767797E+03 -0.95788521469E+02 -0.72958511300E+02  0.17857364114E+03  0.79215937858E+02 0.  0.
          5    1    5    5  501    0 -0.18422547920E+02 -0.17467658506E+02 -0.13522818599E+03  0.13767084532E+03  0.47000000000E+01 0. -1.
        -13    1    6    6    0    0 -0.56041269883E+02 -0.11062232737E+01 -0.28761767303E+02  0.63000689825E+02  0.00000000000E+00 0.  1.
         14    1    6    6    0    0 -0.49386408088E+02 -0.94682298195E+02 -0.44196743997E+02  0.11557295131E+03  0.00000000000E+00 0. -1.
         -5    1    3    3    0  503 -0.11459307455E+02 -0.25373861696E+02 -0.15464152626E+03  0.15719809232E+03  0.47000000000E+01 0.  1.
         11    1    4    4    0    0  0.97831637522E+02  0.13476804884E+03 -0.48867483356E+03  0.51627177847E+03  0.00000000000E+00 0. -1.
        -12    1    4    4    0    0  0.37477895826E+02  0.38619928310E+01 -0.60442439103E+02  0.71223564281E+02  0.00000000000E+00 0.  1.
</event>
<event>
12    1  0.8494789E-002  0.1784927E+03  0.7818608E-02  0.1169363E+00
         21   -1    0    0  503  502  0.00000000000E+00  0.00000000000E+00  0.29499021750E+03  0.29499021750E+03  0.00000000000E+00 0. -1.
         21   -1    0    0  501  503 -0.00000000000E+00 -0.00000000000E+00 -0.13440031128E+04  0.13440031128E+04  0.00000000000E+00 0. -1.
          6    2    1    2  501    0  0.45357488112E+02  0.16624557816E+02 -0.13104150553E+04  0.13224641271E+04  0.17143533030E+03 0.  0.
         24    2    3    3    0    0  0.42179258256E+02 -0.58557792792E+02 -0.83907834612E+03  0.84513523580E+03  0.70661099131E+02 0.  0.
         -6    2    1    2    0  502 -0.45357488112E+02 -0.16624557816E+02  0.26140215998E+03  0.31652920329E+03  0.17183122429E+03 0.  0.
        -24    2    5    5    0    0  0.25821262267E+02  0.11037270642E+02  0.20307366859E+03  0.22032164555E+03  0.80710307216E+02 0.  0.
          5    1    3    3  501    0  0.31782298557E+01  0.75182350608E+02 -0.47133670921E+03  0.47732889126E+03  0.47000000000E+01 0. -1.
        -11    1    4    4    0    0 -0.15151980200E+02 -0.19623211317E+02 -0.10943813726E+03  0.11221122409E+03  0.00000000000E+00 0.  1.
         12    1    4    4    0    0  0.57331238456E+02 -0.38934581475E+02 -0.72964020887E+03  0.73292401170E+03  0.00000000000E+00 0. -1.
         -5    1    5    5    0  502 -0.71178750379E+02 -0.27661828458E+02  0.58328491386E+02  0.96207557741E+02  0.47000000000E+01 0.  1.
         11    1    6    6    0    0 -0.20787893507E+02 -0.13045890416E+02  0.26500674531E+02  0.36119489528E+02  0.00000000000E+00 0. -1.
        -12    1    6    6    0    0  0.46609155774E+02  0.24083161058E+02  0.17657299406E+03  0.18420215602E+03  0.00000000000E+00 0.  1.
</event>
<event>
12    1  0.8494789E-002  0.2253849E+03  0.7818608E-02  0.1130784E+00
         21   -1    0    0  501  502  0.00000000000E+00  0.00000000000E+00  0.61201509260E+03  0.61201509260E+03  0.00000000000E+00 0.  1.
         21   -1    0    0  502  503 -0.00000000000E+00 -0.00000000000E+00 -0.88423237793E+02  0.88423237793E+02  0.00000000000E+00 0.  1.
         -6    2    1    2    0  503 -0.60124914166E+02 -0.13264136081E+03  0.36377845637E+03  0.42794054939E+03  0.17201631489E+03 0.  0.
        -24    2    3    3    0    0  0.20991809615E+02 -0.11324841424E+03  0.19598228509E+03  0.24050081414E+03  0.78522137849E+02 0.  0.
          6    2    1    2  501    0  0.60124914166E+02  0.13264136081E+03  0.15981339844E+03  0.27249778101E+03  0.16584927625E+03 0.  0.
         24    2    5    5    0    0 -0.11548937617E+02  0.65094024449E+02  0.13685284410E+03  0.17126013616E+03  0.78934930923E+02 0.  0.
          5    1    5    5  501    0  0.71673851784E+02  0.67547336360E+02  0.22960554335E+02  0.10123764485E+03  0.47000000000E+01 0. -1.
        -11    1    6    6    0    0 -0.27625392487E+01  0.52359649452E+02  0.24547744735E+02  0.57894354521E+02  0.00000000000E+00 0.  1.
         12    1    6    6    0    0 -0.87863983688E+01  0.12734374997E+02  0.11230509937E+03  0.11336578164E+03  0.00000000000E+00 0. -1.
         -5    1    3    3    0  503 -0.81116723781E+02 -0.19392946566E+02  0.16779617128E+03  0.18743973525E+03  0.47000000000E+01 0.  1.
         13    1    4    4    0    0 -0.45383908262E+01 -0.10689077196E+03  0.18091486026E+03  0.21018187548E+03  0.00000000000E+00 0. -1.
        -14    1    4    4    0    0  0.25530200441E+02 -0.63576422875E+01  0.15067424837E+02  0.30318938656E+02  0.00000000000E+00 0.  1.
</event>
<event>
12    1  0.8494789E-002  0.1939676E+03  0.7818608E-02  0.1155197E+00
         21   -1    0    0  503  502  0.00000000000E+00  0.00000000000E+00  0.20632242461E+03  0.20632242461E+03  0.00000000000E+00 0.  1.
         21   -1    0    0  501  503 -0.00000000000E+00 -0.00000000000E+00 -0.26194599754E+03  0.26194599754E+03  0.00000000000E+00 0. -1.
          6    2    1    2  501    0  0.44179421900E+02  0.76902851473E+02 -0.15773017408E+03  0.24906713653E+03  0.17114251604E+03 0.  0.
         24    2    3    3    0    0 -0.15309401656E+02  0.96510368748E+02 -0.80441569780E+02  0.14947299405E+03  0.79515411999E+02 0.  0.
         -6    2    1    2    0  502 -0.44179421900E+02 -0.76902851473E+02  0.10210660116E+03  0.21920128561E+03  0.17250384265E+03 0.  0.
        -24    2    5    5    0    0 -0.65130052510E+01  0.10791871521E+02  0.30685330293E+01  0.81579512907E+02  0.80541401173E+02 0.  0.
          5    1    3    3  501    0  0.59488823556E+02 -0.19607517274E+02 -0.77288604305E+02  0.99594142484E+02  0.47000000000E+01 0. -1.
        -13    1    4    4    0    0 -0.93970853194E+01  0.76270492157E+02 -0.11902164198E+02  0.77763453492E+02  0.00000000000E+00 0.  1.
         14    1    4    4    0    0 -0.59123163367E+01  0.20239876590E+02 -0.68539405582E+02  0.71709540553E+02  0.00000000000E+00 0. -1.
         -5    1    5    5    0  502 -0.37666416649E+02 -0.87694722994E+02  0.99038068126E+02  0.13762177270E+03  0.47000000000E+01 0.  1.
         11    1    6    6    0    0  0.35584641706E+02 -0.46666133159E+01  0.69847666832E+01  0.36562699173E+02  0.00000000000E+00 0. -1.
        -12    1    6    6    0    0 -0.42097646957E+02  0.15458484836E+02 -0.39162336539E+01  0.45016813734E+02  0.00000000000E+00 0.  1.
</event>
<event>
12    1  0.8494789E-002  0.1762041E+03  0.7818608E-02  0.1171540E+00
         21   -1    0    0  503  502  0.00000000000E+00  0.00000000000E+00  0.41326661282E+02  0.41326661282E+02  0.00000000000E+00 0. -1.
         21   -1    0    0  501  503 -0.00000000000E+00 -0.00000000000E+00 -0.80500234729E+03  0.80500234729E+03  0.00000000000E+00 0. -1.
          6    2    1    2  501    0 -0.31018600539E+02  0.20667105602E+02 -0.49141623702E+03  0.52205152726E+03  0.17221671310E+03 0.  0.
         24    2    3    3    0    0 -0.34339478524E+02 -0.22912505826E+02 -0.13052327475E+03  0.15849131081E+03  0.79868564807E+02 0.  0.
         -6    2    1    2    0  502  0.31018600539E+02 -0.20667105602E+02 -0.27225944899E+03  0.32427748132E+03  0.17216676361E+03 0.  0.
        -24    2    5    5    0    0  0.62894548478E+02 -0.30931381805E+02 -0.88854319887E+02  0.13778093228E+03  0.78587661420E+02 0.  0.
          5    1    3    3  501    0  0.33208779855E+01  0.43579611428E+02 -0.36089296227E+03  0.36356021644E+03  0.47000000000E+01 0. -1.
        -13    1    4    4    0    0 -0.32833389714E+01 -0.21875619303E+02 -0.12498591915E+03  0.12692833813E+03  0.00000000000E+00 0.  1.
         14    1    4    4    0    0 -0.31056139553E+02 -0.10368865228E+01 -0.55373555959E+01  0.31562972683E+02  0.00000000000E+00 0. -1.
         -5    1    5    5    0  502 -0.31875947939E+02  0.10264276203E+02 -0.18340512910E+03  0.18649654904E+03  0.47000000000E+01 0.  1.
         13    1    6    6    0    0  0.13318463145E+02 -0.48375328432E+02 -0.58574196418E+02  0.77126456857E+02  0.00000000000E+00 0. -1.
        -14    1    6    6    0    0  0.49576085333E+02  0.17443946627E+02 -0.30280123469E+02  0.60654475418E+02  0.00000000000E+00 0.  1.
</event>
<event>
12    1  0.8494789E-002  0.2110260E+03  0.7818608E-02  0.1141079E+00
         21   -1    0    0  501  502  0.00000000000E+00  0.00000000000E+00  0.60732547119E+03  0.60732547119E+03  0.00000000000E+00 0. -1.
         21   -1    0    0  502  503 -0.00000000000E+00 -0.00000000000E+00 -0.90796424660E+02  0.90796424660E+02  0.00000000000E+00 0. -1.
         -6    2    1    2    0  503 -0.61492888984E+02  0.10691092390E+03  0.10348662879E+03  0.23503499293E+03  0.17123272035E+03 0.  0.
        -24    2    3    3    0    0 -0.11031664009E+03  0.88859126916E+02  0.79077561464E+02  0.17735034494E+03  0.71653182798E+02 0.  0.
          6    2    1    2  501    0  0.61492888984E+02 -0.10691092390E+03  0.41304241774E+03  0.46308690292E+03  0.16921619236E+03 0.  0.
         24    2    5    5    0    0  0.29989426448E+02  0.39037069904E+01  0.24680227424E+03  0.26077470388E+03  0.78596940043E+02 0.  0.
          5    1    5    5  501    0  0.31503462536E+02 -0.11081463089E+03  0.16624014350E+03  0.20231219904E+03  0.47000000000E+01 0. -1.
        -11    1    6    6    0    0 -0.15462259741E+02  0.28511706618E+02  0.89218384463E+02  0.94931127755E+02  0.00000000000E+00 0.  1.
         12    1    6    6    0    0  0.45451686189E+02 -0.24607999627E+02  0.15758388978E+03  0.16584357612E+03  0.00000000000E+00 0. -1.
         -5    1    3    3    0  503  0.48823751108E+02  0.18051796982E+02  0.24409067327E+02  0.57684647995E+02  0.47000000000E+01 0.  1.
         13    1    4    4    0    0 -0.58284079300E+02  0.13355334222E+02  0.59975911447E+01  0.60094674901E+02  0.00000000000E+00 0. -1.
        -14    1    4    4    0    0 -0.52032560792E+02  0.75503792694E+02  0.73079970319E+02  0.11725567004E+03  0.00000000000E+00 0.  1.
</event>
<event>
12    1  0.8494789E-002  0.1952404E+03  0.7818608E-02  0.1154554E+00
         21   -1    0    0  503  502  0.00000000000E+00  0.00000000000E+00  0.12825832501E+04  0.12825832501E+04  0.00000000000E+00 0.  1.
         21   -1    0    0  501  503 -0.00000000000E+00 -0.00000000000E+00 -0.39898827887E+02  0.39898827887E+02  0.00000000000E+00 0. -1.
          6    2    1    2  501    0 -0.79944688298E+02  0.38178177314E+02  0.27519811887E+03  0.33549243344E+03  0.17021293092E+03 0.  0.
         24    2    3    3    0    0 -0.46696624001E+02  0.68783551777E+02  0.90877177659E+02  0.14565454972E+03  0.77748535328E+02 0.  0.
         -6    2    1    2    0  502  0.79944688298E+02 -0.38178177314E+02  0.96748630329E+03  0.98698964450E+03  0.17398300171E+03 0.  0.
        -24    2    5    5    0    0  0.94445030273E+02  0.28997799877E+02  0.65858448088E+03  0.67050062776E+03  0.77954071273E+02 0.  0.
          5    1    3    3  501    0 -0.33248064298E+02 -0.30605374463E+02  0.18432094121E+03  0.18983788372E+03  0.47000000000E+01 0. -1.
        -13    1    4    4    0    0  0.10905838223E+02 -0.93630704501E+01  0.23269610632E+02  0.27351036078E+02  0.00000000000E+00 0.  1.
         14    1    4    4    0    0 -0.57602462224E+02  0.78146622227E+02  0.67607567027E+02  0.11830351364E+03  0.00000000000E+00 0. -1.
         -5    1    5    5    0  502 -0.14500341975E+02 -0.67175977192E+02  0.30890182241E+03  0.31648901674E+03  0.47000000000E+01 0.  1.
         13    1    6    6    0    0  0.78705749600E+02  0.50731127104E+02  0.57877179671E+03  0.58629773575E+03  0.00000000000E+00 0. -1.
        -14    1    6    6    0    0  0.15739280673E+02 -0.21733327227E+02  0.79812684173E+02  0.84202892013E+02  0.00000000000E+00 0.  1.
</event>
<event>
12    1  0.8494789E-002  0.1763345E+03  0.7818608E-02  0.1171644E+00
         21   -1    0    0  503  502  0.00000000000E+00  0.00000000000E+00  0.32767320032E+03  0.32767320032E+03  0.00000000000E+00 0.  1.
         21   -1    0    0  501  503 -0.00000000000E+00 -0.00000000000E+00 -0.95691855654E+02  0.95691855654E+02  0.00000000000E+00 0.  1.
          6    2    1    2  501    0 -0.16364664605E+02 -0.24284960630E+02  0.14060687743E+03  0.22476205373E+03  0.17288760874E+03 0.  0.
         24    2    3    3    0    0 -0.69372002217E+02  0.17626220134E+02  0.98838306800E+02  0.14518172698E+03  0.78648360625E+02 0.  0.
         -6    2    1    2    0  502  0.16364664605E+02  0.24284960630E+02  0.91374467234E+02  0.19860300224E+03  0.17388587544E+03 0.  0.
        -24    2    5    5    0    0 -0.37197522098E+02 -0.11136338245E+02  0.91810449133E+02  0.13421467769E+03  0.89870726372E+02 0.  0.
          5    1    3    3  501    0  0.53007337612E+02 -0.41911180764E+02  0.41768570634E+02  0.79580326755E+02  0.47000000000E+01 0. -1.
        -11    1    4    4    0    0 -0.23086110473E+01  0.36498760817E+02  0.31025488250E+02  0.47959046563E+02  0.00000000000E+00 0.  1.
         12    1    4    4    0    0 -0.67063391169E+02 -0.18872540683E+02  0.67812818551E+02  0.97222680413E+02  0.00000000000E+00 0. -1.
         -5    1    5    5    0  502  0.53562186703E+02  0.35421298875E+02 -0.43598189869E+00  0.64388324552E+02  0.47000000000E+01 0.  1.
         11    1    6    6    0    0 -0.36809071351E+02  0.34091577432E+02  0.33115745527E+02  0.60114856628E+02  0.00000000000E+00 0. -1.
        -12    1    6    6    0    0 -0.38845074639E+00 -0.45227915678E+02  0.58694703605E+02  0.74099821065E+02  0.00000000000E+00 0.  1.
</event>
<event>
12    1  0.8494789E-002  0.3176048E+03  0.7818608E-02  0.1076824E+00
         21   -1    0    0  503  502  0.00000000000E+00  0.00000000000E+00  0.29535870404E+03  0.29535870404E+03  0.00000000000E+00 0. -1.
         21   -1    0    0  501  503 -0.00000000000E+00 -0.00000000000E+00 -0.34134317951E+03  0.34134317951E+03  0.00000000000E+00 0. -1.
          6    2    1    2  501    0  0.71690848125E+02  0.25829933297E+03 -0.11576978726E+02  0.31723872492E+03  0.16925796594E+03 0.  0.
         24    2    3    3    0    0  0.10884443038E+02  0.19261612151E+03 -0.57376747831E+02  0.21658380940E+03  0.79981334934E+02 0.  0.
         -6    2    1    2    0  502 -0.71690848125E+02 -0.25829933297E+03 -0.34407496747E+02  0.31946315863E+03  0.17033705049E+03 0.  0.
        -24    2    5    5    0    0 -0.25291966401E+02 -0.15855208244E+03  0.42729893804E+02  0.18502121118E+03  0.81415958820E+02 0.  0.
          5    1    3    3  501    0  0.60806405087E+02  0.65683211463E+02  0.45799769105E+02  0.10065491552E+03  0.47000000000E+01 0. -1.
        -13    1    4    4    0    0  0.41036057350E+02  0.93078672780E+02 -0.47022633170E+02  0.11206571893E+03  0.00000000000E+00 0.  1.
         14    1    4    4    0    0 -0.30151614312E+02  0.99537448730E+02 -0.10354114661E+02  0.10451809047E+03  0.00000000000E+00 0. -1.
         -5    1    5    5    0  502 -0.46398881724E+02 -0.99747250536E+02 -0.77137390551E+02  0.13444194746E+03  0.47000000000E+01 0.  1.
         11    1    6    6    0    0 -0.10148009491E+02  0.26786375498E+01 -0.10214675015E+02  0.14645708635E+02  0.00000000000E+00 0. -1.
        -12    1    6    6    0    0 -0.15143956910E+02 -0.16123071999E+03  0.52944568820E+02  0.17037550254E+03  0.00000000000E+00 0.  1.
</event>
<event>
12    1  0.8494789E-002  0.2442475E+03  0.7818608E-02  0.1117140E+00
         21   -1    0    0  503  502  0.00000000000E+00  0.00000000000E+00  0.44281583381E+03  0.44281583381E+03  0.00000000000E+00 0. -1.
         21   -1    0    0  501  503 -0.00000000000E+00 -0.00000000000E+00 -0.13803335300E+03  0.13803335300E+03  0.00000000000E+00 0.  1.
          6    2    1    2  501    0 -0.60556911627E+02 -0.16245905207E+03  0.10391614084E+03  0.26461485808E+03  0.17076994947E+03 0.  0.
         24    2    3    3    0    0 -0.58770776546E+02 -0.50356313548E+02 -0.90967782268E+00  0.11105458808E+03  0.79640012120E+02 0.  0.
         -6    2    1    2    0  502  0.60556911627E+02  0.16245905207E+03  0.20086633997E+03  0.31623432873E+03  0.17203715003E+03 0.  0.
        -24    2    5    5    0    0  0.24890734217E+02  0.77630179433E+02  0.19235337704E+03  0.22370014920E+03  0.79974631497E+02 0.  0.
          5    1    3    3  501    0 -0.17861350813E+01 -0.11210273852E+03  0.10482581867E+03  0.15356027000E+03  0.47000000000E+01 0. -1.
        -13    1    4    4    0    0 -0.71303868472E+02 -0.16686481349E+02  0.90124520118E+01  0.73782820563E+02  0.00000000000E+00 0.  1.
         14    1    4    4    0    0  0.12533091927E+02 -0.33669832199E+02 -0.99221298345E+01  0.37271767519E+02  0.00000000000E+00 0. -1.
         -5    1    5    5    0  502  0.35666177410E+02  0.84828872639E+02  0.85129629292E+01  0.92534179534E+02  0.47000000000E+01 0.  1.
         13    1    6    6    0    0 -0.26851258121E+02  0.12763347723E+02  0.67882938836E+02  0.74107938123E+02  0.00000000000E+00 0. -1.
        -14    1    6    6    0    0  0.51741992338E+02  0.64866831710E+02  0.12447043821E+03  0.14959221107E+03  0.00000000000E+00 0.  1.
</event>
<event>
12    1  0.8494789E-002  0.1873235E+03  0.7818608E-02  0.1161206E+00
         21   -1    0    0  501  502  0.00000000000E+00  0.00000000000E+00  0.16205731125E+03  0.16205731125E+03  0.00000000000E+00 0. -1.
         21   -1    0    0  502  503 -0.00000000000E+00 -0.00000000000E+00 -0.21731398603E+03  0.21731398603E+03  0.00000000000E+00 0. -1.
         -6    2    1    2    0  503 -0.15651846341E+02 -0.68208241964E+02 -0.47166589482E+02  0.19187316771E+03  0.17231738379E+03 0.  0.
        -24    2    3    3    0    0  0.31391717477E+02 -0.52508321416E+02  0.19215700369E+02  0.10887748825E+03  0.87991480061E+02 0.  0.
          6    2    1    2  501    0  0.15651846341E+02  0.68208241964E+02 -0.80900852975E+01  0.18749812957E+03  0.17376062427E+03 0.  0.
         24    2    5    5    0    0  0.50234355186E+02  0.17700192461E+02 -0.55887633048E+02  0.10969254780E+03  0.77924580602E+02 0.  0.
          5    1    5    5  501    0 -0.34582508845E+02  0.50508049503E+02  0.47797547751E+02  0.77805581764E+02  0.47000000000E+01 0. -1.
        -13    1    6    6    0    0 -0.11152597488E+02 -0.11452262340E+02 -0.35193855301E+02  0.38654135541E+02  0.00000000000E+00 0.  1.
         14    1    6    6    0    0  0.61386952674E+02  0.29152454801E+02 -0.20693777747E+02  0.71038412264E+02  0.00000000000E+00 0. -1.
         -5    1    3    3    0  503 -0.47043563818E+02 -0.15699920548E+02 -0.66382289851E+02  0.82995679453E+02  0.47000000000E+01 0.  1.
         13    1    4    4    0    0 -0.18153891964E+02 -0.47404277215E+02 -0.91190906744E+01  0.51574093365E+02  0.00000000000E+00 0. -1.
        -14    1    4    4    0    0  0.49545609441E+02 -0.51040442012E+01  0.28334791044E+02  0.57303394887E+02  0.00000000000E+00 0.  1.
</event>
<event>
12    1  0.8494789E-002  0.1761085E+03  0.7818608E-02  0.1171775E+00
         21   -1    0    0  503  502  0.00000000000E+00  0.00000000000E+00  0.58979837174E+02  0.58979837174E+02  0.00000000000E+00 0.  1.
         21   -1    0    0  501  503 -0.00000000000E+00 -0.00000000000E+00 -0.63645718296E+03  0.63645718296E+03  0.00000000000E+00 0.  1.
          6    2    1    2  501    0  0.34258398025E+02  0.16387101936E+02 -0.43529422424E+03  0.46956922533E+03  0.17196517314E+03 0.  0.
         24    2    3    3    0    0  0.48011880925E+02  0.57084061729E+02 -0.39716455398E+03  0.41193796140E+03  0.79934162204E+02 0.  0.
         -6    2    1    2    0  502 -0.34258398025E+02 -0.16387101936E+02 -0.14218312155E+03  0.22586779481E+03  0.17134189719E+03 0.  0.
        -24    2    5    5    0    0 -0.70409910751E+02  0.34276341391E+02 -0.74996630924E+02  0.13416266472E+03  0.79010776757E+02 0.  0.
          5    1    3    3  501    0 -0.13753482900E+02 -0.40696959793E+02 -0.38129670261E+02  0.57631263933E+02  0.47000000000E+01 0. -1.
        -13    1    4    4    0    0  0.51346270365E+02  0.97160944750E-02 -0.16304768009E+03  0.17094146822E+03  0.00000000000E+00 0.  1.
         14    1    4    4    0    0 -0.33343894393E+01  0.57074345635E+02 -0.23411687389E+03  0.24099649318E+03  0.00000000000E+00 0. -1.
         -5    1    5    5    0  502  0.36151512726E+02 -0.50663443327E+02 -0.67186490624E+02  0.91705130088E+02  0.47000000000E+01 0.  1.
         11    1    6    6    0    0 -0.10466428290E+01 -0.10540817362E+02  0.10766152241E+02  0.15103454107E+02  0.00000000000E+00 0. -1.
        -12    1    6    6    0    0 -0.69363267922E+02  0.44817158753E+02 -0.85762783166E+02  0.11905921061E+03  0.00000000000E+00 0.  1.
</event>
<event>
12    1  0.8494789E-002  0.2495933E+03  0.7818608E-02  0.1113761E+00
         21   -1    0    0  503  502  0.00000000000E+00  0.00000000000E+00  0.57018483970E+02  0.57018483970E+02  0.00000000000E+00 0. -1.
         21   -1    0    0  501  503 -0.00000000000E+00 -0.00000000000E+00 -0.10871241709E+04  0.10871241709E+04  0.00000000000E+00 0. -1.
          6    2    1    2  501    0  0.13658884104E+03  0.11618770165E+03 -0.51037775946E+03  0.56758917985E+03  0.17180199713E+03 0.  0.
         24    2    3    3    0    0  0.89901557438E+02  0.62620692054E+02 -0.16082417592E+03  0.21085549104E+03  0.81191018205E+02 0.  0.
         -6    2    1    2    0  502 -0.13658884104E+03 -0.11618770165E+03 -0.51972792746E+03  0.57655347501E+03  0.17361076423E+03 0.  0.
        -24    2    5    5    0    0 -0.13753236738E+03 -0.13957322859E+03 -0.37889197708E+03  0.43370870601E+03  0.78410924967E+02 0.  0.
          5    1    3    3  501    0  0.46687283604E+02  0.53567009593E+02 -0.34955358354E+03  0.35673368881E+03  0.47000000000E+01 0. -1.
        -11    1    4    4    0    0  0.17922293963E+01 -0.55970946466E+01  0.71659996094E+01  0.92677454159E+01  0.00000000000E+00 0.  1.
         12    1    4    4    0    0  0.88109328042E+02  0.68217786701E+02 -0.16799017553E+03  0.20158774562E+03  0.00000000000E+00 0. -1.
         -5    1    5    5    0  502  0.94352633908E+00  0.23385526946E+02 -0.14083595038E+03  0.14284476900E+03  0.47000000000E+01 0.  1.
         13    1    6    6    0    0 -0.63560825693E+02 -0.13646797182E+02 -0.11658817570E+03  0.13348788840E+03  0.00000000000E+00 0. -1.
        -14    1    6    6    0    0 -0.73971541689E+02 -0.12592643141E+03 -0.26230380138E+03  0.30022081761E+03  0.00000000000E+00 0.  1.
</event>
<event>
12    1  0.8494789E-002  0.2193275E+03  0.7818608E-02  0.1134608E+00
         21   -1    0    0  501  502  0.00000000000E+00  0.00000000000E+00  0.11494759147E+03  0.11494759147E+03  0.00000000000E+00 0. -1.
         21   -1    0    0  502  503 -0.00000000000E+00 -0.00000000000E+00 -0.66534998270E+03  0.66534998270E+03  0.00000000000E+00 0.  1.
         -6    2    1    2    0  503  0.12732748762E+03  0.41331881862E+02 -0.51439536429E+03  0.55920222255E+03  0.17373520467E+03 0.  0.
        -24    2    3    3    0    0  0.14285482683E+03 -0.17593553215E+01 -0.45864761668E+03  0.48689831983E+03  0.79383503899E+02 0.  0.
          6    2    1    2  501    0 -0.12732748762E+03 -0.41331881862E+02 -0.36007026940E+02  0.22109535162E+03  0.17223830862E+03 0.  0.
         24    2    5    5    0    0 -0.11544678833E+03 -0.15796567947E+02  0.33248253467E+02  0.14618482408E+03  0.81774469965E+02 0.  0.
          5    1    5    5  501    0 -0.11880699294E+02 -0.25535313916E+02 -0.69255280407E+02  0.74910527543E+02  0.47000000000E+01 0. -1.
        -11    1    6    6    0    0 -0.66740401434E+02 -0.44411259463E+02 -0.90799623452E+00  0.80171476273E+02  0.00000000000E+00 0.  1.
         12    1    6    6    0    0 -0.48706386894E+02  0.28614691516E+02  0.34156249701E+02  0.66013347805E+02  0.00000000000E+00 0. -1.
         -5    1    3    3    0  503 -0.15527339206E+02  0.43091237184E+02 -0.55747747609E+02  0.72303902718E+02  0.47000000000E+01 0.  1.
         13    1    4    4    0    0  0.38878161330E+02  0.23182879822E+02 -0.23095113198E+03  0.23534524153E+03  0.00000000000E+00 0. -1.
        -14    1    4    4    0    0  0.10397666550E+03 -0.24942235144E+02 -0.22769648470E+03  0.25155307831E+03  0.00000000000E+00 0.  1.
</event>
<event>
12    1  0.8494789E-002  0.2013627E+03  0.7818608E-02  0.1148663E+00
         21   -1    0    0  503  502  0.00000000000E+00  0.00000000000E+00  0.44742500198E+02  0.44742500198E+02  0.00000000000E+00 0. -1.
         21   -1    0    0  501  503 -0.00000000000E+00 -0.00000000000E+00 -0.96748277746E+03  0.96748277746E+03  0.00000000000E+00 0. -1.
          6    2    1    2  501    0 -0.41137190428E+01  0.10276964226E+03 -0.59058762302E+03  0.62397168702E+03  0.17311384602E+03 0.  0.
         24    2    3    3    0    0 -0.28928528065E+02  0.10510487326E+03 -0.58195217718E+03  0.59717823679E+03  0.77907739317E+02 0.  0.
         -6    2    1    2    0  502  0.41137190428E+01 -0.10276964226E+03 -0.33215265424E+03  0.38825359064E+03  0.17273373402E+03 0.  0.
        -24    2    5    5    0    0 -0.57998007048E+02 -0.43038143959E+02 -0.13069422815E+03  0.16908857096E+03  0.79334184938E+02 0.  0.
          5    1    3    3  501    0  0.24814809022E+02 -0.23352309995E+01 -0.86354458390E+01  0.26793450235E+02  0.47000000000E+01 0. -1.
        -13    1    4    4    0    0 -0.23132316360E+02  0.80333312850E+02 -0.23741475572E+03  0.25170282367E+03  0.00000000000E+00 0.  1.
         14    1    4    4    0    0 -0.57962117049E+01  0.24771560414E+02 -0.34453742147E+03  0.34547541311E+03  0.00000000000E+00 0. -1.
         -5    1    5    5    0  502  0.62111726091E+02 -0.59731498306E+02 -0.20145842609E+03  0.21916501968E+03  0.47000000000E+01 0.  1.
         11    1    6    6    0    0 -0.60328888948E+02 -0.62887893408E+02 -0.10970643506E+03  0.14010697296E+03  0.00000000000E+00 0. -1.
        -12    1    6    6    0    0  0.23308818998E+01  0.19849749449E+02 -0.20987793091E+02  0.28981597996E+02  0.00000000000E+00 0.  1.
</event>
<event>
12    1  0.8494789E-002  0.2211166E+03  0.7818608E-02  0.1133130E+00
         21   -1    0    0  501  502  0.00000000000E+00  0.00000000000E+00  0.13228208068E+03  0.13228208068E+03  0.00000000000E+00 0.  1.
         21   -1    0    0  502  503 -0.00000000000E+00 -0.00000000000E+00 -0.45218506310E+03  0.45218506310E+03  0.00000000000E+00 0.  1.
         -6    2    1    2    0  503  0.10400769757E+03 -0.92814301862E+02 -0.28523326085E+03  0.36064906497E+03  0.17110709858E+03 0.  0.
        -24    2    3    3    0    0  0.42023390993E+02 -0.66532172197E+01 -0.21718972766E+03  0.23448330425E+03  0.77464904852E+02 0.  0.
          6    2    1    2  501    0 -0.10400769757E+03  0.92814301862E+02 -0.34669721568E+02  0.22381807882E+03  0.17164045860E+03 0.  0.
         24    2    5    5    0    0 -0.41812284939E+02  0.33487523558E+02  0.45768418516E+02  0.10600330743E+03  0.79197674510E+02 0.  0.
          5    1    5    5  501    0 -0.62195412628E+02  0.59326778304E+02 -0.80438140084E+02  0.11781477138E+03  0.47000000000E+01 0. -1.
        -13    1    6    6    0    0 -0.25277773317E+02  0.53010956167E+02  0.64342271982E+01  0.59080678544E+02  0.00000000000E+00 0.  1.
         14    1    6    6    0    0 -0.16534511622E+02 -0.19523432609E+02  0.39334191317E+02  0.46922628890E+02  0.00000000000E+00 0. -1.
         -5    1    3    3    0  503  0.61984306574E+02 -0.86161084642E+02 -0.68043533194E+02  0.12616576072E+03  0.47000000000E+01 0.  1.
         13    1    4    4    0    0 -0.45543161349E+01 -0.15083194451E+01  0.52786349255E+01  0.71330785557E+01  0.00000000000E+00 0. -1.
        -14    1    4    4    0    0  0.46577707127E+02 -0.51448977746E+01 -0.22246836258E+03  0.22735022570E+03  0.00000000000E+00 0.  1.
</event>
<event>
12    1  0.8494789E-002  0.2096874E+03  0.7818608E-02  0.1142062E+00
         21   -1    0    0  503  502  0.00000000000E+00  0.00000000000E+00  0.19239952653E+03  0.19239952653E+03  0.00000000000E+00 0.  1.
         21   -1    0    0  501  503 -0.00000000000E+00 -0.00000000000E+00 -0.23307462436E+03  0.23307462436E+03  0.00000000000E+00 0.  1.
          6    2    1    2  501    0 -0.89022474082E+02 -0.79938244015E+02 -0.54252555078E+02  0.21659209457E+03  0.17220241563E+03 0.  0.
         24    2    3    3    0    0 -0.85139090757E+01 -0.83355514227E+02 -0.64389023307E+02  0.13524011387E+03  0.84399725583E+02 0.  0.
         -6    2    1    2    0  502  0.89022474082E+02  0.79938244015E+02  0.13577457247E+02  0.20888205632E+03  0.17068169895E+03 0.  0.
        -24    2    5    5    0    0  0.61122457372E+02  0.10663317798E+03  0.49230632696E+02  0.15611588011E+03  0.82715919775E+02 0.  0.
          5    1    3    3  501    0 -0.80508565007E+02  0.34172702120E+01  0.10136468229E+02  0.81351980697E+02  0.47000000000E+01 0. -1.
        -11    1    4    4    0    0  0.91030374402E+01 -0.82296246541E+02 -0.77378263494E+02  0.11332666565E+03  0.00000000000E+00 0.  1.
         12    1    4    4    0    0 -0.17616946516E+02 -0.10592676860E+01  0.12989240187E+02  0.21913448227E+02  0.00000000000E+00 0. -1.
         -5    1    5    5    0  502  0.27900016711E+02 -0.26694933970E+02 -0.35653175449E+02  0.52766176209E+02  0.47000000000E+01 0.  1.
         11    1    6    6    0    0 -0.15531329717E+02 -0.14919610319E+01  0.47051383406E+01  0.16296824147E+02  0.00000000000E+00 0. -1.
        -12    1    6    6    0    0  0.76653787088E+02  0.10812513902E+03  0.44525494355E+02  0.13981905596E+03  0.00000000000E+00 0.  1.
</event>
<event>
12    1  0.8494789E-002  0.2514383E+03  0.7818608E-02  0.1112727E+00
         21   -1    0    0  501  502  0.00000000000E+00  0.00000000000E+00  0.14615792623E+03  0.14615792623E+03  0.00000000000E+00 0.  1.
         21   -1    0    0  502  503 -0.00000000000E+00 -0.00000000000E+00 -0.46258810883E+03  0.46258810883E+03  0.00000000000E+00 0. -1.
         -6    2    1    2    0  503 -0.17315153912E+03  0.50722090664E+02 -0.75570172827E+02  0.26055820797E+03  0.17212072141E+03 0.  0.
        -24    2    3    3    0    0 -0.32967963950E+02  0.65761348639E+02 -0.29956790956E+02  0.11230071361E+03  0.79388911892E+02 0.  0.
          6    2    1    2  501    0  0.17315153912E+03 -0.50722090664E+02 -0.24086000978E+03  0.34818782709E+03  0.17512005209E+03 0.  0.
         24    2    5    5    0    0  0.19066020969E+03 -0.26861025039E+02 -0.24079571570E+03  0.31822121014E+03  0.78799312527E+02 0.  0.
          5    1    5    5  501    0 -0.17508670571E+02 -0.23861065626E+02 -0.64294074577E-01  0.29966616954E+02  0.47000000000E+01 0. -1.
        -13    1    6    6    0    0  0.78616959251E+02  0.25629610805E+02 -0.77374464143E+02  0.11324447418E+03  0.00000000000E+00 0.  1.
         14    1    6    6    0    0  0.11204325044E+03 -0.52490635844E+02 -0.16342125156E+03  0.20497673595E+03  0.00000000000E+00 0. -1.
         -5    1    3    3    0  503 -0.14018357517E+03 -0.15039257975E+02 -0.45613381871E+02  0.14825749436E+03  0.47000000000E+01 0.  1.
         13    1    4    4    0    0 -0.15007987605E+01 -0.14440702647E+02  0.96968282568E+01  0.17458945217E+02  0.00000000000E+00 0. -1.
        -14    1    4    4    0    0 -0.31467165190E+02  0.80202051286E+02 -0.39653619213E+02  0.94841768394E+02  0.00000000000E+00 0.  1.
</event>
<event>
12    1  0.8494789E-002  0.1778560E+03  0.7818608E-02  0.1169943E+00
         21   -1    0    0  501  502  0.00000000000E+00  0.00000000000E+00  0.16758211977E+03  0.16758211977E+03  0.00000000000E+00 0.  1.
         21   -1    0    0  502  503 -0.00000000000E+00 -0.00000000000E+00 -0.21752936561E+03  0.21752936561E+03  0.00000000000E+00 0.  1.
         -6    2    1    2    0  503  0.36572758366E+02  0.29983043743E+02 -0.95265763946E+02  0.20176306561E+03  0.17145325688E+03 0.  0.
        -24    2    3    3    0    0 -0.11390018720E+02 -0.97685844994E+01 -0.11112980051E+03  0.13730860424E+03  0.79238011504E+02 0.  0.
          6    2    1    2  501    0 -0.36572758366E+02 -0.29983043743E+02  0.45318518103E+02  0.18334841977E+03  0.17124930768E+03 0.  0.
         24    2    5    5    0    0 -0.33795643303E+02 -0.74658150544E+02 -0.35199043988E+01  0.11693412125E+03  0.83337950752E+02 0.  0.
          5    1    5    5  501    0 -0.27771150627E+01  0.44675106801E+02  0.48838422502E+02  0.66414298522E+02  0.47000000000E+01 0. -1.
        -13    1    6    6    0    0  0.21576167782E+02 -0.52428031632E+02 -0.72194906111E+01  0.57151995255E+02  0.00000000000E+00 0.  1.
         14    1    6    6    0    0 -0.55371811085E+02 -0.22230118911E+02  0.36995862124E+01  0.59782125990E+02  0.00000000000E+00 0. -1.
         -5    1    3    3    0  503  0.47962777086E+02  0.39751628242E+02  0.15864036567E+02  0.64454461365E+02  0.47000000000E+01 0.  1.
         13    1    4    4    0    0  0.31027096677E+02  0.11263639874E+02 -0.39971387850E+02  0.51838809382E+02  0.00000000000E+00 0. -1.
        -14    1    4    4    0    0 -0.42417115397E+02 -0.21032224374E+02 -0.71158412663E+02  0.85469794860E+02  0.00000000000E+00 0.  1.
</event>
<event>
12    1  0.8494789E-002  0.1872051E+03  0.7818608E-02  0.1162167E+00
         21   -1    0    0  501  502  0.00000000000E+00  0.00000000000E+00  0.88417295093E+03  0.88417295093E+03  0.00000000000E+00 0. -1.
         21   -1    0    0  502  503 -0.00000000000E+00 -0.00000000000E+00 -0.51301459074E+02  0.51301459074E+02  0.00000000000E+00 0. -1.
         -6    2    1    2    0  503  0.19921219287E+02  0.71058187784E+02  0.18784427305E+03  0.26520036938E+03  0.17204547065E+03 0.  0.
        -24    2    3    3    0    0  0.84366285569E+01 -0.27494755883E+02  0.11411262686E+03  0.14149497669E+03  0.78562067939E+02 0.  0.
          6    2    1    2  501    0 -0.19921219287E+02 -0.71058187784E+02  0.64502721880E+03  0.67027404062E+03  0.16661649229E+03 0.  0.
         24    2    5    5    0    0 -0.67390028153E+02 -0.11585058928E+02  0.40775700064E+03  0.42105608923E+03  0.79666989505E+02 0.  0.
          5    1    5    5  501    0  0.47468808866E+02 -0.59473128856E+02  0.23727021816E+03  0.24921795139E+03  0.47000000000E+01 0. -1.
        -11    1    6    6    0    0 -0.32915030617E+01  0.13909995077E+02  0.10203939356E+02  0.17562526408E+02  0.00000000000E+00 0.  1.
         12    1    6    6    0    0 -0.64098525092E+02 -0.25495054005E+02  0.39755306129E+03  0.40349356282E+03  0.00000000000E+00 0. -1.
         -5    1    3    3    0  503  0.11484590731E+02  0.98552943667E+02  0.73731646198E+02  0.12370539269E+03  0.47000000000E+01 0.  1.
         13    1    4    4    0    0 -0.60124969108E+01  0.29980014044E+01 -0.10460810385E+02  0.12432485086E+02  0.00000000000E+00 0. -1.
        -14    1    4    4    0    0  0.14449125468E+02 -0.30492757287E+02  0.12457343724E+03  0.12906249161E+03  0.00000000000E+00 0.  1.
</event>
<event>
12    1  0.8494789E-002  0.1913182E+03  0.7818608E-02  0.1157446E+00
         21   -1    0    0  501  502  0.00000000000E+00  0.00000000000E+00  0.73736502095E+02  0.73736502095E+02  0.00000000000E+00 0.  1.
         21   -1    0    0  502  503 -0.00000000000E+00 -0.00000000000E+00 -0.53869220326E+03  0.53869220326E+03  0.00000000000E+00 0.  1.
         -6    2    1    2    0  503  0.79815318638E+02 -0.24180521926E+02 -0.31981465185E+03  0.37228589446E+03  0.17134816294E+03 0.  0.
        -24    2    3    3    0    0  0.44525201390E+02 -0.41344205207E+02 -0.79789961685E+02  0.12902898029E+03  0.81180064714E+02 0.  0.
          6    2    1    2  501    0 -0.79815318638E+02  0.24180521926E+02 -0.14514104931E+03  0.24014281090E+03  0.17218438576E+03 0.  0.
         24    2    5    5    0    0 -0.90572274056E+02 -0.14103030196E+02 -0.41189114904E+02  0.12874515778E+03  0.80476954317E+02 0.  0.
          5    1    5    5  501    0  0.10756955419E+02  0.38283552122E+02 -0.10395193441E+03  0.11139765312E+03  0.47000000000E+01 0. -1.
        -13    1    6    6    0    0 -0.93359280447E+02 -0.15570680773E+02 -0.58421595052E+02  0.11122717345E+03  0.00000000000E+00 0.  1.
         14    1    6    6    0    0  0.27870063911E+01  0.14676505769E+01  0.17232480148E+02  0.17517984327E+02  0.00000000000E+00 0. -1.
         -5    1    3    3    0  503  0.35290117247E+02  0.17163683281E+02 -0.24002469017E+03  0.24325691417E+03  0.47000000000E+01 0.  1.
         13    1    4    4    0    0 -0.20010544796E+02 -0.22158710453E+02 -0.42872897865E+02  0.52244767426E+02  0.00000000000E+00 0. -1.
        -14    1    4    4    0    0  0.64535746187E+02 -0.19185494753E+02 -0.36917063820E+02  0.76784212869E+02  0.00000000000E+00 0.  1.
</event>
<event>
12    1  0.8494789E-002  0.2389628E+03  0.7818608E-02  0.1120754E+00
         21   -1    0    0  503  502  0.00000000000E+00  0.00000000000E+00  0.43101182297E+03  0.43101182297E+03  0.00000000000E+00 0. -1.
         21   -1    0    0  501  503 -0.00000000000E+00 -0.00000000000E+00 -0.13939792261E+03  0.13939792261E+03  0.00000000000E+00 0.  1.
          6    2    1    2  501    0 -0.13882394116E+03 -0.89422200160E+02  0.77895886041E+02  0.24981870623E+03  0.17050865197E+03 0.  0.
         24    2    3    3    0    0 -0.16963728778E+03 -0.69639473818E+02  0.68039526476E+02  0.21160802166E+03  0.80759593545E+02 0.  0.
         -6    2    1    2    0  502  0.13882394116E+03  0.89422200160E+02  0.21371801432E+03  0.32059103935E+03  0.17272755526E+03 0.  0.
        -24    2    5    5    0    0  0.10731792450E+03 -0.87686614019E+01  0.15584084218E+03  0.20224438145E+03  0.70868860564E+02 0.  0.
          5    1    3    3  501    0  0.30813346617E+02 -0.19782726342E+02  0.98563595652E+01  0.38210684568E+02  0.47000000000E+01 0. -1.
        -13    1    4    4    0    0 -0.96347989505E+02 -0.18143602498E+01  0.12024499532E+02  0.97112386305E+02  0.00000000000E+00 0.  1.
         14    1    4    4    0    0 -0.73289298270E+02 -0.67825113569E+02  0.56015026944E+02  0.11449563535E+03  0.00000000000E+00 0. -1.
         -5    1    5    5    0  502  0.31506016657E+02  0.98190861562E+02  0.57877172148E+02  0.11834665790E+03  0.47000000000E+01 0.  1.
         11    1    6    6    0    0  0.14188590703E+02 -0.39297625705E+01  0.81955337732E+02  0.83267259609E+02  0.00000000000E+00 0. -1.
        -12    1    6    6    0    0  0.93129333798E+02 -0.48388988314E+01  0.73885504444E+02  0.11897712185E+03  0.00000000000E+00 0.  1.
</event>
<event>
12    1  0.8494789E-002  0.2297360E+03  0.7818608E-02  0.1126832E+00
         21   -1    0    0  501  502  0.00000000000E+00  0.00000000000E+00  0.89909410763E+02  0.89909410763E+02  0.00000000000E+00 0.  1.
         21   -1    0    0  502  503 -0.00000000000E+00 -0.00000000000E+00 -0.69743061634E+03  0.69743061634E+03  0.00000000000E+00 0.  1.
         -6    2    1    2    0  503  0.87936066517E+02  0.12326534612E+03 -0.46047582667E+03  0.51460333787E+03  0.17277589833E+03 0.  0.
        -24    2    3    3    0    0  0.14479531907E+02 -0.20297307503E+01 -0.12529222457E+03  0.14927491592E+03  0.79819059963E+02 0.  0.
          6    2    1    2  501    0 -0.87936066517E+02 -0.12326534612E+03 -0.14704537891E+03  0.27273668924E+03  0.17273060195E+03 0.  0.
         24    2    5    5    0    0 -0.19638327865E+02 -0.10372651751E+03 -0.15120571647E+03  0.20142227739E+03  0.81011794094E+02 0.  0.
          5    1    5    5  501    0 -0.68297738652E+02 -0.19538828614E+02  0.41603375605E+01  0.71314411848E+02  0.47000000000E+01 0. -1.
        -11    1    6    6    0    0 -0.38131833192E+02 -0.84678911475E+02 -0.14794041892E+03  0.17467375963E+03  0.00000000000E+00 0.  1.
         12    1    6    6    0    0  0.18493505327E+02 -0.19047606030E+02 -0.32652975489E+01  0.26748517769E+02  0.00000000000E+00 0. -1.
         -5    1    3    3    0  503  0.73456534610E+02  0.12529507687E+03 -0.33518360210E+03  0.36532842195E+03  0.47000000000E+01 0.  1.
         11    1    4    4    0    0 -0.20566480159E+02 -0.19738583498E+01 -0.16103625396E+01  0.20723645684E+02  0.00000000000E+00 0. -1.
        -12    1    4    4    0    0  0.35046012066E+02 -0.55872400509E-01 -0.12368186203E+03  0.12855127023E+03  0.00000000000E+00 0.  1.
</event>
<event>
12    1  0.8494789E-002  0.2312837E+03  0.7818608E-02  0.1126860E+00
         21   -1    0    0  501  502  0.00000000000E+00  0.00000000000E+00  0.80174087772E+02  0.80174087772E+02  0.00000000000E+00 0.  1.
         21   -1    0    0  502  503 -0.00000000000E+00 -0.00000000000E+00 -0.88741363812E+03  0.88741363812E+03  0.00000000000E+00 0. -1.
         -6    2    1    2    0  503  0.15381713342E+03  0.24066220703E+02 -0.65022442507E+03  0.68804187283E+03  0.16239126300E+03 0.  0.
        -24    2    3    3    0    0  0.41508158102E+02  0.56727525369E+02 -0.30543801963E+03  0.32392675074E+03  0.81824303761E+02 0.  0.
          6    2    1    2  501    0 -0.15381713342E+03 -0.24066220703E+02 -0.15701512528E+03  0.27954585306E+03  0.17103578831E+03 0.  0.
         24    2    5    5    0    0 -0.74568549438E+02 -0.13485010802E+02 -0.16573206134E+03  0.19898298915E+03  0.79904941865E+02 0.  0.
          5    1    5    5  501    0 -0.79248583986E+02 -0.10581209901E+02  0.87169360601E+01  0.80562863908E+02  0.47000000000E+01 0. -1.
        -11    1    6    6    0    0 -0.74993743608E+02 -0.86041185158E+01 -0.69442217719E+02  0.10256858212E+03  0.00000000000E+00 0.  1.
         12    1    6    6    0    0  0.42519416940E+00 -0.48808922865E+01 -0.96289843617E+02  0.96414407032E+02  0.00000000000E+00 0. -1.
         -5    1    3    3    0  503  0.11230897532E+03 -0.32661304665E+02 -0.34478640544E+03  0.36411512210E+03  0.47000000000E+01 0.  1.
         13    1    4    4    0    0  0.62470333509E+02  0.42324784364E+02 -0.16818199541E+03  0.18433424402E+03  0.00000000000E+00 0. -1.
        -14    1    4    4    0    0 -0.20962175407E+02  0.14402741005E+02 -0.13725602422E+03  0.13959250672E+03  0.00000000000E+00 0.  1.
</event>
<event>
12    1  0.8494789E-002  0.1816164E+03  0.7818608E-02  0.1166584E+00
         21   -1    0    0  503  502  0.00000000000E+00  0.00000000000E+00  0.40153259221E+03  0.40153259221E+03  0.00000000000E+00 0. -1.
         21   -1    0    0  501  503 -0.00000000000E+00 -0.00000000000E+00 -0.84430413406E+02  0.84430413406E+02  0.00000000000E+00 0. -1.
          6    2    1    2  501    0 -0.47998384864E+02 -0.34388140844E+02  0.11398875821E+03  0.21442467266E+03  0.17175015012E+03 0.  0.
         24    2    3    3    0    0 -0.51312176653E+02  0.68788713675E+01  0.25679617574E+01  0.95468246200E+02  0.80170650869E+02 0.  0.
         -6    2    1    2    0  502  0.47998384864E+02  0.34388140844E+02  0.20311342059E+03  0.27153833296E+03  0.17026924403E+03 0.  0.
        -24    2    5    5    0    0  0.61893070305E+02  0.76765079576E+02  0.18147940169E+03  0.22174889639E+03  0.80710409603E+02 0.  0.
          5    1    3    3  501    0  0.33137917889E+01 -0.41267012211E+02  0.11142079645E+03  0.11895642646E+03  0.47000000000E+01 0. -1.
        -13    1    4    4    0    0  0.11627822321E+02  0.17183421666E+02  0.20551429223E+02  0.29203381228E+02  0.00000000000E+00 0.  1.
         14    1    4    4    0    0 -0.62939998974E+02 -0.10304550298E+02 -0.17983467465E+02  0.66264864972E+02  0.00000000000E+00 0. -1.
         -5    1    5    5    0  502 -0.13894685441E+02 -0.42376938732E+02  0.21634018899E+02  0.49789436566E+02  0.47000000000E+01 0.  1.
         11    1    6    6    0    0  0.59177741409E+02  0.58122372738E+02  0.69555628529E+02  0.10825063857E+03  0.00000000000E+00 0. -1.
        -12    1    6    6    0    0  0.27153288960E+01  0.18642706838E+02  0.11192377316E+03  0.11349825782E+03  0.00000000000E+00 0.  1.
</event>
<event>
12    1  0.8494789E-002  0.1836392E+03  0.7818608E-02  0.1165914E+00
         21   -1    0    0  501  502  0.00000000000E+00  0.00000000000E+00  0.17095587994E+03  0.17095587994E+03  0.00000000000E+00 0.  1.
         21   -1    0    0  502  503 -0.00000000000E+00 -0.00000000000E+00 -0.20711627610E+03  0.20711627610E+03  0.00000000000E+00 0.  1.
         -6    2    1    2    0  503 -0.60624110629E+02 -0.22735303881E+02 -0.71739895670E+02  0.19101795987E+03  0.16476975307E+03 0.  0.
        -24    2    3    3    0    0 -0.80812411997E+00  0.34644072421E+01  0.17074748421E+02  0.80679806400E+02  0.78772006100E+02 0.  0.
          6    2    1    2  501    0  0.60624110629E+02  0.22735303881E+02  0.35579499514E+02  0.18705419618E+03  0.17184642763E+03 0.  0.
         24    2    5    5    0    0  0.99316830762E+02  0.48639215309E+02  0.21201298452E+02  0.13809541878E+03  0.79945253099E+02 0.  0.
          5    1    5    5  501    0 -0.38692720133E+02 -0.25903911428E+02  0.14378201063E+02  0.48958777398E+02  0.47000000000E+01 0. -1.
        -13    1    6    6    0    0  0.77776104296E+02  0.42331693345E+02 -0.20360110419E+02  0.90860490629E+02  0.00000000000E+00 0.  1.
         14    1    6    6    0    0  0.21540726465E+02  0.63075219639E+01  0.41561408871E+02  0.47234928150E+02  0.00000000000E+00 0. -1.
         -5    1    3    3    0  503 -0.59815986509E+02 -0.26199711123E+02 -0.88814644091E+02  0.11033815346E+03  0.47000000000E+01 0.  1.
         11    1    4    4    0    0  0.78712764409E+01  0.39530013753E+02  0.16575241573E+02  0.43581161221E+02  0.00000000000E+00 0. -1.
        -12    1    4    4    0    0 -0.86794005609E+01 -0.36065606511E+02  0.49950684742E+00  0.37098645180E+02  0.00000000000E+00 0.  1.
</event>
<event>
12    1  0.8494789E-002  0.3552924E+03  0.7818608E-02  0.1060512E+00
         21   -1    0    0  501  502  0.00000000000E+00  0.00000000000E+00  0.14764522512E+03  0.14764522512E+03  0.00000000000E+00 0.  1.
         21   -1    0    0  502  503 -0.00000000000E+00 -0.00000000000E+00 -0.14197869373E+04  0.14197869373E+04  0.00000000000E+00 0.  1.
         -6    2    1    2    0  503  0.28470815687E+03 -0.12331550089E+03 -0.11311387681E+04  0.11856254069E+04  0.17311050060E+03 0.  0.
        -24    2    3    3    0    0  0.53169985144E+02 -0.18514395557E+02 -0.25953286437E+03  0.27770903516E+03  0.81210654204E+02 0.  0.
          6    2    1    2  501    0 -0.28470815687E+03  0.12331550089E+03 -0.14100294402E+03  0.38180675547E+03  0.17213111558E+03 0.  0.
         24    2    5    5    0    0 -0.14640253572E+03  0.13326210656E+03 -0.10850976541E+03  0.23931017143E+03  0.79388270243E+02 0.  0.
          5    1    5    5  501    0 -0.13830562115E+03 -0.99466056679E+01 -0.32493178604E+02  0.14249658404E+03  0.47000000000E+01 0. -1.
        -13    1    6    6    0    0 -0.10205277216E+03  0.64727879671E+02 -0.10069960931E+03  0.15730504768E+03  0.00000000000E+00 0.  1.
         14    1    6    6    0    0 -0.44349763562E+02  0.68534226886E+02 -0.78101561043E+01  0.82005123750E+02  0.00000000000E+00 0. -1.
         -5    1    3    3    0  503  0.23153817172E+03 -0.10480110533E+03 -0.87160590376E+03  0.90791637176E+03  0.47000000000E+01 0.  1.
         11    1    4    4    0    0  0.70641488721E+02 -0.22764242801E+02 -0.23975240999E+03  0.25097738698E+03  0.00000000000E+00 0. -1.
        -12    1    4    4    0    0 -0.17471503577E+02  0.42498472441E+01 -0.19780454386E+02  0.26731648183E+02  0.00000000000E+00 0.  1.
</event>
<event>
12    1  0.8494789E-002  0.1752688E+03  0.7818608E-02  0.1173203E+00
         21   -1    0    0  503  502  0.00000000000E+00  0.00000000000E+00  0.69965269376E+02  0.69965269376E+02  0.00000000000E+00 0.  1.
         21   -1    0    0  501  503 -0.00000000000E+00 -0.00000000000E+00 -0.60726882388E+03  0.60726882388E+03  0.00000000000E+00 0.  1.
          6    2    1    2  501    0 -0.55166860482E+01 -0.30676024986E+02 -0.45230055629E+03  0.48507210017E+03  0.17247520636E+03 0.  0.
         24    2    3    3    0    0 -0.22326589054E+02 -0.81223830586E+02 -0.25140680177E+03  0.27718260045E+03  0.80802393408E+02 0.  0.
         -6    2    1    2    0  502  0.55166860482E+01  0.30676024986E+02 -0.85002998209E+02  0.19216199308E+03  0.16949710778E+03 0.  0.
        -24    2    5    5    0    0  0.40789540335E+02  0.32796617703E+02  0.86778529533E+01  0.91927951770E+02  0.75073553608E+02 0.  0.
          5    1    3    3  501    0  0.16809903006E+02  0.50547805600E+02 -0.20089375452E+03  0.20788949973E+03  0.47000000000E+01 0. -1.
        -13    1    4    4    0    0 -0.33079608115E+02 -0.17951689558E+01 -0.10714060255E+03  0.11214540480E+03  0.00000000000E+00 0.  1.
         14    1    4    4    0    0  0.10753019061E+02 -0.79428661630E+02 -0.14426619922E+03  0.16503719564E+03  0.00000000000E+00 0. -1.
         -5    1    5    5    0  502 -0.35272854287E+02 -0.21205927169E+01 -0.93680851162E+02  0.10023404131E+03  0.47000000000E+01 0.  1.
         11    1    6    6    0    0 -0.86542083008E+01  0.17931248061E+02 -0.23724678789E+02  0.30972332201E+02  0.00000000000E+00 0. -1.
        -12    1    6    6    0    0  0.49443748635E+02  0.14865369642E+02  0.32402531742E+02  0.60955619569E+02  0.00000000000E+00 0.  1.
</event>
<event>
12    1  0.8494789E-002  0.1825100E+03  0.7818608E-02  0.1165534E+00
         21   -1    0    0  503  502  0.00000000000E+00  0.00000000000E+00  0.31189136959E+03  0.31189136959E+03  0.00000000000E+00 0. -1.
         21   -1    0    0  501  503 -0.00000000000E+00 -0.00000000000E+00 -0.11102714522E+03  0.11102714522E+03  0.00000000000E+00 0. -1.
          6    2    1    2  501    0  0.48540880092E+02 -0.12138141637E+02  0.57697571197E+02  0.19141294464E+03  0.17551738983E+03 0.  0.
         24    2    3    3    0    0  0.16262880703E+02  0.90574424605E+01  0.10259874957E+03  0.13200479832E+03  0.80945937604E+02 0.  0.
         -6    2    1    2    0  502 -0.48540880092E+02  0.12138141637E+02  0.14316665317E+03  0.23150557017E+03  0.17491308389E+03 0.  0.
        -24    2    5    5    0    0 -0.79243728362E+01  0.38668587438E+02  0.15807812845E+03  0.18053491870E+03  0.77756715703E+02 0.  0.
          5    1    3    3  501    0  0.32277999389E+02 -0.21195584097E+02 -0.44901178371E+02  0.59408146317E+02  0.47000000000E+01 0. -1.
        -11    1    4    4    0    0 -0.25321438371E+02  0.20192041624E+02  0.72710956278E+02  0.79597593864E+02  0.00000000000E+00 0.  1.
         12    1    4    4    0    0  0.41584319074E+02 -0.11134599164E+02  0.29887793290E+02  0.52407204458E+02  0.00000000000E+00 0. -1.
         -5    1    5    5    0  502 -0.40616507256E+02 -0.26530445802E+02 -0.14911475274E+02  0.50970651467E+02  0.47000000000E+01 0.  1.
         13    1    6    6    0    0 -0.22443884828E+02  0.38134311286E+02  0.15988372318E+03  0.16589381724E+03  0.00000000000E+00 0. -1.
        -14    1    6    6    0    0  0.14519511991E+02  0.53427615198E+00 -0.18055947283E+01  0.14641101454E+02  0.00000000000E+00 0.  1.
</event>
<event>
12    1  0.8494789E-002  0.2766515E+03  0.7818608E-02  0.1097578E+00
         21   -1    0    0  503  502  0.00000000000E+00  0.00000000000E+00  0.10372146693E+03  0.10372146693E+03  0.00000000000E+00 0.  1.
         21   -1    0    0  501  503 -0.00000000000E+00 -0.00000000000E+00 -0.93559236655E+03  0.93559236655E+03  0.00000000000E+00 0. -1.
          6    2    1    2  501    0  0.13850004662E+03  0.16579711097E+03 -0.17632616191E+03  0.32778384244E+03  0.17227996712E+03 0.  0.
         24    2    3    3    0    0  0.47570136338E+02  0.11895077188E+02 -0.88832252393E+02  0.12870757869E+03  0.79183716848E+02 0.  0.
         -6    2    1    2    0  502 -0.13850004662E+03 -0.16579711097E+03 -0.65554473771E+03  0.71152999104E+03  0.17281516163E+03 0.  0.
        -24    2    5    5    0    0 -0.56120463403E+02 -0.16146156104E+03 -0.51685930370E+03  0.55009600351E+03  0.79010955868E+02 0.  0.
          5    1    3    3  501    0  0.90929910278E+02  0.15390203378E+03 -0.87493909516E+02  0.19907626375E+03  0.47000000000E+01 0. -1.
        -13    1    4    4    0    0  0.23777956387E+02  0.17582770419E+02  0.65068822718E+01  0.30280101428E+02  0.00000000000E+00 0.  1.
         14    1    4    4    0    0  0.23792179951E+02 -0.56876932316E+01 -0.95339134665E+02  0.98427477260E+02  0.00000000000E+00 0. -1.
         -5    1    5    5    0  502 -0.82379583214E+02 -0.43355499310E+01 -0.13868543401E+03  0.16143398753E+03  0.47000000000E+01 0.  1.
         13    1    6    6    0    0 -0.49401415962E+02 -0.56915592185E+02 -0.29907663689E+03  0.30842619744E+03  0.00000000000E+00 0. -1.
        -14    1    6    6    0    0 -0.67190474409E+01 -0.10454596886E+03 -0.21778266681E+03  0.24166980607E+03  0.00000000000E+00 0.  1.
</event>
<event>
12    1  0.8494789E-002  0.1794745E+03  0.7818608E-02  0.1169852E+00
         21   -1    0    0  503  502  0.00000000000E+00  0.00000000000E+00  0.25761932265E+03  0.25761932265E+03  0.00000000000E+00 0. -1.
         21   -1    0    0  501  503 -0.00000000000E+00 -0.00000000000E+00 -0.52864196069E+03  0.52864196069E+03  0.00000000000E+00 0. -1.
          6    2    1    2  501    0  0.22420701383E+02 -0.12033948418E+02 -0.48137587828E+03  0.51374489534E+03  0.17766141262E+03 0.  0.
         24    2    3    3    0    0 -0.58957819867E+02 -0.26262270957E+01 -0.29382668566E+03  0.30903104970E+03  0.75386649256E+02 0.  0.
         -6    2    1    2    0  502 -0.22420701383E+02  0.12033948418E+02  0.21035324025E+03  0.27251638799E+03  0.17137442130E+03 0.  0.
        -24    2    5    5    0    0 -0.73819322505E+02  0.13951593614E+02  0.12262628583E+03  0.17071459946E+03  0.91990918868E+02 0.  0.
          5    1    3    3  501    0  0.81378521250E+02 -0.94077213225E+01 -0.18754919263E+03  0.20471384564E+03  0.47000000000E+01 0. -1.
        -13    1    4    4    0    0  0.53503643314E+01 -0.26581363626E+02 -0.83414618539E+02  0.87710853813E+02  0.00000000000E+00 0.  1.
         14    1    4    4    0    0 -0.64308184198E+02  0.23955136530E+02 -0.21041206712E+03  0.22132019589E+03  0.00000000000E+00 0. -1.
         -5    1    5    5    0  502  0.51398621122E+02 -0.19176451957E+01  0.87726954416E+02  0.10180178853E+03  0.47000000000E+01 0.  1.
         11    1    6    6    0    0 -0.46879796751E+02  0.53168067789E+02  0.67293019111E+02  0.97738985041E+02  0.00000000000E+00 0. -1.
        -12    1    6    6    0    0 -0.26939525754E+02 -0.39216474175E+02  0.55333266719E+02  0.72975614423E+02  0.00000000000E+00 0.  1.
</event>
<event>
12    1  0.8494789E-002  0.2070992E+03  0.7818608E-02  0.1143952E+00
         21   -1    0    0  501  502  0.00000000000E+00  0.00000000000E+00  0.20439568368E+03  0.20439568368E+03  0.00000000000E+00 0.  1.
         21   -1    0    0  502  503 -0.00000000000E+00 -0.00000000000E+00 -0.21453562825E+03  0.21453562825E+03  0.00000000000E+00 0.  1.
         -6    2    1    2    0  503 -0.32014020076E+02 -0.11164026821E+03 -0.37183808860E+02  0.21041083000E+03  0.17146904903E+03 0.  0.
        -24    2    3    3    0    0 -0.51322263187E+02 -0.14312150144E+02  0.21471180155E+02  0.95050227739E+02  0.75727946463E+02 0.  0.
          6    2    1    2  501    0  0.32014020076E+02  0.11164026821E+03  0.27043864290E+02  0.20852048193E+03  0.17105839302E+03 0.  0.
         24    2    5    5    0    0  0.48185132496E+02  0.12298596270E+03 -0.83594604270E+01  0.16770730929E+03  0.10299760675E+03 0.  0.
          5    1    5    5  501    0 -0.16171112420E+02 -0.11345694486E+02  0.35403324717E+02  0.40813172644E+02  0.47000000000E+01 0. -1.
        -13    1    6    6    0    0 -0.20284083153E+02  0.49054698728E+02  0.28696793306E+02  0.60343296584E+02  0.00000000000E+00 0.  1.
         14    1    6    6    0    0  0.68469215648E+02  0.73931263967E+02 -0.37056253733E+02  0.10736401270E+03  0.00000000000E+00 0. -1.
         -5    1    3    3    0  503  0.19308243111E+02 -0.97328118066E+02 -0.58654989015E+02  0.11536060226E+03  0.47000000000E+01 0.  1.
         11    1    4    4    0    0 -0.20638566333E+02  0.27628680017E+01  0.47153131175E+02  0.51546111778E+02  0.00000000000E+00 0. -1.
        -12    1    4    4    0    0 -0.30683696854E+02 -0.17075018145E+02 -0.25681951020E+02  0.43504115960E+02  0.00000000000E+00 0.  1.
</event>
<event>
12    1  0.8494789E-002  0.1731962E+03  0.7818608E-02  0.1175008E+00
         21   -1    0    0  503  502  0.00000000000E+00  0.00000000000E+00  0.81949930689E+03  0.81949930689E+03  0.00000000000E+00 0. -1.
         21   -1    0    0  501  503 -0.00000000000E+00 -0.00000000000E+00 -0.37706463264E+02  0.37706463264E+02  0.00000000000E+00 0. -1.
          6    2    1    2  501    0  0.22909423678E+02  0.41950184137E+01  0.30803390876E+03  0.35338620975E+03  0.17162308826E+03 0.  0.
         24    2    3    3    0    0 -0.23569834111E+02 -0.18555685411E+02  0.70968221850E+02  0.11069268730E+03  0.79476612711E+02 0.  0.
         -6    2    1    2    0  502 -0.22909423678E+02 -0.41950184137E+01  0.47375893487E+03  0.50381956041E+03  0.16983574773E+03 0.  0.
        -24    2    5    5    0    0  0.30704037549E+02 -0.21399482426E+02  0.40482912282E+03  0.41469153005E+03  0.81742098334E+02 0.  0.
          5    1    3    3  501    0  0.46479257789E+02  0.22750703824E+02  0.23706568691E+03  0.24269352245E+03  0.47000000000E+01 0. -1.
        -13    1    4    4    0    0  0.16774796262E+02 -0.30293489142E+01  0.64825626236E+02  0.67029341048E+02  0.00000000000E+00 0.  1.
         14    1    4    4    0    0 -0.40344630373E+02 -0.15526336497E+02  0.61425956139E+01  0.43663346251E+02  0.00000000000E+00 0. -1.
         -5    1    5    5    0  502 -0.53613461226E+02  0.17204464012E+02  0.68929812048E+02  0.89128030358E+02  0.47000000000E+01 0.  1.
         13    1    6    6    0    0  0.45789200911E+02  0.16393497698E+02  0.24349885782E+03  0.24830846028E+03  0.00000000000E+00 0. -1.
        -14    1    6    6    0    0 -0.15085163363E+02 -0.37792980124E+02  0.16133026500E+03  0.16638306977E+03  0.00000000000E+00 0.  1.
</event>
<event>
12    1  0.8494789E-002  0.1882853E+03  0.7818608E-02  0.1160588E+00
         21   -1    0    0  501  502  0.00000000000E+00  0.00000000000E+00  0.54671836765E+03  0.54671836765E+03  0.00000000000E+00 0. -1.
         21   -1    0    0  502  503 -0.00000000000E+00 -0.00000000000E+00 -0.64030962897E+02  0.64030962897E+02  0.00000000000E+00 0. -1.
         -6    2    1    2    0  503 -0.56047147042E+02  0.46777380152E+02  0.23531189161E+03  0.30136864216E+03  0.17355680961E+03 0.  0.
        -24    2    3    3    0    0 -0.64465070766E+02  0.93320600061E+02  0.19802500172E+03  0.24095726147E+03  0.77343524648E+02 0.  0.
          6    2    1    2  501    0  0.56047147042E+02 -0.46777380152E+02  0.24737551315E+03  0.30938068839E+03  0.17085771817E+03 0.  0.
         24    2    5    5    0    0 -0.12358608274E+02 -0.34022444180E+02  0.21592885228E+03  0.23287566743E+03  0.79344472577E+02 0.  0.
          5    1    5    5  501    0  0.68405755316E+02 -0.12754935972E+02  0.31446660870E+02  0.76505020959E+02  0.47000000000E+01 0. -1.
        -11    1    6    6    0    0 -0.40530589771E+02  0.10801772739E+01  0.79983714682E+02  0.89673240738E+02  0.00000000000E+00 0.  1.
         12    1    6    6    0    0  0.28171981498E+02 -0.35102621454E+02  0.13594513760E+03  0.14320242669E+03  0.00000000000E+00 0. -1.
         -5    1    3    3    0  503  0.84179237239E+01 -0.46543219909E+02  0.37286889888E+02  0.60411380690E+02  0.47000000000E+01 0.  1.
         13    1    4    4    0    0 -0.16863995866E+02  0.22338064020E+02  0.31511549525E+01  0.28165816840E+02  0.00000000000E+00 0. -1.
        -14    1    4    4    0    0 -0.47601074900E+02  0.70982536041E+02  0.19487384677E+03  0.21279144463E+03  0.00000000000E+00 0.  1.
</event>
<event>
12    1  0.8494789E-002  0.2420291E+03  0.7818608E-02  0.1119041E+00
         21   -1    0    0  503  502  0.00000000000E+00  0.00000000000E+00  0.53111736639E+03  0.53111736639E+03  0.00000000000E+00 0. -1.
         21   -1    0    0  501  503 -0.00000000000E+00 -0.00000000000E+00 -0.15424351101E+03  0.15424351101E+03  0.00000000000E+00 0. -1.
          6    2    1    2  501    0  0.16336620012E+03 -0.26070964046E+02  0.31625313501E+01  0.24204971513E+03  0.17666310448E+03 0.  0.
         24    2    3    3    0    0  0.14379613427E+03  0.45901479286E+02  0.71510099818E+00  0.16727605673E+03  0.72086709949E+02 0.  0.
         -6    2    1    2    0  502 -0.16336620012E+03  0.26070964046E+02  0.37371132404E+03  0.44331116227E+03  0.17174522517E+03 0.  0.
        -24    2    5    5    0    0 -0.19160696872E+03  0.26265521573E+02  0.32469475500E+03  0.38654591847E+03  0.81166218825E+02 0.  0.
          5    1    3    3  501    0  0.19570065849E+02 -0.71972443332E+02  0.24474303520E+01  0.74773658408E+02  0.47000000000E+01 0. -1.
        -11    1    4    4    0    0  0.67661332122E+02  0.57854121616E+02  0.10290585448E+02  0.89616133600E+02  0.00000000000E+00 0.  1.
         12    1    4    4    0    0  0.76134802153E+02 -0.11952642330E+02 -0.95754844499E+01  0.77659923126E+02  0.00000000000E+00 0. -1.
         -5    1    5    5    0  502  0.28240768591E+02 -0.19455752721E+00  0.49016569038E+02  0.56765243799E+02  0.47000000000E+01 0.  1.
         11    1    6    6    0    0 -0.15504425259E+03  0.30466517664E+02  0.19104568235E+03  0.24792212831E+03  0.00000000000E+00 0. -1.
        -12    1    6    6    0    0 -0.36562716120E+02 -0.42009960915E+01  0.13364907265E+03  0.13862379016E+03  0.00000000000E+00 0.  1.
</event>
<event>
12    1  0.8494789E-002  0.1991337E+03  0.7818608E-02  0.1150747E+00
         21   -1    0    0  503  502  0.00000000000E+00  0.00000000000E+00  0.41069247013E+03  0.41069247013E+03  0.00000000000E+00 0.  1.
         21   -1    0    0  501  503 -0.00000000000E+00 -0.00000000000E+00 -0.10819135524E+03  0.10819135524E+03  0.00000000000E+00 0. -1.
          6    2    1    2  501    0 -0.38256725099E+02  0.91938083852E+02  0.63470502174E+02  0.20777315267E+03  0.17095318087E+03 0.  0.
         24    2    3    3    0    0 -0.43187470736E+02  0.12948165606E+03  0.40662466630E+02  0.16331948520E+03  0.79932228609E+02 0.  0.
         -6    2    1    2    0  502  0.38256725099E+02 -0.91938083852E+02  0.23903061272E+03  0.31111067270E+03  0.17244717619E+03 0.  0.
        -24    2    5    5    0    0  0.15862947041E+02 -0.66475417219E+02  0.44973225771E+02  0.11405690309E+03  0.79471831010E+02 0.  0.
          5    1    3    3  501    0  0.49307456368E+01 -0.37543572204E+02  0.22808035544E+02  0.44453667472E+02  0.47000000000E+01 0. -1.
        -11    1    4    4    0    0  0.23018680045E+02  0.22402512881E+02  0.53116558961E+01  0.32556810389E+02  0.00000000000E+00 0.  1.
         12    1    4    4    0    0 -0.66206150781E+02  0.10707914318E+03  0.35350810734E+02  0.13076267481E+03  0.00000000000E+00 0. -1.
         -5    1    5    5    0  502  0.22393778058E+02 -0.25462666634E+02  0.19405738695E+03  0.19705376961E+03  0.47000000000E+01 0.  1.
         13    1    6    6    0    0 -0.21949466472E+02  0.59811849471E+01  0.13648547418E+02  0.26529917044E+02  0.00000000000E+00 0. -1.
        -14    1    6    6    0    0  0.37812413513E+02 -0.72456602166E+02  0.31324678353E+02  0.87526986050E+02  0.00000000000E+00 0.  1.
</event>
<event>
12    1  0.8494789E-002  0.2072034E+03  0.7818608E-02  0.1143913E+00
         21   -1    0    0  503  502  0.00000000000E+00  0.00000000000E+00  0.19972914558E+02  0.19972914558E+02  0.00000000000E+00 0. -1.
         21   -1    0    0  501  503 -0.00000000000E+00 -0.00000000000E+00 -0.24697781269E+04  0.24697781269E+04  0.00000000000E+00 0. -1.
          6    2    1    2  501    0 -0.10205339218E+03 -0.49413743388E+02 -0.77404819292E+03  0.80130134662E+03  0.17342615216E+03 0.  0.
         24    2    3    3    0    0 -0.24393354138E+02 -0.19567591756E+02 -0.62336513313E+03  0.62911148402E+03  0.78862182006E+02 0.  0.
         -6    2    1    2    0  502  0.10205339218E+03  0.49413743388E+02 -0.16757570195E+04  0.16884496949E+04  0.17275465534E+03 0.  0.
        -24    2    5    5    0    0  0.64301035740E+02  0.71799856466E+02 -0.15529857916E+04  0.15579842095E+04  0.79120702919E+02 0.  0.
          5    1    3    3  501    0 -0.77660038047E+02 -0.29846151632E+02 -0.15068305978E+03  0.17218986260E+03  0.47000000000E+01 0. -1.
        -13    1    4    4    0    0  0.20414972823E+02 -0.27410240714E+02 -0.16549724709E+03  0.16898944111E+03  0.00000000000E+00 0.  1.
         14    1    4    4    0    0 -0.44808326961E+02  0.78426489577E+01 -0.45786788604E+03  0.46012204291E+03  0.00000000000E+00 0. -1.
         -5    1    5    5    0  502  0.37752356445E+02 -0.22386113078E+02 -0.12277122787E+03  0.13046548535E+03  0.47000000000E+01 0.  1.
         11    1    6    6    0    0  0.37706832906E+02  0.58829464813E+02 -0.53195390125E+03  0.53652368469E+03  0.00000000000E+00 0. -1.
        -12    1    6    6    0    0  0.26594202834E+02  0.12970391654E+02 -0.10210318903E+04  0.10214605248E+04  0.00000000000E+00 0.  1.
</event>
<event>
12    1  0.8494789E-002  0.2196138E+03  0.7818608E-02  0.1134228E+00
         21   -1    0    0  501  502  0.00000000000E+00  0.00000000000E+00  0.32209189234E+02  0.32209189234E+02  0.00000000000E+00 0. -1.
         21   -1    0    0  502  503 -0.00000000000E+00 -0.00000000000E+00 -0.15329193528E+04  0.15329193528E+04  0.00000000000E+00 0. -1.
         -6    2    1    2    0  503 -0.39700218513E+02 -0.13097755733E+03 -0.87337481023E+03  0.90056303759E+03  0.17175272243E+03 0.  0.
        -24    2    3    3    0    0  0.13620310315E+02 -0.33230908125E+02 -0.19933483032E+03  0.21737238284E+03  0.78908631565E+02 0.  0.
          6    2    1    2  501    0  0.39700218513E+02  0.13097755733E+03 -0.62733535339E+03  0.66456550449E+03  0.17136638024E+03 0.  0.
         24    2    5    5    0    0  0.94497425976E+02  0.10827891358E+03 -0.45941802976E+03  0.48641871123E+03  0.69886693498E+02 0.  0.
          5    1    5    5  501    0 -0.54797207463E+02  0.22698643748E+02 -0.16791732363E+03  0.17814679326E+03  0.47000000000E+01 0. -1.
        -13    1    6    6    0    0  0.10208129552E+03  0.97549167337E+02 -0.44522308198E+03  0.46707603628E+03  0.00000000000E+00 0.  1.
         14    1    6    6    0    0 -0.75838695464E+01  0.10729746243E+02 -0.14194947781E+02  0.19342674951E+02  0.00000000000E+00 0. -1.
         -5    1    3    3    0  503 -0.53320528828E+02 -0.97746649203E+02 -0.67403997991E+03  0.68319065475E+03  0.47000000000E+01 0.  1.
         13    1    4    4    0    0  0.38532301852E+02 -0.36436637435E+02 -0.17314657968E+03  0.18108590472E+03  0.00000000000E+00 0. -1.
        -14    1    4    4    0    0 -0.24911991537E+02  0.32057293103E+01 -0.26188250637E+02  0.36286478117E+02  0.00000000000E+00 0.  1.
</event>
<event>
12    1  0.8494789E-002  0.2075671E+03  0.7818608E-02  0.1143514E+00
         21   -1    0    0  503  502  0.00000000000E+00  0.00000000000E+00  0.11702001702E+03  0.11702001702E+03  0.00000000000E+00 0.  1.
         21   -1    0    0  501  503 -0.00000000000E+00 -0.00000000000E+00 -0.39656596646E+03  0.39656596646E+03  0.00000000000E+00 0.  1.
          6    2    1    2  501    0  0.11517815335E+03 -0.57407805174E+01 -0.70999913248E+02  0.21937426983E+03  0.17258365801E+03 0.  0.
         24    2    3    3    0    0  0.31160725932E+02  0.15044690867E+02  0.22361267225E+02  0.91979748952E+02  0.82236940493E+02 0.  0.
         -6    2    1    2    0  502 -0.11517815335E+03  0.57407805174E+01 -0.20854603619E+03  0.29421171365E+03  0.17254019724E+03 0.  0.
        -24    2    5    5    0    0 -0.76965867321E+02 -0.69803014951E+01 -0.22466990888E+03  0.25057601723E+03  0.79619740717E+02 0.  0.
          5    1    3    3  501    0  0.84017427423E+02 -0.20785471384E+02 -0.93361180473E+02  0.12739452088E+03  0.47000000000E+01 0. -1.
        -11    1    4    4    0    0 -0.92464227424E+01 -0.14330498089E+02  0.36307249160E+02  0.40113287706E+02  0.00000000000E+00 0.  1.
         12    1    4    4    0    0  0.40407148674E+02  0.29375188955E+02 -0.13945981935E+02  0.51866461247E+02  0.00000000000E+00 0. -1.
         -5    1    5    5    0  502 -0.38212286034E+02  0.12721082012E+02  0.16123872688E+02  0.43635696419E+02  0.47000000000E+01 0.  1.
         13    1    6    6    0    0  0.33456262268E+01  0.15271230949E+02 -0.96074533463E+02  0.97338171802E+02  0.00000000000E+00 0. -1.
        -14    1    6    6    0    0 -0.80311493548E+02 -0.22251532444E+02 -0.12859537542E+03  0.15323784543E+03  0.00000000000E+00 0.  1.
</event>
<event>
12    1  0.8494789E-002  0.2202478E+03  0.7818608E-02  0.1133811E+00
         21   -1    0    0  501  502  0.00000000000E+00  0.00000000000E+00  0.98193559186E+02  0.98193559186E+02  0.00000000000E+00 0. -1.
         21   -1    0    0  502  503 -0.00000000000E+00 -0.00000000000E+00 -0.77414538610E+03  0.77414538610E+03  0.00000000000E+00 0. -1.
         -6    2    1    2    0  503 -0.11393270482E+03 -0.75906212796E+02 -0.60068911216E+03  0.63958679815E+03  0.17175985715E+03 0.  0.
        -24    2    3    3    0    0 -0.60690218297E+02  0.28987117650E+02 -0.29774318018E+03  0.31457033573E+03  0.76025911291E+02 0.  0.
          6    2    1    2  501    0  0.11393270482E+03  0.75906212796E+02 -0.75262714749E+02  0.23275214713E+03  0.17253020430E+03 0.  0.
         24    2    5    5    0    0  0.40002607119E+02  0.10533943007E+01  0.19537752772E+02  0.91055914212E+02  0.79423784308E+02 0.  0.
          5    1    5    5  501    0  0.73930097697E+02  0.74852818495E+02 -0.94800467521E+02  0.14169623292E+03  0.47000000000E+01 0. -1.
        -11    1    6    6    0    0  0.21466123476E+02  0.40184631221E+02  0.11907655903E+02  0.47089184666E+02  0.00000000000E+00 0.  1.
         12    1    6    6    0    0  0.18536483643E+02 -0.39131236920E+02  0.76300968689E+01  0.43966729546E+02  0.00000000000E+00 0. -1.
         -5    1    3    3    0  503 -0.53242486518E+02 -0.10489333045E+03 -0.30294593198E+03  0.32501646242E+03  0.47000000000E+01 0.  1.
         11    1    4    4    0    0 -0.18063851140E+02  0.60968446207E+01 -0.77687083564E+01  0.20587060544E+02  0.00000000000E+00 0. -1.
        -12    1    4    4    0    0 -0.42626367157E+02  0.22890273030E+02 -0.28997447183E+03  0.29398327518E+03  0.00000000000E+00 0.  1.
</event>
<event>
12    1  0.8494789E-002  0.1863642E+03  0.7818608E-02  0.1162551E+00
         21   -1    0    0  503  502  0.00000000000E+00  0.00000000000E+00  0.87915464724E+02  0.87915464724E+02  0.00000000000E+00 0. -1.
         21   -1    0    0  501  503 -0.00000000000E+00 -0.00000000000E+00 -0.50561218928E+03  0.50561218928E+03  0.00000000000E+00 0. -1.
          6    2    1    2  501    0 -0.16745105500E+02 -0.60590184134E+02 -0.35048023043E+03  0.39541238619E+03  0.17193892596E+03 0.  0.
         24    2    3    3    0    0  0.21204292843E+02 -0.94596242855E+02 -0.19884993179E+03  0.23537986972E+03  0.80400973236E+02 0.  0.
         -6    2    1    2    0  502  0.16745105500E+02  0.60590184134E+02 -0.67216494124E+02  0.19811526781E+03  0.17544239307E+03 0.  0.
        -24    2    5    5    0    0  0.43433474757E+02  0.48307343421E+02  0.19819664937E+02  0.10613418164E+03  0.81557214490E+02 0.  0.
          5    1    3    3  501    0 -0.37949398343E+02  0.34006058721E+02 -0.15163029864E+03  0.16003251648E+03  0.47000000000E+01 0. -1.
        -13    1    4    4    0    0 -0.28187760723E+02 -0.28325242487E+02 -0.91917590817E+02  0.10022830298E+03  0.00000000000E+00 0.  1.
         14    1    4    4    0    0  0.49392053567E+02 -0.66271000368E+02 -0.10693234097E+03  0.13515156674E+03  0.00000000000E+00 0. -1.
         -5    1    5    5    0  502 -0.26688369257E+02  0.12282840713E+02 -0.87036159060E+02  0.91981086173E+02  0.47000000000E+01 0.  1.
         13    1    6    6    0    0  0.13487616392E+02  0.27392567106E+02  0.50111854187E+02  0.58681057068E+02  0.00000000000E+00 0. -1.
        -14    1    6    6    0    0  0.29945858365E+02  0.20914776315E+02 -0.30292189251E+02  0.47453124567E+02  0.00000000000E+00 0.  1.
</event>
<event>
12    1  0.8494789E-002  0.2096687E+03  0.7818608E-02  0.1141890E+00
         21   -1    0    0  501  502  0.00000000000E+00  0.00000000000E+00  0.52352123366E+02  0.52352123366E+02  0.00000000000E+00 0. -1.
         21   -1    0    0  502  503 -0.00000000000E+00 -0.00000000000E+00 -0.11211583207E+04  0.11211583207E+04  0.00000000000E+00 0. -1.
         -6    2    1    2    0  503  0.35786160338E+01 -0.11920263185E+03 -0.82932159706E+03  0.85541527419E+03  0.17244972032E+03 0.  0.
        -24    2    3    3    0    0 -0.61583668080E+02 -0.79214228022E+02 -0.42093087366E+03  0.43990321820E+03  0.79149219148E+02 0.  0.
          6    2    1    2  501    0 -0.35786160338E+01  0.11920263185E+03 -0.23948460030E+03  0.31809516990E+03  0.17207437171E+03 0.  0.
         24    2    5    5    0    0 -0.55652013449E+02  0.76799455176E+02 -0.95121183648E+02  0.15880752387E+03  0.84714149599E+02 0.  0.
          5    1    5    5  501    0  0.52073397415E+02  0.42403176676E+02 -0.14436341665E+03  0.15928764603E+03  0.47000000000E+01 0. -1.
        -13    1    6    6    0    0  0.46948366784E+01 -0.58354614768E+00 -0.50990070128E+02  0.51209074090E+02  0.00000000000E+00 0.  1.
         14    1    6    6    0    0 -0.60346850127E+02  0.77383001323E+02 -0.44131113520E+02  0.10759844978E+03  0.00000000000E+00 0. -1.
         -5    1    3    3    0  503  0.65162284114E+02 -0.39988403829E+02 -0.40839072340E+03  0.41551205599E+03  0.47000000000E+01 0.  1.
         11    1    4    4    0    0 -0.51956366013E+01 -0.70446680613E+02 -0.22444643901E+03  0.23529966731E+03  0.00000000000E+00 0. -1.
        -12    1    4    4    0    0 -0.56388031479E+02 -0.87675474088E+01 -0.19648443464E+03  0.20460355090E+03  0.00000000000E+00 0.  1.
</event>
<event>
12    1  0.8494789E-002  0.3516340E+03  0.7818608E-02  0.1061967E+00
         21   -1    0    0  501  502  0.00000000000E+00  0.00000000000E+00  0.13979872966E+03  0.13979872966E+03  0.00000000000E+00 0. -1.
         21   -1    0    0  502  503 -0.00000000000E+00 -0.00000000000E+00 -0.21585338959E+04  0.21585338959E+04  0.00000000000E+00 0. -1.
         -6    2    1    2    0  503 -0.20256960335E+03 -0.22992368723E+03 -0.18925334116E+04  0.19249231673E+04  0.17247359221E+03 0.  0.
        -24    2    3    3    0    0 -0.14186010832E+03 -0.65010833872E+02 -0.90162195681E+03  0.91853880080E+03  0.80253826853E+02 0.  0.
          6    2    1    2  501    0  0.20256960335E+03  0.22992368723E+03 -0.12620175471E+03  0.37340945829E+03  0.17207089961E+03 0.  0.
         24    2    5    5    0    0  0.55983635208E+02  0.14863846462E+03 -0.97254461844E+02  0.20324844855E+03  0.81387596792E+02 0.  0.
          5    1    5    5  501    0  0.14658596815E+03  0.81285222611E+02 -0.28947292861E+02  0.17016100974E+03  0.47000000000E+01 0. -1.
        -11    1    6    6    0    0  0.57681207270E+02  0.15470793664E+03 -0.10309641809E+03  0.19465492225E+03  0.00000000000E+00 0.  1.
         12    1    6    6    0    0 -0.16975720618E+01 -0.60694720196E+01  0.58419562447E+01  0.85935262999E+01  0.00000000000E+00 0. -1.
         -5    1    3    3    0  503 -0.60709495038E+02 -0.16491285336E+03 -0.99091145474E+03  0.10063843665E+04  0.47000000000E+01 0.  1.
         13    1    4    4    0    0 -0.35196900145E+02 -0.20705169477E+02 -0.46867212599E+03  0.47044775215E+03  0.00000000000E+00 0. -1.
        -14    1    4    4    0    0 -0.10666320817E+03 -0.44305664396E+02 -0.43294983082E+03  0.44809104865E+03  0.00000000000E+00 0.  1.
</event>
<event>
12    1  0.8494789E-002  0.2186344E+03  0.7818608E-02  0.1135135E+00
         21   -1    0    0  501  502  0.00000000000E+00  0.00000000000E+00  0.12626406036E+03  0.12626406036E+03  0.00000000000E+00 0.  1.
         21   -1    0    0  502  503 -0.00000000000E+00 -0.00000000000E+00 -0.39226176945E+03  0.39226176945E+03  0.00000000000E+00 0. -1.
         -6    2    1    2    0  503 -0.41961118339E+02  0.12773370338E+03 -0.18536477802E+03  0.28663755775E+03  0.17240752348E+03 0.  0.
        -24    2    3    3    0    0  0.18653731680E+02  0.12481348363E+03 -0.92584226612E+02  0.17567356158E+03  0.79768376071E+02 0.  0.
          6    2    1    2  501    0  0.41961118339E+02 -0.12773370338E+03 -0.80632931068E+02  0.23188827207E+03  0.17086212780E+03 0.  0.
         24    2    5    5    0    0 -0.13906817293E+02 -0.19288253380E+02 -0.71758136169E+02  0.10948527438E+03  0.79198225450E+02 0.  0.
          5    1    5    5  501    0  0.55867935631E+02 -0.10844545000E+03 -0.88747948993E+01  0.12240299768E+03  0.47000000000E+01 0. -1.
        -11    1    6    6    0    0  0.98851985880E+01 -0.20294557962E+02  0.97353466075E+01  0.24583799697E+02  0.00000000000E+00 0.  1.
         12    1    6    6    0    0 -0.23792015881E+02  0.10063045820E+01 -0.81493482777E+02  0.84901474685E+02  0.00000000000E+00 0. -1.
         -5    1    3    3    0  503 -0.60614850019E+02  0.29202197509E+01 -0.92780551409E+02  0.11096399617E+03  0.47000000000E+01 0.  1.
         11    1    4    4    0    0 -0.43393768336E+01  0.12546432387E+02 -0.52680392235E+02  0.54327404530E+02  0.00000000000E+00 0. -1.
        -12    1    4    4    0    0  0.22993108514E+02  0.11226705124E+03 -0.39903834377E+02  0.12134615705E+03  0.00000000000E+00 0.  1.
</event>
<event>
12    1  0.8494789E-002  0.1859072E+03  0.7818608E-02  0.1162380E+00
         21   -1    0    0  503  502  0.00000000000E+00  0.00000000000E+00  0.11108196260E+03  0.11108196260E+03  0.00000000000E+00 0. -1.
         21   -1    0    0  501  503 -0.00000000000E+00 -0.00000000000E+00 -0.48530855084E+03  0.48530855084E+03  0.00000000000E+00 0.  1.
          6    2    1    2  501    0  0.68955973955E+02 -0.17234317851E+02 -0.36663842867E+03  0.41107811013E+03  0.17178337288E+03 0.  0.
         24    2    3    3    0    0  0.81557168458E+02  0.97033769213E+01 -0.36331972807E+03  0.38078729838E+03  0.79069681653E+02 0.  0.
         -6    2    1    2    0  502 -0.68955973955E+02  0.17234317851E+02 -0.75881595744E+01  0.18531240330E+03  0.17097122154E+03 0.  0.
        -24    2    5    5    0    0 -0.80437271031E+01  0.94133970657E+01 -0.63363085430E+02  0.10221967815E+03  0.79250668240E+02 0.  0.
          5    1    3    3  501    0 -0.12601194504E+02 -0.26937694773E+02 -0.33187005979E+01  0.30290811746E+02  0.47000000000E+01 0. -1.
        -11    1    4    4    0    0  0.15519587096E+02 -0.28335299738E+01 -0.23848571003E+03  0.23900694627E+03  0.00000000000E+00 0.  1.
         12    1    4    4    0    0  0.66037581362E+02  0.12536906895E+02 -0.12483401803E+03  0.14178035211E+03  0.00000000000E+00 0. -1.
         -5    1    5    5    0  502 -0.60912246851E+02  0.78209207857E+01  0.55774925856E+02  0.83092725149E+02  0.47000000000E+01 0.  1.
         13    1    6    6    0    0  0.20069641203E+02 -0.27324066280E+02 -0.25034979272E+02  0.42144338685E+02  0.00000000000E+00 0. -1.
        -14    1    6    6    0    0 -0.28113368306E+02  0.36737463345E+02 -0.38328106158E+02  0.60075339468E+02  0.00000000000E+00 0.  1.
</event>
<event>
12    1  0.8494789E-002  0.3696804E+03  0.7818608E-02  0.1054817E+00
         21   -1    0    0  501  502  0.00000000000E+00  0.00000000000E+00  0.43445554183E+03  0.43445554183E+03  0.00000000000E+00 0.  1.
         21   -1    0    0  502  503 -0.00000000000E+00 -0.00000000000E+00 -0.32583708513E+03  0.32583708513E+03  0.00000000000E+00 0.  1.
         -6    2    1    2    0  503 -0.32524216431E+03  0.36057940482E+02  0.12506034729E+03  0.39026106434E+03  0.17199118396E+03 0.  0.
        -24    2    3    3    0    0 -0.31411277080E+03  0.32774885020E+01  0.81676868053E+02  0.33455973848E+03  0.81126648678E+02 0.  0.
          6    2    1    2  501    0  0.32524216431E+03 -0.36057940482E+02 -0.16441890594E+02  0.37003156262E+03  0.17196040549E+03 0.  0.
         24    2    5    5    0    0  0.33403847327E+03 -0.54268926069E+02 -0.76916594652E+01  0.34749999383E+03  0.78551041528E+02 0.  0.
          5    1    5    5  501    0 -0.87963089641E+01  0.18210985587E+02 -0.87502311293E+01  0.22531568792E+02  0.47000000000E+01 0. -1.
        -11    1    6    6    0    0  0.24250701012E+03 -0.59853105995E+02  0.22896845128E+02  0.25083123763E+03  0.00000000000E+00 0.  1.
         12    1    6    6    0    0  0.91531463153E+02  0.55841799261E+01 -0.30588504593E+02  0.96668756202E+02  0.00000000000E+00 0. -1.
         -5    1    3    3    0  503 -0.11129393506E+02  0.32780451980E+02  0.43383479233E+02  0.55701325857E+02  0.47000000000E+01 0.  1.
         11    1    4    4    0    0 -0.59191211173E+02 -0.31658866820E+02  0.17746870351E+02  0.69432231245E+02  0.00000000000E+00 0. -1.
        -12    1    4    4    0    0 -0.25492155963E+03  0.34936355322E+02  0.63929997702E+02  0.26512750723E+03  0.00000000000E+00 0.  1.
</event>
<event>
12    1  0.8494789E-002  0.1879461E+03  0.7818608E-02  0.1160776E+00
         21   -1    0    0  503  502  0.00000000000E+00  0.00000000000E+00  0.39179720636E+03  0.39179720636E+03  0.00000000000E+00 0.  1.
         21   -1    0    0  501  503 -0.00000000000E+00 -0.00000000000E+00 -0.24456752644E+03  0.24456752644E+03  0.00000000000E+00 0.  1.
          6    2    1    2  501    0  0.40308973827E+02  0.59514177642E+02 -0.17982820472E+03  0.26011903482E+03  0.17365764697E+03 0.  0.
         24    2    3    3    0    0  0.83683117503E+01  0.37069799805E+02 -0.19830706943E+03  0.21667350074E+03  0.78597159228E+02 0.  0.
         -6    2    1    2    0  502 -0.40308973827E+02 -0.59514177642E+02  0.32705788464E+03  0.37624569798E+03  0.17154362311E+03 0.  0.
        -24    2    5    5    0    0  0.30989598562E+02  0.73920149363E+01  0.17807827988E+03  0.19798482828E+03  0.80443280392E+02 0.  0.
          5    1    3    3  501    0  0.31940662077E+02  0.22444377837E+02  0.18478864707E+02  0.43445534077E+02  0.47000000000E+01 0. -1.
        -11    1    4    4    0    0  0.10051876338E+02 -0.22221159707E+02 -0.89334736138E+02  0.92604077867E+02  0.00000000000E+00 0.  1.
         12    1    4    4    0    0 -0.16835645878E+01  0.59290959512E+02 -0.10897233329E+03  0.12406942288E+03  0.00000000000E+00 0. -1.
         -5    1    5    5    0  502 -0.71298572389E+02 -0.66906192578E+02  0.14897960476E+03  0.17826086969E+03  0.47000000000E+01 0.  1.
         13    1    6    6    0    0  0.17271154044E+02  0.42249136961E+02  0.69694917751E+02  0.83310646957E+02  0.00000000000E+00 0. -1.
        -14    1    6    6    0    0  0.13718444518E+02 -0.34857122025E+02  0.10838336213E+03  0.11467418133E+03  0.00000000000E+00 0.  1.
</event>
<event>
12    1  0.8494789E-002  0.2039759E+03  0.7818608E-02  0.1146436E+00
         21   -1    0    0  501  502  0.00000000000E+00  0.00000000000E+00  0.24607596041E+03  0.24607596041E+03  0.00000000000E+00 0.  1.
         21   -1    0    0  502  503 -0.00000000000E+00 -0.00000000000E+00 -0.30620593766E+03  0.30620593766E+03  0.00000000000E+00 0.  1.
         -6    2    1    2    0  503 -0.10755783931E+03 -0.20152667236E+02 -0.21488131037E+03  0.29624645981E+03  0.17208477158E+03 0.  0.
        -24    2    3    3    0    0 -0.33880548197E+02 -0.64277741385E+02 -0.70890908078E+02  0.12852439404E+03  0.78825626744E+02 0.  0.
          6    2    1    2  501    0  0.10755783931E+03  0.20152667236E+02  0.15475133312E+03  0.25603543826E+03  0.17213759539E+03 0.  0.
         24    2    5    5    0    0  0.13974343882E+03  0.80987457402E+01  0.96402433158E+02  0.18815396828E+03  0.80713495062E+02 0.  0.
          5    1    5    5  501    0 -0.32185599510E+02  0.12053921495E+02  0.58348899965E+02  0.67881469978E+02  0.47000000000E+01 0. -1.
        -13    1    6    6    0    0  0.13352584060E+03  0.52068660814E+01  0.10989946865E+03  0.17301489755E+03  0.00000000000E+00 0.  1.
         14    1    6    6    0    0  0.62175982182E+01  0.28918796588E+01 -0.13497035495E+02  0.15139070734E+02  0.00000000000E+00 0. -1.
         -5    1    3    3    0  503 -0.73677291117E+02  0.44125074149E+02 -0.14399040229E+03  0.16772206577E+03  0.47000000000E+01 0.  1.
         11    1    4    4    0    0 -0.30727304956E+01 -0.42768700076E+02  0.56586858337E+01  0.43250712182E+02  0.00000000000E+00 0. -1.
        -12    1    4    4    0    0 -0.30807817701E+02 -0.21509041309E+02 -0.76549593912E+02  0.85273681858E+02  0.00000000000E+00 0.  1.
</event>
<event>
12    1  0.8494789E-002  0.2056755E+03  0.7818608E-02  0.1145984E+00
         21   -1    0    0  501  502  0.00000000000E+00  0.00000000000E+00  0.88980751789E+02  0.88980751789E+02  0.00000000000E+00 0. -1.
         21   -1    0    0  502  503 -0.00000000000E+00 -0.00000000000E+00 -0.46731973851E+03  0.46731973851E+03  0.00000000000E+00 0. -1.
         -6    2    1    2    0  503  0.90208288449E+02 -0.32548755540E+02 -0.21154558967E+03  0.29504902917E+03  0.18194899372E+03 0.  0.
        -24    2    3    3    0    0  0.97081542214E+02  0.65795163779E+01 -0.61269988551E+02  0.13953983468E+03  0.79052122617E+02 0.  0.
          6    2    1    2  501    0 -0.90208288449E+02  0.32548755540E+02 -0.16679339706E+03  0.26125146113E+03  0.17673520263E+03 0.  0.
         24    2    5    5    0    0  0.13252250261E+02 -0.72929799299E+01 -0.31483909885E+02  0.86259477675E+02  0.78871105063E+02 0.  0.
          5    1    5    5  501    0 -0.10346053871E+03  0.39841735470E+02 -0.13530948717E+03  0.17499198346E+03  0.47000000000E+01 0. -1.
        -11    1    6    6    0    0  0.23173341544E+01  0.20118055470E+02 -0.48243123727E+02  0.52321173348E+02  0.00000000000E+00 0.  1.
         12    1    6    6    0    0  0.10934916106E+02 -0.27411035400E+02  0.16759213843E+02  0.33938304327E+02  0.00000000000E+00 0. -1.
         -5    1    3    3    0  503 -0.68732537650E+01 -0.39128271918E+02 -0.15027560112E+03  0.15550919449E+03  0.47000000000E+01 0.  1.
         11    1    4    4    0    0  0.10776634845E+03  0.10381680957E+02 -0.66492918785E+02  0.12705382090E+03  0.00000000000E+00 0. -1.
        -12    1    4    4    0    0 -0.10684806234E+02 -0.38021645788E+01  0.52229302341E+01  0.12486013775E+02  0.00000000000E+00 0.  1.
</event>
<event>
12    1  0.8494789E-002  0.2221108E+03  0.7818608E-02  0.1132629E+00
         21   -1    0    0  501  502  0.00000000000E+00  0.00000000000E+00  0.19270949630E+04  0.19270949630E+04  0.00000000000E+00 0. -1.
         21   -1    0    0  502  503 -0.00000000000E+00 -0.00000000000E+00 -0.27100036593E+02  0.27100036593E+02  0.00000000000E+00 0.  1.
         -6    2    1    2    0  503 -0.77427306167E+02 -0.11790783207E+03  0.70240637756E+03  0.73618369914E+03  0.16939443626E+03 0.  0.
        -24    2    3    3    0    0 -0.11525509966E+03 -0.80397522330E+02  0.58558703738E+03  0.60770485443E+03  0.81520010755E+02 0.  0.
          6    2    1    2  501    0  0.77427306167E+02  0.11790783207E+03  0.11975885488E+04  0.12180113004E+04  0.17156908551E+03 0.  0.
         24    2    5    5    0    0  0.12381937912E+02  0.13070888520E+03  0.80086345544E+03  0.81575807594E+03  0.82709365543E+02 0.  0.
          5    1    5    5  501    0  0.65045368255E+02 -0.12801053131E+02  0.39672509336E+03  0.40225322447E+03  0.47000000000E+01 0. -1.
        -11    1    6    6    0    0  0.43985595009E+02  0.88214225657E+02  0.43139095879E+03  0.44250948182E+03  0.00000000000E+00 0.  1.
         12    1    6    6    0    0 -0.31603657097E+02  0.42494659539E+02  0.36947249665E+03  0.37324859412E+03  0.00000000000E+00 0. -1.
         -5    1    3    3    0  503  0.37827793498E+02 -0.37510309736E+02  0.11681934018E+03  0.12847884470E+03  0.47000000000E+01 0.  1.
         11    1    4    4    0    0 -0.11496265061E+02  0.67382458788E+01  0.17143520901E+03  0.17195231594E+03  0.00000000000E+00 0. -1.
        -12    1    4    4    0    0 -0.10375883460E+03 -0.87135768208E+02  0.41415182837E+03  0.43575253849E+03  0.00000000000E+00 0.  1.
</event>
<event>
12    1  0.8494789E-002  0.2559945E+03  0.7818608E-02  0.1109802E+00
         21   -1    0    0  501  502  0.00000000000E+00  0.00000000000E+00  0.62224350236E+03  0.62224350236E+03  0.00000000000E+00 0. -1.
         21   -1    0    0  502  503 -0.00000000000E+00 -0.00000000000E+00 -0.10946444438E+03  0.10946444438E+03  0.00000000000E+00 0.  1.
         -6    2    1    2    0  503 -0.13718248929E+03  0.12842632843E+03  0.18084656648E+03  0.31343051470E+03  0.17384144999E+03 0.  0.
        -24    2    3    3    0    0 -0.11654226470E+03  0.23953588617E+02  0.13935888378E+03  0.19904568157E+03  0.77732946635E+02 0.  0.
          6    2    1    2  501    0  0.13718248929E+03 -0.12842632843E+03  0.33193249150E+03  0.41827743205E+03  0.17165218916E+03 0.  0.
         24    2    5    5    0    0  0.81877096506E+01 -0.88523975280E+02  0.14996168890E+03  0.19163384851E+03  0.79570666496E+02 0.  0.
          5    1    5    5  501    0  0.12899477964E+03 -0.39902353146E+02  0.18197080260E+03  0.22664358354E+03  0.47000000000E+01 0. -1.
        -13    1    6    6    0    0  0.38369522827E+02 -0.73555568642E+02  0.12357712948E+03  0.14884202663E+03  0.00000000000E+00 0.  1.
         14    1    6    6    0    0 -0.30181813176E+02 -0.14968406638E+02  0.26384559423E+02  0.42791821880E+02  0.00000000000E+00 0. -1.
         -5    1    3    3    0  503 -0.20640224590E+02  0.10447273981E+03  0.41487682697E+02  0.11438483313E+03  0.47000000000E+01 0.  1.
         13    1    4    4    0    0 -0.12024954145E+03  0.25569022703E+02  0.14624913518E+03  0.19105637043E+03  0.00000000000E+00 0. -1.
        -14    1    4    4    0    0  0.37072767494E+01 -0.16154340865E+01 -0.68902513959E+01  0.79893111395E+01  0.00000000000E+00 0.  1.
</event>
<event>
12    1  0.8494789E-002  0.2286900E+03  0.7818608E-02  0.1129059E+00
         21   -1    0    0  503  502  0.00000000000E+00  0.00000000000E+00  0.51508029251E+03  0.51508029251E+03  0.00000000000E+00 0. -1.
         21   -1    0    0  501  503 -0.00000000000E+00 -0.00000000000E+00 -0.95018689537E+03  0.95018689537E+03  0.00000000000E+00 0. -1.
          6    2    1    2  501    0 -0.11855870294E+03 -0.71704679398E+02 -0.91181839135E+03  0.94005951772E+03  0.18193787665E+03 0.  0.
         24    2    3    3    0    0  0.95726325235E+01 -0.12373341576E+02 -0.44701810695E+03  0.45426198669E+03  0.79271872281E+02 0.  0.
         -6    2    1    2    0  502  0.11855870294E+03  0.71704679398E+02  0.47671178849E+03  0.52520767017E+03  0.17143873665E+03 0.  0.
        -24    2    5    5    0    0  0.73845373286E+02  0.85122781557E+02  0.45133187667E+03  0.47186390541E+03  0.79095228885E+02 0.  0.
          5    1    3    3  501    0 -0.12813133546E+03 -0.59331337822E+02 -0.46480028440E+03  0.48579753103E+03  0.47000000000E+01 0. -1.
        -13    1    4    4    0    0  0.34139694282E+02  0.14877980567E+02 -0.13325672985E+03  0.13836267229E+03  0.00000000000E+00 0.  1.
         14    1    4    4    0    0 -0.24567061758E+02 -0.27251322143E+02 -0.31376137709E+03  0.31589931440E+03  0.00000000000E+00 0. -1.
         -5    1    5    5    0  502  0.44713329655E+02 -0.13418102159E+02  0.25379911815E+02  0.53343764754E+02  0.47000000000E+01 0.  1.
         13    1    6    6    0    0  0.48543702256E+02  0.19493746070E+01  0.20374699094E+03  0.20945913063E+03  0.00000000000E+00 0. -1.
        -14    1    6    6    0    0  0.25301671030E+02  0.83173406950E+02  0.24758488574E+03  0.26240477478E+03  0.00000000000E+00 0.  1.
</event>
<event>
12    1  0.8494789E-002  0.2260239E+03  0.7818608E-02  0.1129486E+00
         21   -1    0    0  503  502  0.00000000000E+00  0.00000000000E+00  0.35276327460E+02  0.35276327460E+02  0.00000000000E+00 0. -1.
         21   -1    0    0  501  503 -0.00000000000E+00 -0.00000000000E+00 -0.18441297834E+04  0.18441297834E+04  0.00000000000E+00 0.  1.
          6    2    1    2  501    0 -0.15706954883E+02  0.14609402118E+03 -0.13400262948E+04  0.13589393084E+04  0.17162576046E+03 0.  0.
         24    2    3    3    0    0 -0.29928196135E+02  0.14421948269E+03 -0.69100989287E+03  0.70974739718E+03  0.67466581711E+02 0.  0.
         -6    2    1    2    0  502  0.15706954883E+02 -0.14609402118E+03 -0.46882716113E+03  0.52046680247E+03  0.17174578306E+03 0.  0.
        -24    2    5    5    0    0  0.15521004021E+02 -0.14685212367E+03 -0.24916492973E+03  0.30075290850E+03  0.81010505327E+02 0.  0.
          5    1    3    3  501    0  0.14221241252E+02  0.18745384941E+01 -0.64901640190E+03  0.64919191118E+03  0.47000000000E+01 0. -1.
        -13    1    4    4    0    0 -0.49771395055E+01  0.50162401253E+01 -0.16219136661E+03  0.16234523086E+03  0.00000000000E+00 0.  1.
         14    1    4    4    0    0 -0.24951056630E+02  0.13920324256E+03 -0.52881852626E+03  0.54740216632E+03  0.00000000000E+00 0. -1.
         -5    1    5    5    0  502  0.18595086183E+00  0.75810248897E+00 -0.21966223140E+03  0.21971389396E+03  0.47000000000E+01 0.  1.
         11    1    6    6    0    0  0.41199996637E+02 -0.81027210724E+02 -0.96728946928E+02  0.13273785359E+03  0.00000000000E+00 0. -1.
        -12    1    6    6    0    0 -0.25678992617E+02 -0.65824912947E+02 -0.15243598280E+03  0.16801505492E+03  0.00000000000E+00 0.  1.
</event>
<event>
12    1  0.8494789E-002  0.1848149E+03  0.7818608E-02  0.1164589E+00
         21   -1    0    0  501  502  0.00000000000E+00  0.00000000000E+00  0.71961988931E+03  0.71961988931E+03  0.00000000000E+00 0.  1.
         21   -1    0    0  502  503 -0.00000000000E+00 -0.00000000000E+00 -0.18326937419E+03  0.18326937419E+03  0.00000000000E+00 0.  1.
         -6    2    1    2    0  503 -0.39047965112E+02  0.56949199993E+02 -0.12145137805E+03  0.22114927043E+03  0.17143105793E+03 0.  0.
        -24    2    3    3    0    0  0.23390478673E+02 -0.21373774739E+02 -0.56775655885E+02  0.10182581645E+03  0.78364973397E+02 0.  0.
          6    2    1    2  501    0  0.39047965112E+02 -0.56949199993E+02  0.65780189317E+03  0.68173999306E+03  0.16522146510E+03 0.  0.
         24    2    5    5    0    0 -0.29053268016E+02 -0.67315315730E+02  0.39246444665E+03  0.40756617076E+03  0.81892597682E+02 0.  0.
          5    1    5    5  501    0  0.68101233128E+02  0.10366115738E+02  0.26533744652E+03  0.27417382230E+03  0.47000000000E+01 0. -1.
        -13    1    6    6    0    0 -0.12780509578E+02 -0.10607564214E+02  0.28065943278E+03  0.28115045625E+03  0.00000000000E+00 0.  1.
         14    1    6    6    0    0 -0.16272758438E+02 -0.56707751516E+02  0.11180501387E+03  0.12641571451E+03  0.00000000000E+00 0. -1.
         -5    1    3    3    0  503 -0.62438443785E+02  0.78322974732E+02 -0.64675722160E+02  0.11932345398E+03  0.47000000000E+01 0.  1.
         11    1    4    4    0    0  0.29030157579E+02 -0.84378396803E+01  0.11321413146E+02  0.32281907985E+02  0.00000000000E+00 0. -1.
        -12    1    4    4    0    0 -0.56396789062E+01 -0.12935935059E+02 -0.68097069032E+02  0.69543908466E+02  0.00000000000E+00 0.  1.
</event>
<event>
12    1  0.8494789E-002  0.1962144E+03  0.7818608E-02  0.1154695E+00
         21   -1    0    0  501  502  0.00000000000E+00  0.00000000000E+00  0.15920389645E+04  0.15920389645E+04  0.00000000000E+00 0.  1.
         21   -1    0    0  502  503 -0.00000000000E+00 -0.00000000000E+00 -0.28378202864E+02  0.28378202864E+02  0.00000000000E+00 0. -1.
         -6    2    1    2    0  503  0.70309969771E+02 -0.63411244200E+02  0.44983554982E+03  0.49076688098E+03  0.17185933736E+03 0.  0.
        -24    2    3    3    0    0 -0.64584890062E+01  0.13673369185E+02  0.25767081814E+03  0.26989404882E+03  0.78866177546E+02 0.  0.
          6    2    1    2  501    0 -0.70309969771E+02  0.63411244200E+02  0.11138252118E+04  0.11296502863E+04  0.16290699592E+03 0.  0.
         24    2    5    5    0    0 -0.93754365318E+02  0.49270583987E+00  0.69396605606E+03  0.70443012833E+03  0.76438177323E+02 0.  0.
          5    1    5    5  501    0  0.23444395547E+02  0.62918538360E+02  0.41985915570E+03  0.42522015801E+03  0.47000000000E+01 0. -1.
        -13    1    6    6    0    0 -0.98552203491E+02 -0.10798491784E+02  0.48100710005E+03  0.49111808614E+03  0.00000000000E+00 0.  1.
         14    1    6    6    0    0  0.47978381732E+01  0.11291197624E+02  0.21295895601E+03  0.21331204219E+03  0.00000000000E+00 0. -1.
         -5    1    3    3    0  503  0.76768458777E+02 -0.77084613385E+02  0.19216473168E+03  0.22087283216E+03  0.47000000000E+01 0.  1.
         11    1    4    4    0    0  0.30448636751E+01 -0.30230621326E+02  0.60871454897E+02  0.68033048453E+02  0.00000000000E+00 0. -1.
        -12    1    4    4    0    0 -0.95033526814E+01  0.43903990511E+02  0.19679936324E+03  0.20186100036E+03  0.00000000000E+00 0.  1.
</event>
<event>
12    1  0.8494789E-002  0.1744564E+03  0.7818608E-02  0.1174076E+00
         21   -1    0    0  503  502  0.00000000000E+00  0.00000000000E+00  0.10149478675E+03  0.10149478675E+03  0.00000000000E+00 0.  1.
         21   -1    0    0  501  503 -0.00000000000E+00 -0.00000000000E+00 -0.37483748925E+03  0.37483748925E+03  0.00000000000E+00 0.  1.
          6    2    1    2  501    0  0.30796822020E+02  0.75451600749E+01 -0.24595001930E+03  0.29973840187E+03  0.16836366555E+03 0.  0.
         24    2    3    3    0    0 -0.20766235628E+02  0.53432761123E+02 -0.17522448034E+03  0.20080098375E+03  0.79568335793E+02 0.  0.
         -6    2    1    2    0  502 -0.30796822020E+02 -0.75451600749E+01 -0.27392683204E+02  0.17659387413E+03  0.17155076100E+03 0.  0.
        -24    2    5    5    0    0 -0.59675271927E+02  0.10250744012E+02 -0.67266434832E+02  0.12403281306E+03  0.84812437938E+02 0.  0.
          5    1    3    3  501    0  0.51563057648E+02 -0.45887601048E+02 -0.70725538960E+02  0.98937418124E+02  0.47000000000E+01 0. -1.
        -13    1    4    4    0    0  0.47284592566E+01  0.27497744283E+02 -0.15820751293E+03  0.16064900066E+03  0.00000000000E+00 0.  1.
         14    1    4    4    0    0 -0.25494694885E+02  0.25935016840E+02 -0.17016967412E+02  0.40151983085E+02  0.00000000000E+00 0. -1.
         -5    1    5    5    0  502  0.28878449908E+02 -0.17795904087E+02  0.39873751628E+02  0.52561061065E+02  0.47000000000E+01 0.  1.
         13    1    6    6    0    0  0.13670326254E+02  0.60923988635E+01  0.95410198231E+01  0.17748977522E+02  0.00000000000E+00 0. -1.
        -14    1    6    6    0    0 -0.73345598181E+02  0.41583451485E+01 -0.76807454655E+02  0.10628383554E+03  0.00000000000E+00 0.  1.
</event>
<event>
12    1  0.8494789E-002  0.2047963E+03  0.7818608E-02  0.1146677E+00
         21   -1    0    0  503  502  0.00000000000E+00  0.00000000000E+00  0.16108994810E+03  0.16108994810E+03  0.00000000000E+00 0.  1.
         21   -1    0    0  501  503 -0.00000000000E+00 -0.00000000000E+00 -0.50231551570E+03  0.50231551570E+03  0.00000000000E+00 0. -1.
          6    2    1    2  501    0  0.48583725857E+02 -0.10015381143E+03 -0.40253148001E+03  0.44963004240E+03  0.16656655808E+03 0.  0.
         24    2    3    3    0    0 -0.23582650993E+02 -0.95730524233E+02 -0.24563675817E+03  0.27681339055E+03  0.81041727053E+02 0.  0.
         -6    2    1    2    0  502 -0.48583725857E+02  0.10015381143E+03  0.61305912408E+02  0.21377542139E+03  0.17190215686E+03 0.  0.
        -24    2    5    5    0    0 -0.56070573322E+02  0.12268690455E+03  0.12091963079E+02  0.15893113291E+03  0.83167924675E+02 0.  0.
          5    1    3    3  501    0  0.72166376850E+02 -0.44232871922E+01 -0.15689472184E+03  0.17281665185E+03  0.47000000000E+01 0. -1.
        -11    1    4    4    0    0 -0.35474928942E+01 -0.10044727712E+03 -0.16171829293E+03  0.19040757982E+03  0.00000000000E+00 0.  1.
         12    1    4    4    0    0 -0.20035158099E+02  0.47167528895E+01 -0.83918465243E+02  0.86405810723E+02  0.00000000000E+00 0. -1.
         -5    1    5    5    0  502  0.74868474645E+01 -0.22533093128E+02  0.49213949330E+02  0.54844288486E+02  0.47000000000E+01 0.  1.
         13    1    6    6    0    0  0.59670760834E+01  0.35330288197E+02 -0.27014554076E+02  0.44873392929E+02  0.00000000000E+00 0. -1.
        -14    1    6    6    0    0 -0.62037649405E+02  0.87356616357E+02  0.39106517155E+02  0.11405773998E+03  0.00000000000E+00 0.  1.
</event>
<event>
12    1  0.8494789E-002  0.2081523E+03  0.7818608E-02  0.1143174E+00
         21   -1    0    0  501  502  0.00000000000E+00  0.00000000000E+00  0.49461155323E+03  0.49461155323E+03  0.00000000000E+00 0. -1.
         21   -1    0    0  502  503 -0.00000000000E+00 -0.00000000000E+00 -0.13178430931E+03  0.13178430931E+03  0.00000000000E+00 0. -1.
         -6    2    1    2    0  503  0.44907440999E+02 -0.10744732764E+03 -0.32949062765E+00  0.20815254544E+03  0.17252758370E+03 0.  0.
        -24    2    3    3    0    0  0.50349271148E+02 -0.13635177849E+03 -0.27753831728E+02  0.16766470432E+03  0.78830966611E+02 0.  0.
          6    2    1    2  501    0 -0.44907440999E+02  0.10744732764E+03  0.36315673455E+03  0.41824331709E+03  0.17170629566E+03 0.  0.
         24    2    5    5    0    0  0.24714630928E+02  0.11752174095E+02  0.20382985630E+03  0.21971891194E+03  0.77336041819E+02 0.  0.
          5    1    5    5  501    0 -0.69622071927E+02  0.95695153541E+02  0.15932687824E+03  0.19852440515E+03  0.47000000000E+01 0. -1.
        -13    1    6    6    0    0 -0.88038232436E+01 -0.27633832925E+02  0.55321447613E+02  0.62462777651E+02  0.00000000000E+00 0.  1.
         14    1    6    6    0    0  0.33518454171E+02  0.39386007020E+02  0.14850840869E+03  0.15725613429E+03  0.00000000000E+00 0. -1.
         -5    1    3    3    0  503 -0.54418301493E+01  0.28904450850E+02  0.27424341100E+02  0.40487841127E+02  0.47000000000E+01 0.  1.
         13    1    4    4    0    0  0.13638333856E+02 -0.90264806812E+02  0.18022344034E+02  0.93051299742E+02  0.00000000000E+00 0. -1.
        -14    1    4    4    0    0  0.36710937292E+02 -0.46086971674E+02 -0.45776175762E+02  0.74613404575E+02  0.00000000000E+00 0.  1.
</event>
<event>
12    1  0.8494789E-002  0.1816198E+03  0.7818608E-02  0.1168037E+00
         21   -1    0    0  501  502  0.00000000000E+00  0.00000000000E+00  0.13667210851E+03  0.13667210851E+03  0.00000000000E+00 0.  1.
         21   -1    0    0  502  503 -0.00000000000E+00 -0.00000000000E+00 -0.30224806730E+03  0.30224806730E+03  0.00000000000E+00 0.  1.
         -6    2    1    2    0  503 -0.53469449622E+02  0.20129870936E+02 -0.19009967253E+03  0.26291372342E+03  0.17239938143E+03 0.  0.
        -24    2    3    3    0    0  0.30842750614E+02 -0.53120052510E+01 -0.54189906496E+02  0.10089708638E+03  0.79146594424E+02 0.  0.
          6    2    1    2  501    0  0.53469449622E+02 -0.20129870936E+02  0.24523713739E+02  0.17600645239E+03  0.16465923904E+03 0.  0.
         24    2    5    5    0    0  0.63051542240E+02  0.16021210460E+02  0.60341514286E+02  0.12400912533E+03  0.86631337611E+02 0.  0.
          5    1    5    5  501    0 -0.95820926178E+01 -0.36151081396E+02 -0.35817800547E+02  0.51997327057E+02  0.47000000000E+01 0. -1.
        -13    1    6    6    0    0  0.38379597132E+02  0.35815389517E+02 -0.36551931624E+01  0.52622201012E+02  0.00000000000E+00 0.  1.
         14    1    6    6    0    0  0.24671945108E+02 -0.19794179057E+02  0.63996707449E+02  0.71386924323E+02  0.00000000000E+00 0. -1.
         -5    1    3    3    0  503 -0.84312200237E+02  0.25441876187E+02 -0.13590976604E+03  0.16201663704E+03  0.47000000000E+01 0.  1.
         11    1    4    4    0    0  0.30248370449E+02 -0.36312341947E+02 -0.51308390865E+02  0.69757444518E+02  0.00000000000E+00 0. -1.
        -12    1    4    4    0    0  0.59438016574E+00  0.31000336696E+02 -0.28815156310E+01  0.31139641863E+02  0.00000000000E+00 0.  1.
</event>
<event>
12    1  0.8494789E-002  0.1807870E+03  0.7818608E-02  0.1167383E+00
         21   -1    0    0  501  502  0.00000000000E+00  0.00000000000E+00  0.28417334363E+03  0.28417334363E+03  0.00000000000E+00 0. -1.
         21   -1    0    0  502  503 -0.00000000000E+00 -0.00000000000E+00 -0.62497014813E+03  0.62497014813E+03  0.00000000000E+00 0.  1.
         -6    2    1    2    0  503  0.45191979894E+02  0.29957019579E+02 -0.58149716034E+03  0.60895228005E+03  0.17246505103E+03 0.  0.
        -24    2    3    3    0    0 -0.18774310788E+01  0.77615038536E+02 -0.32529338139E+03  0.34409518166E+03  0.80982041903E+02 0.  0.
          6    2    1    2  501    0 -0.45191979894E+02 -0.29957019579E+02  0.24070035584E+03  0.30019121170E+03  0.17099229284E+03 0.  0.
         24    2    5    5    0    0 -0.51792475805E+02 -0.20516347568E+02  0.25983824330E+03  0.27736487668E+03  0.79447977095E+02 0.  0.
          5    1    5    5  501    0  0.66004959113E+01 -0.94406720111E+01 -0.19137887458E+02  0.22826335025E+02  0.47000000000E+01 0.  1.
        -13    1    6    6    0    0 -0.30562867932E+02  0.22653600320E+01  0.22567315039E+02  0.38059223066E+02  0.00000000000E+00 0.  1.
         14    1    6    6    0    0 -0.21229607873E+02 -0.22781707600E+02  0.23727092826E+03  0.23930565361E+03  0.00000000000E+00 0. -1.
         -5    1    3    3    0  503  0.47069410972E+02 -0.47658018956E+02 -0.25620377895E+03  0.26485709840E+03  0.47000000000E+01 0.  1.
         11    1    4    4    0    0  0.33085428125E+02  0.19808013339E+02 -0.17679551385E+03  0.18095208389E+03  0.00000000000E+00 0. -1.
        -12    1    4    4    0    0 -0.34962859204E+02  0.57807025196E+02 -0.14849786754E+03  0.16314309777E+03  0.00000000000E+00 0.  1.
</event>
<event>
12    1  0.8494789E-002  0.2970346E+03  0.7818608E-02  0.1087624E+00
         21   -1    0    0  501  502  0.00000000000E+00  0.00000000000E+00  0.83259113682E+02  0.83259113682E+02  0.00000000000E+00 0.  1.
         21   -1    0    0  502  503 -0.00000000000E+00 -0.00000000000E+00 -0.10627611341E+04  0.10627611341E+04  0.00000000000E+00 0.  1.
         -6    2    1    2    0  503 -0.26007988100E+02 -0.23327182424E+03 -0.40285591899E+03  0.50052216670E+03  0.18203677777E+03 0.  0.
        -24    2    3    3    0    0 -0.55825732779E+01 -0.76399299900E+02 -0.65224327215E+02  0.12763697226E+03  0.78542763372E+02 0.  0.
          6    2    1    2  501    0  0.26007988100E+02  0.23327182424E+03 -0.57664610146E+03  0.64549808112E+03  0.17045494116E+03 0.  0.
         24    2    5    5    0    0 -0.42666815759E+02  0.86619013438E+02 -0.20599176592E+03  0.24098602684E+03  0.79488029590E+02 0.  0.
          5    1    5    5  501    0  0.68674803860E+02  0.14665281081E+03 -0.37065433555E+03  0.40451205428E+03  0.47000000000E+01 0. -1.
        -11    1    6    6    0    0  0.15910401119E+02  0.57192564289E+02 -0.92029803949E+02  0.10951536462E+03  0.00000000000E+00 0.  1.
         12    1    6    6    0    0 -0.58577216878E+02  0.29426449149E+02 -0.11396196197E+03  0.13147066221E+03  0.00000000000E+00 0. -1.
         -5    1    3    3    0  503 -0.20425414823E+02 -0.15687252434E+03 -0.33763159178E+03  0.37288519444E+03  0.47000000000E+01 0.  1.
         13    1    4    4    0    0  0.24413412031E+02 -0.45909469134E+02 -0.29390226279E+01  0.52080052776E+02  0.00000000000E+00 0. -1.
        -14    1    4    4    0    0 -0.29995985309E+02 -0.30489830766E+02 -0.62285304587E+02  0.75556919487E+02  0.00000000000E+00 0.  1.
</event>
<event>
12    1  0.8494789E-002  0.2843438E+03  0.7818608E-02  0.1094084E+00
         21   -1    0    0  503  502  0.00000000000E+00  0.00000000000E+00  0.31067824831E+03  0.31067824831E+03  0.00000000000E+00 0.  1.
         21   -1    0    0  501  503 -0.00000000000E+00 -0.00000000000E+00 -0.31048728662E+03  0.31048728662E+03  0.00000000000E+00 0.  1.
          6    2    1    2  501    0  0.20305797118E+03  0.95965300915E+02  0.13111369989E+03  0.31311694138E+03  0.17438330780E+03 0.  0.
         24    2    3    3    0    0  0.20453237400E+03  0.75706933542E+02  0.15683434334E+03  0.28000777631E+03  0.79008301761E+02 0.  0.
         -6    2    1    2    0  502 -0.20305797118E+03 -0.95965300915E+02 -0.13092273820E+03  0.30804859354E+03  0.16526128998E+03 0.  0.
        -24    2    5    5    0    0 -0.39511942049E+02 -0.17056745837E+02 -0.77404894855E+02  0.11868092664E+03  0.79003281315E+02 0.  0.
          5    1    3    3  501    0 -0.14744028137E+01  0.20258367373E+02 -0.25720643444E+02  0.33109165067E+02  0.47000000000E+01 0. -1.
        -13    1    4    4    0    0  0.36783034311E+02  0.20548972175E+02 -0.24397716102E+01  0.42204316794E+02  0.00000000000E+00 0.  1.
         14    1    4    4    0    0  0.16774933968E+03  0.55157961368E+02  0.15927411495E+03  0.23780345952E+03  0.00000000000E+00 0. -1.
         -5    1    5    5    0  502 -0.16354602913E+03 -0.78908555078E+02 -0.53517843349E+02  0.18936766690E+03  0.47000000000E+01 0.  1.
         13    1    6    6    0    0 -0.32945460361E+02  0.12509838161E+02 -0.80852073722E+02  0.88198397006E+02  0.00000000000E+00 0. -1.
        -14    1    6    6    0    0 -0.65664816878E+01 -0.29566583998E+02  0.34471788665E+01  0.30482529639E+02  0.00000000000E+00 0.  1.
</event>
<event>
12    1  0.8494789E-002  0.1881392E+03  0.7818608E-02  0.1160286E+00
         21   -1    0    0  503  502  0.00000000000E+00  0.00000000000E+00  0.13644089576E+03  0.13644089576E+03  0.00000000000E+00 0.  1.
         21   -1    0    0  501  503 -0.00000000000E+00 -0.00000000000E+00 -0.27773290206E+03  0.27773290206E+03  0.00000000000E+00 0. -1.
          6    2    1    2  501    0  0.73659672467E+02 -0.12221640496E+02 -0.12488132984E+03  0.22532020796E+03  0.17204282527E+03 0.  0.
         24    2    3    3    0    0 -0.84989712629E+01  0.21912511672E+02 -0.10959347438E+03  0.13492667053E+03  0.75113821054E+02 0.  0.
         -6    2    1    2    0  502 -0.73659672467E+02  0.12221640496E+02 -0.16410676468E+02  0.18885358987E+03  0.17268830956E+03 0.  0.
        -24    2    5    5    0    0 -0.56425316390E+02  0.91689439863E+01  0.57027907412E+02  0.11321195062E+03  0.79352868100E+02 0.  0.
          5    1    3    3  501    0  0.82158643730E+02 -0.34134152168E+02 -0.15287855462E+02  0.90393537426E+02  0.47000000000E+01 0. -1.
        -13    1    4    4    0    0 -0.27285748240E+02  0.37491102689E+02 -0.40207916388E+02  0.61374028530E+02  0.00000000000E+00 0.  1.
         14    1    4    4    0    0  0.18786776977E+02 -0.15578591017E+02 -0.69385557992E+02  0.73552641999E+02  0.00000000000E+00 0. -1.
         -5    1    5    5    0  502 -0.17234356077E+02  0.30526965101E+01 -0.73438583881E+02  0.75641639246E+02  0.47000000000E+01 0.  1.
         11    1    6    6    0    0  0.11634139122E+02  0.20172505289E+02  0.32612534525E+02  0.40073190176E+02  0.00000000000E+00 0. -1.
        -12    1    6    6    0    0 -0.68059455512E+02 -0.11003561303E+02  0.24415372888E+02  0.73138760444E+02  0.00000000000E+00 0.  1.
</event>
<event>
12    1  0.8494789E-002  0.2896244E+03  0.7818608E-02  0.1090591E+00
         21   -1    0    0  501  502  0.00000000000E+00  0.00000000000E+00  0.37044084674E+03  0.37044084674E+03  0.00000000000E+00 0. -1.
         21   -1    0    0  502  503 -0.00000000000E+00 -0.00000000000E+00 -0.33944900631E+03  0.33944900631E+03  0.00000000000E+00 0. -1.
         -6    2    1    2    0  503  0.18414638014E+03  0.14106784095E+03 -0.18954365188E+03  0.34613445407E+03  0.17341349214E+03 0.  0.
        -24    2    3    3    0    0  0.11061948687E+03  0.16037534758E+03 -0.16273225590E+03  0.26538840276E+03  0.77409910374E+02 0.  0.
          6    2    1    2  501    0 -0.18414638014E+03 -0.14106784095E+03  0.22053549232E+03  0.36375539898E+03  0.17283536052E+03 0.  0.
         24    2    5    5    0    0 -0.65842447987E+02 -0.31048426455E+02  0.26741950435E+02  0.11141016165E+03  0.79986620528E+02 0.  0.
          5    1    5    5  501    0 -0.11830393216E+03 -0.11001941449E+03  0.19379354188E+03  0.25234523733E+03  0.47000000000E+01 0. -1.
        -13    1    6    6    0    0 -0.15274088680E+02  0.21905703291E+02  0.27296563484E+02  0.38187170617E+02  0.00000000000E+00 0.  1.
         14    1    6    6    0    0 -0.50568359306E+02 -0.52954129746E+02 -0.55461304872E+00  0.73222991032E+02  0.00000000000E+00 0. -1.
         -5    1    3    3    0  503  0.73526893272E+02 -0.19307506635E+02 -0.26811395986E+02  0.80746051305E+02  0.47000000000E+01 0.  1.
         13    1    4    4    0    0  0.72643363136E+02  0.11940026116E+03 -0.68040595421E+02  0.15544453416E+03  0.00000000000E+00 0. -1.
        -14    1    4    4    0    0  0.37976123736E+02  0.40975086420E+02 -0.94691660474E+02  0.10994386861E+03  0.00000000000E+00 0.  1.
</event>
<event>
12    1  0.8494789E-002  0.1904854E+03  0.7818608E-02  0.1158044E+00
         21   -1    0    0  501  502  0.00000000000E+00  0.00000000000E+00  0.40820239865E+03  0.40820239865E+03  0.00000000000E+00 0. -1.
         21   -1    0    0  502  503 -0.00000000000E+00 -0.00000000000E+00 -0.12695856050E+03  0.12695856050E+03  0.00000000000E+00 0.  1.
         -6    2    1    2    0  503 -0.38932779567E+02  0.70213682225E+02  0.28724673664E+03  0.34466706457E+03  0.17273961675E+03 0.  0.
        -24    2    3    3    0    0 -0.20857921693E+01  0.38525244634E+02  0.28308266132E+03  0.29566413526E+03  0.76111383752E+02 0.  0.
          6    2    1    2  501    0  0.38932779567E+02 -0.70213682225E+02 -0.60028984911E+01  0.19049389458E+03  0.17264462513E+03 0.  0.
         24    2    5    5    0    0  0.32220311679E+01 -0.45163289143E+02 -0.68556428833E+02  0.11408830641E+03  0.79158407986E+02 0.  0.
          5    1    5    5  501    0  0.35710748399E+02 -0.25050393081E+02  0.62553530342E+02  0.76405588166E+02  0.47000000000E+01 0. -1.
        -11    1    6    6    0    0 -0.15813949452E+02 -0.54358372066E+02 -0.73106888380E+02  0.92463672539E+02  0.00000000000E+00 0.  1.
         12    1    6    6    0    0  0.19035980619E+02  0.91950829228E+01  0.45504595471E+01  0.21624633874E+02  0.00000000000E+00 0. -1.
         -5    1    3    3    0  503 -0.36846987398E+02  0.31688437591E+02  0.41640753134E+01  0.49002929305E+02  0.47000000000E+01 0.  1.
         11    1    4    4    0    0  0.18976567342E+02  0.42656307432E+02  0.89967591780E+02  0.10135994397E+03  0.00000000000E+00 0. -1.
        -12    1    4    4    0    0 -0.21062359512E+02 -0.41310627986E+01  0.19311506954E+03  0.19430419129E+03  0.00000000000E+00 0.  1.
</event>
<event>
12    1  0.8494789E-002  0.2199057E+03  0.7818608E-02  0.1134408E+00
         21   -1    0    0  503  502  0.00000000000E+00  0.00000000000E+00  0.26652430780E+04  0.26652430780E+04  0.00000000000E+00 0.  1.
         21   -1    0    0  501  503 -0.00000000000E+00 -0.00000000000E+00 -0.18667665759E+02  0.18667665759E+02  0.00000000000E+00 0.  1.
          6    2    1    2  501    0  0.13148302266E+03 -0.26183850101E+02  0.15803046309E+04  0.15951996260E+04  0.17124760123E+03 0.  0.
         24    2    3    3    0    0  0.22171625724E+02  0.19863059946E+02  0.98373779399E+03  0.98693703436E+03  0.73610735154E+02 0.  0.
         -6    2    1    2    0  502 -0.13148302266E+03  0.26183850101E+02  0.10662707813E+04  0.10887111178E+04  0.17431333756E+03 0.  0.
        -24    2    5    5    0    0 -0.97920956332E+02  0.82234348017E+02  0.72912475444E+03  0.74526155227E+03  0.86260489666E+02 0.  0.
          5    1    3    3  501    0  0.10931139694E+03 -0.46046910047E+02  0.59656683695E+03  0.60826259162E+03  0.47000000000E+01 0. -1.
        -13    1    4    4    0    0  0.13030652610E+02  0.40336908712E+02  0.31691255788E+03  0.31973494250E+03  0.00000000000E+00 0.  1.
         14    1    4    4    0    0  0.91409731139E+01 -0.20473848766E+02  0.66682523611E+03  0.66720209186E+03  0.00000000000E+00 0. -1.
         -5    1    5    5    0  502 -0.33562066330E+02 -0.56050497916E+02  0.33714602688E+03  0.34344956552E+03  0.47000000000E+01 0.  1.
         13    1    6    6    0    0 -0.34186039290E+01 -0.23648168535E+01  0.23757001496E+03  0.23760637874E+03  0.00000000000E+00 0. -1.
        -14    1    6    6    0    0 -0.94502352403E+02  0.84599164870E+02  0.49155473948E+03  0.50765517353E+03  0.00000000000E+00 0.  1.
</event>
<event>
12    1  0.8494789E-002  0.1893846E+03  0.7818608E-02  0.1159021E+00
         21   -1    0    0  503  502  0.00000000000E+00  0.00000000000E+00  0.29143260430E+03  0.29143260430E+03  0.00000000000E+00 0.  1.
         21   -1    0    0  501  503 -0.00000000000E+00 -0.00000000000E+00 -0.29802742804E+03  0.29802742804E+03  0.00000000000E+00 0.  1.
          6    2    1    2  501    0  0.41989985824E+02 -0.66453606730E+02 -0.22912425264E+03  0.29725138738E+03  0.17228239433E+03 0.  0.
         24    2    3    3    0    0  0.72133867492E+02 -0.45688732191E+01 -0.84742829983E+02  0.13723120412E+03  0.80167865809E+02 0.  0.
         -6    2    1    2    0  502 -0.41989985824E+02  0.66453606730E+02  0.22252942890E+03  0.29220864496E+03  0.17230004268E+03 0.  0.
        -24    2    5    5    0    0  0.20461650255E+02  0.88869959833E+02  0.16017122076E+03  0.20103114852E+03  0.80263029001E+02 0.  0.
          5    1    3    3  501    0 -0.30143881668E+02 -0.61884733511E+02 -0.14438142265E+03  0.16002018326E+03  0.47000000000E+01 0. -1.
        -11    1    4    4    0    0  0.22338538007E+02  0.82583732086E+01 -0.82382658482E+02  0.85756127634E+02  0.00000000000E+00 0.  1.
         12    1    4    4    0    0  0.49795329486E+02 -0.12827246428E+02 -0.23601715014E+01  0.51475076484E+02  0.00000000000E+00 0. -1.
         -5    1    5    5    0  502 -0.62451636079E+02 -0.22416353102E+02  0.62358208139E+02  0.91177496443E+02  0.47000000000E+01 0.  1.
         13    1    6    6    0    0  0.11531451730E+02 -0.98442484692E+01  0.52673001153E+02  0.54811756562E+02  0.00000000000E+00 0. -1.
        -14    1    6    6    0    0  0.89301985253E+01  0.98714208302E+02  0.10749821960E+03  0.14621939196E+03  0.00000000000E+00 0.  1.
</event>
<event>
12    1  0.8494789E-002  0.2735156E+03  0.7818608E-02  0.1099509E+00
         21   -1    0    0  501  502  0.00000000000E+00  0.00000000000E+00  0.51598723586E+03  0.51598723586E+03  0.00000000000E+00 0.  1.
         21   -1    0    0  502  503 -0.00000000000E+00 -0.00000000000E+00 -0.17354456485E+03  0.17354456485E+03  0.00000000000E+00 0. -1.
         -6    2    1    2    0  503  0.20288601163E+02  0.21018641225E+03  0.28897726105E+02  0.27345345436E+03  0.17132354740E+03 0.  0.
        -24    2    3    3    0    0 -0.27152358549E+02  0.76125969115E+02 -0.31289060353E+02  0.11896272215E+03  0.81490552923E+02 0.  0.
          6    2    1    2  501    0 -0.20288601163E+02 -0.21018641225E+03  0.31354494491E+03  0.41607834636E+03  0.17384131443E+03 0.  0.
         24    2    5    5    0    0  0.10418350155E+00 -0.19087664235E+03  0.32373838024E+03  0.38583385920E+03  0.87334555650E+02 0.  0.
          5    1    5    5  501    0 -0.20392784665E+02 -0.19309769898E+02 -0.10193435336E+02  0.30244487165E+02  0.47000000000E+01 0. -1.
        -13    1    6    6    0    0 -0.40712181261E+02 -0.62628463654E+02  0.13005726393E+03  0.14998232583E+03  0.00000000000E+00 0.  1.
         14    1    6    6    0    0  0.40816364762E+02 -0.12824817870E+03  0.19368111632E+03  0.23585153336E+03  0.00000000000E+00 0. -1.
         -5    1    3    3    0  503  0.47440959712E+02  0.13406044314E+03  0.60186786458E+02  0.15449073220E+03  0.47000000000E+01 0.  1.
         13    1    4    4    0    0  0.22173408144E+02  0.56737975521E+02 -0.23958348657E+02  0.65458844821E+02  0.00000000000E+00 0. -1.
        -14    1    4    4    0    0 -0.49325766693E+02  0.19387993594E+02 -0.73307116960E+01  0.53503877331E+02  0.00000000000E+00 0.  1.
</event>
<event>
12    1  0.8494789E-002  0.2996283E+03  0.7818608E-02  0.1085482E+00
         21   -1    0    0  503  502  0.00000000000E+00  0.00000000000E+00  0.20334971866E+03  0.20334971866E+03  0.00000000000E+00 0. -1.
         21   -1    0    0  501  503 -0.00000000000E+00 -0.00000000000E+00 -0.14024091558E+04  0.14024091558E+04  0.00000000000E+00 0.  1.
          6    2    1    2  501    0 -0.48285424816E+02  0.23973085628E+03 -0.12642087156E+04  0.12991295212E+04  0.17237015572E+03 0.  0.
         24    2    3    3    0    0 -0.21581279535E+02  0.17888628781E+03 -0.61962955864E+03  0.65111752096E+03  0.86874510444E+02 0.  0.
         -6    2    1    2    0  502  0.48285424816E+02 -0.23973085628E+03  0.65149278452E+02  0.30662935326E+03  0.17313222143E+03 0.  0.
        -24    2    5    5    0    0  0.87185632203E+02 -0.21759914469E+03  0.78722775110E+02  0.25962543211E+03  0.79103523588E+02 0.  0.
          5    1    3    3  501    0 -0.26704145281E+02  0.60844568469E+02 -0.64457915694E+03  0.64801200024E+03  0.47000000000E+01 0. -1.
        -13    1    4    4    0    0  0.48261643851E+01  0.81215785474E+00 -0.11906960388E+03  0.11917013901E+03  0.00000000000E+00 0.  1.
         14    1    4    4    0    0 -0.26407443920E+02  0.17807412995E+03 -0.50055995476E+03  0.53194738195E+03  0.00000000000E+00 0. -1.
         -5    1    5    5    0  502 -0.38900207387E+02 -0.22131711590E+02 -0.13573496657E+02  0.47003921158E+02  0.47000000000E+01 0.  1.
         13    1    6    6    0    0  0.72055774547E+02 -0.93873743574E+02  0.62784685006E+02  0.13396354373E+03  0.00000000000E+00 0. -1.
        -14    1    6    6    0    0  0.15129857656E+02 -0.12372540111E+03  0.15938090104E+02  0.12566188837E+03  0.00000000000E+00 0.  1.
</event>
<event>
12    1  0.8494789E-002  0.1944705E+03  0.7818608E-02  0.1155672E+00
         21   -1    0    0  501  502  0.00000000000E+00  0.00000000000E+00  0.26229613387E+03  0.26229613387E+03  0.00000000000E+00 0.  1.
         21   -1    0    0  502  503 -0.00000000000E+00 -0.00000000000E+00 -0.19463156436E+03  0.19463156436E+03  0.00000000000E+00 0. -1.
         -6    2    1    2    0  503  0.15843695592E+02 -0.90170942275E+02 -0.86569071217E+02  0.21286847974E+03  0.17157203750E+03 0.  0.
        -24    2    3    3    0    0  0.49488257788E+02 -0.11126239367E+03 -0.39445995618E+02  0.15106653688E+03  0.80229072601E+02 0.  0.
          6    2    1    2  501    0 -0.15843695592E+02  0.90170942275E+02  0.15423364072E+03  0.24405921849E+03  0.16551454522E+03 0.  0.
         24    2    5    5    0    0  0.16596973248E+02  0.10571781907E+03  0.67284969443E+02  0.14984529272E+03  0.80465072219E+02 0.  0.
          5    1    5    5  501    0 -0.32440668839E+02 -0.15546876793E+02  0.86948671278E+02  0.94213925774E+02  0.47000000000E+01 0. -1.
        -13    1    6    6    0    0  0.39377356186E+02  0.29050148092E+02  0.45814170728E+02  0.67033018162E+02  0.00000000000E+00 0.  1.
         14    1    6    6    0    0 -0.22780382938E+02  0.76667670976E+02  0.21470798716E+02  0.82812274557E+02  0.00000000000E+00 0. -1.
         -5    1    3    3    0  503 -0.33644562196E+02  0.21091451392E+02 -0.47123075599E+02  0.61801942859E+02  0.47000000000E+01 0.  1.
         11    1    4    4    0    0  0.61174917950E+02 -0.39314987370E+02 -0.15586981134E+02  0.74370644740E+02  0.00000000000E+00 0. -1.
        -12    1    4    4    0    0 -0.11686660163E+02 -0.71947406297E+02 -0.23859014484E+02  0.76695892137E+02  0.00000000000E+00 0.  1.
</event>
<event>
12    1  0.8494789E-002  0.2094417E+03  0.7818608E-02  0.1144682E+00
         21   -1    0    0  501  502  0.00000000000E+00  0.00000000000E+00  0.51399427723E+03  0.51399427723E+03  0.00000000000E+00 0.  1.
         21   -1    0    0  502  503 -0.00000000000E+00 -0.00000000000E+00 -0.12089786890E+03  0.12089786890E+03  0.00000000000E+00 0.  1.
         -6    2    1    2    0  503  0.54818108702E+02  0.77354201730E+02  0.80893897073E+01  0.19660429144E+03  0.17204392352E+03 0.  0.
        -24    2    3    3    0    0 -0.21796360430E+02  0.73838335820E+01  0.33131088850E+02  0.89764195994E+02  0.80189397726E+02 0.  0.
          6    2    1    2  501    0 -0.54818108702E+02 -0.77354201730E+02  0.38500701862E+03  0.43828785469E+03  0.18675422782E+03 0.  0.
         24    2    5    5    0    0 -0.92614126795E+02 -0.19291069745E+02  0.16377972773E+03  0.20641834285E+03  0.82675336092E+02 0.  0.
          5    1    5    5  501    0  0.37796018093E+02 -0.58063131985E+02  0.22122729090E+03  0.23186951183E+03  0.47000000000E+01 0. -1.
        -11    1    6    6    0    0 -0.50333990799E+02 -0.28285552463E+02  0.15050496700E+03  0.16119965323E+03  0.00000000000E+00 0.  1.
         12    1    6    6    0    0 -0.42280135996E+02  0.89944827182E+01  0.13274760724E+02  0.45218689626E+02  0.00000000000E+00 0. -1.
         -5    1    3    3    0  503  0.76614469132E+02  0.69970368148E+02 -0.25041699142E+02  0.10684009545E+03  0.47000000000E+01 0.  1.
         11    1    4    4    0    0 -0.11263379703E+02 -0.11577173213E+02 -0.23844130471E+02  0.28799951733E+02  0.00000000000E+00 0. -1.
        -12    1    4    4    0    0 -0.10532980728E+02  0.18961006795E+02  0.56975219320E+02  0.60964244261E+02  0.00000000000E+00 0.  1.
</event>
<event>
12    1  0.8494789E-002  0.2999658E+03  0.7818608E-02  0.1085661E+00
         21   -1    0    0  503  502  0.00000000000E+00  0.00000000000E+00  0.59054369070E+02  0.59054369070E+02  0.00000000000E+00 0.  1.
         21   -1    0    0  501  503 -0.00000000000E+00 -0.00000000000E+00 -0.15162499661E+04  0.15162499661E+04  0.00000000000E+00 0.  1.
          6    2    1    2  501    0  0.10197184925E+03  0.22482650285E+03 -0.78478521527E+03  0.83901958801E+03  0.16468400204E+03 0.  0.
         24    2    3    3    0    0  0.11684641503E+03  0.20477637240E+03 -0.55701536048E+03  0.60983743951E+03  0.77776239403E+02 0.  0.
         -6    2    1    2    0  502 -0.10197184925E+03 -0.22482650285E+03 -0.67241038172E+03  0.73628474712E+03  0.17039452157E+03 0.  0.
        -24    2    5    5    0    0 -0.12136075481E+02 -0.60902185795E+02 -0.12913028584E+03  0.16172665559E+03  0.74996798891E+02 0.  0.
          5    1    3    3  501    0 -0.14874565785E+02  0.20050130443E+02 -0.22776985479E+03  0.22918214850E+03  0.47000000000E+01 0. -1.
        -11    1    4    4    0    0  0.75412366544E+02  0.84681627375E+02 -0.33954257964E+03  0.35797648866E+03  0.00000000000E+00 0.  1.
         12    1    4    4    0    0  0.41434048490E+02  0.12009474503E+03 -0.21747278083E+03  0.25186095085E+03  0.00000000000E+00 0. -1.
         -5    1    5    5    0  502 -0.89835773767E+02 -0.16392431705E+03 -0.54328009588E+03  0.57455809154E+03  0.47000000000E+01 0.  1.
         13    1    6    6    0    0  0.16693055404E+01  0.94474477833E+01 -0.64480708948E+02  0.65190510637E+02  0.00000000000E+00 0. -1.
        -14    1    6    6    0    0 -0.13805381022E+02 -0.70349633578E+02 -0.64649576890E+02  0.96536144950E+02  0.00000000000E+00 0.  1.
</event>
<event>
12    1  0.8494789E-002  0.2316451E+03  0.7818608E-02  0.1125984E+00
         21   -1    0    0  501  502  0.00000000000E+00  0.00000000000E+00  0.11035760032E+03  0.11035760032E+03  0.00000000000E+00 0.  1.
         21   -1    0    0  502  503 -0.00000000000E+00 -0.00000000000E+00 -0.82788119701E+03  0.82788119701E+03  0.00000000000E+00 0. -1.
         -6    2    1    2    0  503 -0.71522385499E+02  0.13346359289E+03 -0.66399990872E+03  0.70324628043E+03  0.17530393582E+03 0.  0.
        -24    2    3    3    0    0 -0.12147728156E+02  0.41213084117E+02 -0.48466508753E+03  0.49296414997E+03  0.79166410041E+02 0.  0.
          6    2    1    2  501    0  0.71522385499E+02 -0.13346359289E+03 -0.53523687968E+02  0.23499251690E+03  0.17154799785E+03 0.  0.
         24    2    5    5    0    0  0.78618366420E+02 -0.11951007295E+03  0.14883047932E+02  0.16466026838E+03  0.80174770307E+02 0.  0.
          5    1    5    5  501    0 -0.70959809206E+01 -0.13953519945E+02 -0.68406735901E+02  0.70332248511E+02  0.47000000000E+01 0. -1.
        -11    1    6    6    0    0 -0.37561856950E+01  0.10819133729E+01  0.18166510821E+02  0.18582292187E+02  0.00000000000E+00 0.  1.
         12    1    6    6    0    0  0.82374552115E+02 -0.12059198632E+03 -0.32834628891E+01  0.14607797620E+03  0.00000000000E+00 0. -1.
         -5    1    3    3    0  503 -0.59374657343E+02  0.92250508777E+02 -0.17933482118E+03  0.21028213047E+03  0.47000000000E+01 0.  1.
         11    1    4    4    0    0  0.29212458478E+02 -0.24408237803E+01 -0.18720624442E+03  0.18948747531E+03  0.00000000000E+00 0. -1.
        -12    1    4    4    0    0 -0.41360186634E+02  0.43653907897E+02 -0.29745884311E+03  0.30347667466E+03  0.00000000000E+00 0.  1.
</event>
<event>
12    1  0.8494789E-002  0.2221706E+03  0.7818608E-02  0.1132414E+00
         21   -1    0    0  503  502  0.00000000000E+00  0.00000000000E+00  0.38666795984E+03  0.38666795984E+03  0.00000000000E+00 0.  1.
         21   -1    0    0  501  503 -0.00000000000E+00 -0.00000000000E+00 -0.15704100999E+03  0.15704100999E+03  0.00000000000E+00 0.  1.
          6    2    1    2  501    0  0.12059187219E+03 -0.70496308107E+02 -0.38087891932E+01  0.22144820915E+03  0.17179253000E+03 0.  0.
         24    2    3    3    0    0  0.21021562958E+02  0.10508545397E+02  0.41402287347E+01  0.92757457113E+02  0.89635198001E+02 0.  0.
         -6    2    1    2    0  502 -0.12059187219E+03  0.70496308107E+02  0.23343573904E+03  0.32226076068E+03  0.17276465066E+03 0.  0.
        -24    2    5    5    0    0 -0.12590980120E+03  0.51594905113E+02  0.99578809163E+02  0.18688974798E+03  0.80601032196E+02 0.  0.
          5    1    3    3  501    0  0.99570309236E+02 -0.81004853504E+02 -0.79490179279E+01  0.12869075203E+03  0.47000000000E+01 0. -1.
        -11    1    4    4    0    0 -0.30525370588E+02  0.45340586066E+01 -0.18675455466E+02  0.36071159863E+02  0.00000000000E+00 0.  1.
         12    1    4    4    0    0  0.51546933546E+02  0.59744867905E+01  0.22815684200E+02  0.56686297251E+02  0.00000000000E+00 0. -1.
         -5    1    5    5    0  502  0.53179290103E+01  0.18901402994E+02  0.13385692988E+03  0.13537101270E+03  0.47000000000E+01 0.  1.
         13    1    6    6    0    0 -0.17385252758E+02  0.39697348530E+02  0.52287336707E+02  0.67912385275E+02  0.00000000000E+00 0. -1.
        -14    1    6    6    0    0 -0.10852454845E+03  0.11897556584E+02  0.47291472455E+02  0.11897736270E+03  0.00000000000E+00 0.  1.
</event>
<event>
12    1  0.8494789E-002  0.1893648E+03  0.7818608E-02  0.1159215E+00
         21   -1    0    0  501  502  0.00000000000E+00  0.00000000000E+00  0.27853331566E+03  0.27853331566E+03  0.00000000000E+00 0.  1.
         21   -1    0    0  502  503 -0.00000000000E+00 -0.00000000000E+00 -0.19723359786E+03  0.19723359786E+03  0.00000000000E+00 0.  1.
         -6    2    1    2    0  503 -0.37766931555E+02 -0.68103915122E+02 -0.10002571699E+03  0.21415919705E+03  0.17261093026E+03 0.  0.
        -24    2    3    3    0    0 -0.81529345160E+02 -0.63958452068E+02 -0.34391264342E+02  0.13502446963E+03  0.79442624726E+02 0.  0.
          6    2    1    2  501    0  0.37766931555E+02  0.68103915122E+02  0.18132543480E+03  0.26160771647E+03  0.17174166541E+03 0.  0.
         24    2    5    5    0    0  0.28279785012E+02  0.86883291880E+00  0.17493067281E+03  0.19324438413E+03  0.77085346193E+02 0.  0.
          5    1    5    5  501    0  0.94871465428E+01  0.67235082204E+02  0.63947619941E+01  0.68363332346E+02  0.47000000000E+01 0. -1.
        -11    1    6    6    0    0  0.10582922030E+02  0.36686581747E+02  0.55962938596E+02  0.67747723321E+02  0.00000000000E+00 0.  1.
         12    1    6    6    0    0  0.17696862983E+02 -0.35817748828E+02  0.11896773421E+03  0.12549666081E+03  0.00000000000E+00 0. -1.
         -5    1    3    3    0  503  0.43762413605E+02 -0.41454630541E+01 -0.65634452649E+02  0.79134727415E+02  0.47000000000E+01 0.  1.
         11    1    4    4    0    0  0.72452486848E+00 -0.20646964947E+02  0.18790624632E+02  0.27926862908E+02  0.00000000000E+00 0. -1.
        -12    1    4    4    0    0 -0.82253870029E+02 -0.43311487121E+02 -0.53181888974E+02  0.10709760673E+03  0.00000000000E+00 0.  1.
</event>
<event>
12    1  0.8494789E-002  0.1781234E+03  0.7818608E-02  0.1169759E+00
         21   -1    0    0  503  502  0.00000000000E+00  0.00000000000E+00  0.92215918755E+03  0.92215918755E+03  0.00000000000E+00 0. -1.
         21   -1    0    0  501  503 -0.00000000000E+00 -0.00000000000E+00 -0.43563079772E+02  0.43563079772E+02  0.00000000000E+00 0. -1.
          6    2    1    2  501    0 -0.37150069398E+02 -0.24787970127E+02  0.21721748219E+03  0.28091166409E+03  0.17243363167E+03 0.  0.
         24    2    3    3    0    0  0.26390173355E+02  0.32451141575E+02  0.13028696918E+03  0.15887608547E+03  0.80730405394E+02 0.  0.
         -6    2    1    2    0  502  0.37150069398E+02  0.24787970127E+02  0.66137862559E+03  0.68481060324E+03  0.17189911227E+03 0.  0.
        -24    2    5    5    0    0 -0.17995632003E+02  0.13838598478E+02  0.58000223196E+03  0.58578967332E+03  0.78940501031E+02 0.  0.
          5    1    3    3  501    0 -0.63540242754E+02 -0.57239111703E+02  0.86930513004E+02  0.12203557862E+03  0.47000000000E+01 0. -1.
        -11    1    4    4    0    0  0.34432243007E+02 -0.15686428059E+02  0.81567353690E+02  0.89915941700E+02  0.00000000000E+00 0.  1.
         12    1    4    4    0    0 -0.80420696520E+01  0.48137569634E+02  0.48719615493E+02  0.68960143767E+02  0.00000000000E+00 0. -1.
         -5    1    5    5    0  502  0.55145701401E+02  0.10949371650E+02  0.81376393632E+02  0.99020929924E+02  0.47000000000E+01 0.  1.
         13    1    6    6    0    0 -0.12760820135E+02 -0.26271532331E+02  0.41009575200E+03  0.41113447648E+03  0.00000000000E+00 0. -1.
        -14    1    6    6    0    0 -0.52348118673E+01  0.40110130808E+02  0.16990647996E+03  0.17465519684E+03  0.00000000000E+00 0.  1.
</event>
<event>
12    1  0.8494789E-002  0.2039989E+03  0.7818608E-02  0.1146572E+00
         21   -1    0    0  501  502  0.00000000000E+00  0.00000000000E+00  0.10637450415E+04  0.10637450415E+04  0.00000000000E+00 0.  1.
         21   -1    0    0  502  503 -0.00000000000E+00 -0.00000000000E+00 -0.13291489252E+03  0.13291489252E+03  0.00000000000E+00 0.  1.
         -6    2    1    2    0  503  0.31494699153E+02  0.10599084972E+03 -0.37879797837E+02  0.20670311506E+03  0.17048554893E+03 0.  0.
        -24    2    3    3    0    0 -0.71144924650E+01  0.12476302321E+03  0.16061591239E+01  0.14818563928E+03  0.79623966096E+02 0.  0.
          6    2    1    2  501    0 -0.31494699153E+02 -0.10599084972E+03  0.96870994683E+03  0.98995681897E+03  0.17143385328E+03 0.  0.
         24    2    5    5    0    0 -0.69623978077E+02 -0.10036002719E+03  0.89532661437E+03  0.90693422231E+03  0.77461628066E+02 0.  0.
          5    1    5    5  501    0  0.38129278924E+02 -0.56308225304E+01  0.73383332461E+02  0.83022596663E+02  0.47000000000E+01 0. -1.
        -11    1    6    6    0    0 -0.37381798944E+02 -0.72273941046E+02  0.77453840189E+03  0.77880078162E+03  0.00000000000E+00 0.  1.
         12    1    6    6    0    0 -0.32242179134E+02 -0.28086086146E+02  0.12078821248E+03  0.12813344069E+03  0.00000000000E+00 0. -1.
         -5    1    3    3    0  503  0.38609191618E+02 -0.18772173493E+02 -0.39485956961E+02  0.58517475784E+02  0.47000000000E+01 0.  1.
         11    1    4    4    0    0 -0.42619433065E+02  0.78493847055E+02  0.71339428135E+01  0.89602417603E+02  0.00000000000E+00 0. -1.
        -12    1    4    4    0    0  0.35504940600E+02  0.46269176160E+02 -0.55277836896E+01  0.58583221677E+02  0.00000000000E+00 0.  1.
</event>
<event>
12    1  0.8494789E-002  0.3606305E+03  0.7818608E-02  0.1058345E+00
         21   -1    0    0  503  502  0.00000000000E+00  0.00000000000E+00  0.75148008710E+03  0.75148008710E+03  0.00000000000E+00 0.  1.
         21   -1    0    0  501  503 -0.00000000000E+00 -0.00000000000E+00 -0.23366600359E+03  0.23366600359E+03  0.00000000000E+00 0. -1.
          6    2    1    2  501    0 -0.42175572104E+02 -0.31367666909E+03  0.79184628388E+01  0.36060791209E+03  0.17263699662E+03 0.  0.
         24    2    3    3    0    0 -0.62678388374E+02 -0.19744351155E+03  0.60813972824E+02  0.23118404504E+03  0.82675285121E+02 0.  0.
         -6    2    1    2    0  502  0.42175572104E+02  0.31367666909E+03  0.50989562067E+03  0.62453817860E+03  0.17286573096E+03 0.  0.
        -24    2    5    5    0    0  0.36930533289E+02  0.87500177092E+02  0.11622524770E+03  0.17046575209E+03  0.80809152655E+02 0.  0.
          5    1    3    3  501    0  0.20502816270E+02 -0.11623315754E+03 -0.52895509985E+02  0.12942386705E+03  0.47000000000E+01 0. -1.
        -13    1    4    4    0    0 -0.36889580025E+02 -0.17679741788E+02  0.17453583567E+02  0.44475183681E+02  0.00000000000E+00 0.  1.
         14    1    4    4    0    0 -0.25788808349E+02 -0.17976376976E+03  0.43360389257E+02  0.18670886136E+03  0.00000000000E+00 0. -1.
         -5    1    5    5    0  502  0.52450388146E+01  0.22617649199E+03  0.39367037297E+03  0.45407242651E+03  0.47000000000E+01 0.  1.
         13    1    6    6    0    0 -0.74684000709E+01  0.18626240361E+02  0.77083690590E+02  0.79653055087E+02  0.00000000000E+00 0. -1.
        -14    1    6    6    0    0  0.44398933360E+02  0.68873936732E+02  0.39141557113E+02  0.90812697007E+02  0.00000000000E+00 0.  1.
</event>
<event>
12    1  0.8494789E-002  0.1868597E+03  0.7818608E-02  0.1161490E+00
         21   -1    0    0  503  502  0.00000000000E+00  0.00000000000E+00  0.77685027790E+02  0.77685027790E+02  0.00000000000E+00 0.  1.
         21   -1    0    0  501  503 -0.00000000000E+00 -0.00000000000E+00 -0.44978230741E+03  0.44978230741E+03  0.00000000000E+00 0.  1.
          6    2    1    2  501    0 -0.38469087556E+02  0.59690279594E+02 -0.20416224480E+03  0.27676480157E+03  0.17284019500E+03 0.  0.
         24    2    3    3    0    0 -0.46231159587E+02  0.47098414468E+02 -0.43202410483E+02  0.11505839139E+03  0.83763980293E+02 0.  0.
         -6    2    1    2    0  502  0.38469087556E+02 -0.59690279594E+02 -0.16793503481E+03  0.25070253363E+03  0.17206622061E+03 0.  0.
        -24    2    5    5    0    0 -0.73472535063E+01 -0.92850340653E+01 -0.17082851876E+03  0.18236302723E+03  0.62719190746E+02 0.  0.
          5    1    3    3  501    0  0.77620720315E+01  0.12591865126E+02 -0.16095983432E+03  0.16170641018E+03  0.47000000000E+01 0. -1.
        -11    1    4    4    0    0  0.23867274516E+02  0.14289472402E+02 -0.33935547239E+01  0.28024132958E+02  0.00000000000E+00 0.  1.
         12    1    4    4    0    0 -0.70098434103E+02  0.32808942065E+02 -0.39808855759E+02  0.87034258428E+02  0.00000000000E+00 0. -1.
         -5    1    5    5    0  502  0.45816341062E+02 -0.50405245529E+02  0.28934839477E+01  0.68339506396E+02  0.47000000000E+01 0.  1.
         13    1    6    6    0    0  0.27633653177E+02 -0.30022592798E+01 -0.86325124628E+02  0.90689908428E+02  0.00000000000E+00 0. -1.
        -14    1    6    6    0    0 -0.34980906684E+02 -0.62827747855E+01 -0.84503394133E+02  0.91673118805E+02  0.00000000000E+00 0.  1.
</event>
<event>
12    1  0.8494789E-002  0.2034245E+03  0.7818608E-02  0.1147068E+00
         21   -1    0    0  503  502  0.00000000000E+00  0.00000000000E+00  0.33754623294E+03  0.33754623294E+03  0.00000000000E+00 0. -1.
         21   -1    0    0  501  503 -0.00000000000E+00 -0.00000000000E+00 -0.12216786900E+03  0.12216786900E+03  0.00000000000E+00 0. -1.
          6    2    1    2  501    0 -0.69786486973E+02  0.81737626153E+02  0.10087226425E+03  0.22706113675E+03  0.17271465726E+03 0.  0.
         24    2    3    3    0    0 -0.12095141808E+02  0.74868848216E+02  0.12260553714E+03  0.16485264401E+03  0.79953984342E+02 0.  0.
         -6    2    1    2    0  502  0.69786486973E+02 -0.81737626153E+02  0.11450609969E+03  0.23265296520E+03  0.17165244553E+03 0.  0.
        -24    2    5    5    0    0  0.75574532287E+02 -0.27957749646E+01  0.10642326873E+03  0.15294889069E+03  0.79675120004E+02 0.  0.
          5    1    3    3  501    0 -0.57691345165E+02  0.68687779372E+01 -0.21733272895E+02  0.62208492732E+02  0.47000000000E+01 0. -1.
        -13    1    4    4    0    0 -0.34222160706E+01 -0.13185819635E+02  0.45479884951E+02  0.47476281841E+02  0.00000000000E+00 0.  1.
         14    1    4    4    0    0 -0.86729257376E+01  0.88054667851E+02  0.77125652190E+02  0.11737636217E+03  0.00000000000E+00 0. -1.
         -5    1    5    5    0  502 -0.57880453136E+01 -0.78941851188E+02  0.80828309620E+01  0.79704074513E+02  0.47000000000E+01 0.  1.
         11    1    6    6    0    0  0.25635091951E+01  0.19523258008E+02  0.61028304904E+02  0.64126306474E+02  0.00000000000E+00 0. -1.
        -12    1    6    6    0    0  0.73011023092E+02 -0.22319032972E+02  0.45394963827E+02  0.88822584214E+02  0.00000000000E+00 0.  1.
</event>
<event>
12    1  0.8494789E-002  0.2185695E+03  0.7818608E-02  0.1135013E+00
         21   -1    0    0  503  502  0.00000000000E+00  0.00000000000E+00  0.37362589703E+02  0.37362589703E+02  0.00000000000E+00 0. -1.
         21   -1    0    0  501  503 -0.00000000000E+00 -0.00000000000E+00 -0.16876290701E+04  0.16876290701E+04  0.00000000000E+00 0. -1.
          6    2    1    2  501    0 -0.11617516865E+03 -0.63399527412E+02 -0.12511448882E+04  0.12700929718E+04  0.17394383013E+03 0.  0.
         24    2    3    3    0    0 -0.13781647909E+01 -0.69330981875E+02 -0.66927080006E+03  0.67695464171E+03  0.74400932415E+02 0.  0.
         -6    2    1    2    0  502  0.11617516865E+03  0.63399527412E+02 -0.39912159228E+03  0.45489868802E+03  0.17354711477E+03 0.  0.
        -24    2    5    5    0    0  0.10486663427E+03  0.55402265336E+02 -0.41120214740E+03  0.43592847550E+03  0.82945812059E+02 0.  0.
          5    1    3    3  501    0 -0.11479700386E+03  0.59314544639E+01 -0.58187408811E+03  0.59313833012E+03  0.47000000000E+01 0. -1.
        -13    1    4    4    0    0  0.33156443321E+02 -0.25270066397E+02 -0.38293716666E+03  0.38519968796E+03  0.00000000000E+00 0.  1.
         14    1    4    4    0    0 -0.34534608112E+02 -0.44060915478E+02 -0.28633363339E+03  0.29175495376E+03  0.00000000000E+00 0. -1.
         -5    1    5    5    0  502  0.11308534385E+02  0.79972620757E+01  0.12080555123E+02  0.18970212512E+02  0.47000000000E+01 0.  1.
         11    1    6    6    0    0  0.83563028067E+01  0.85364775187E+01 -0.10675354962E+01  0.11993284665E+02  0.00000000000E+00 0. -1.
        -12    1    6    6    0    0  0.96510331462E+02  0.46865787817E+02 -0.41013461191E+03  0.42393519084E+03  0.00000000000E+00 0.  1.
</event>
<event>
12    1  0.8494789E-002  0.1950148E+03  0.7818608E-02  0.1154860E+00
         21   -1    0    0  503  502  0.00000000000E+00  0.00000000000E+00  0.18135548726E+04  0.18135548726E+04  0.00000000000E+00 0.  1.
         21   -1    0    0  501  503 -0.00000000000E+00 -0.00000000000E+00 -0.31615624550E+02  0.31615624550E+02  0.00000000000E+00 0. -1.
          6    2    1    2  501    0 -0.76391487457E+01 -0.81988453787E+02  0.35117022299E+03  0.40168556361E+03  0.17677755330E+03 0.  0.
         24    2    3    3    0    0 -0.55354213816E+02 -0.68079467533E+02  0.32388007194E+03  0.34479066334E+03  0.79267885277E+02 0.  0.
         -6    2    1    2    0  502  0.76391487457E+01  0.81988453787E+02  0.14307690251E+04  0.14434849336E+04  0.17253488669E+03 0.  0.
        -24    2    5    5    0    0  0.35214316775E+02 -0.11252866224E+02  0.83327432076E+03  0.83811203580E+03  0.81969602948E+02 0.  0.
          5    1    3    3  501    0  0.47715065070E+02 -0.13908986254E+02  0.27290151049E+02  0.56894900277E+02  0.47000000000E+01 0. -1.
        -13    1    4    4    0    0  0.97011232254E+01 -0.36374228697E+02  0.17810369090E+03  0.18203878987E+03  0.00000000000E+00 0.  1.
         14    1    4    4    0    0 -0.65055337041E+02 -0.31705238837E+02  0.14577638104E+03  0.16275187347E+03  0.00000000000E+00 0. -1.
         -5    1    5    5    0  502 -0.27575168029E+02  0.93241320011E+02  0.59749470433E+03  0.60537289777E+03  0.47000000000E+01 0.  1.
         11    1    6    6    0    0  0.18976591982E+02 -0.34969357143E+02  0.72489869847E+03  0.72598973135E+03  0.00000000000E+00 0. -1.
        -12    1    6    6    0    0  0.16237724793E+02  0.23716490919E+02  0.10837562229E+03  0.11212230445E+03  0.00000000000E+00 0.  1.
</event>
<event>
12    1  0.8494789E-002  0.1723825E+03  0.7818608E-02  0.1175445E+00
         21   -1    0    0  503  502  0.00000000000E+00  0.00000000000E+00  0.39360387469E+03  0.39360387469E+03  0.00000000000E+00 0. -1.
         21   -1    0    0  501  503 -0.00000000000E+00 -0.00000000000E+00 -0.23565101684E+03  0.23565101684E+03  0.00000000000E+00 0. -1.
          6    2    1    2  501    0  0.67992891752E+00 -0.61821899022E+01 -0.18046513252E+03  0.24956640641E+03  0.17227026840E+03 0.  0.
         24    2    3    3    0    0  0.22784427692E+02  0.23874918638E+02 -0.26116059325E+02  0.90702423590E+02  0.80347614808E+02 0.  0.
         -6    2    1    2    0  502 -0.67992891752E+00  0.61821899022E+01  0.33841799037E+03  0.37968848511E+03  0.17204048287E+03 0.  0.
        -24    2    5    5    0    0 -0.31130335368E+02 -0.49641654899E+02  0.26331669849E+03  0.28117035001E+03  0.79294957862E+02 0.  0.
          5    1    3    3  501    0 -0.22104498775E+02 -0.30057108540E+02 -0.15434907320E+03  0.15886398282E+03  0.47000000000E+01 0. -1.
        -13    1    4    4    0    0 -0.25889031018E+02 -0.97652620197E+01 -0.73210247516E+01  0.28621664396E+02  0.00000000000E+00 0.  1.
         14    1    4    4    0    0  0.48673458711E+02  0.33640180658E+02 -0.18795034573E+02  0.62080759194E+02  0.00000000000E+00 0. -1.
         -5    1    5    5    0  502  0.30450406450E+02  0.55823844801E+02  0.75101291881E+02  0.98518135100E+02  0.47000000000E+01 0.  1.
         11    1    6    6    0    0 -0.46051184422E+02 -0.73578833471E+01  0.81434132470E+02  0.93842250426E+02  0.00000000000E+00 0. -1.
        -12    1    6    6    0    0  0.14920849054E+02 -0.42283771552E+02  0.18188256602E+03  0.18732809959E+03  0.00000000000E+00 0.  1.
</event>
<event>
12    1  0.8494789E-002  0.1988385E+03  0.7818608E-02  0.1151728E+00
         21   -1    0    0  501  502  0.00000000000E+00  0.00000000000E+00  0.56851641038E+02  0.56851641038E+02  0.00000000000E+00 0. -1.
         21   -1    0    0  502  503 -0.00000000000E+00 -0.00000000000E+00 -0.72827636878E+03  0.72827636878E+03  0.00000000000E+00 0.  1.
         -6    2    1    2    0  503 -0.90319888256E+02  0.37099464899E+02 -0.23753556204E+03  0.30977393752E+03  0.17321286506E+03 0.  0.
        -24    2    3    3    0    0 -0.12482074728E+03  0.16063560857E+02 -0.13939024453E+03  0.20353170542E+03  0.78468196752E+02 0.  0.
          6    2    1    2  501    0  0.90319888256E+02 -0.37099464899E+02 -0.43388916570E+03  0.47535407230E+03  0.16783215850E+03 0.  0.
         24    2    5    5    0    0  0.47124051196E+02 -0.86949258416E+02 -0.26436704043E+03  0.29339055066E+03  0.80045196029E+02 0.  0.
          5    1    5    5  501    0  0.43195837060E+02  0.49849793517E+02 -0.16952212527E+03  0.18196352164E+03  0.47000000000E+01 0. -1.
        -11    1    6    6    0    0 -0.45767090830E+01 -0.14696438861E+02 -0.13834760554E+03  0.13920126271E+03  0.00000000000E+00 0.  1.
         12    1    6    6    0    0  0.51700760279E+02 -0.72252819555E+02 -0.12601943489E+03  0.15418928795E+03  0.00000000000E+00 0. -1.
         -5    1    3    3    0  503  0.34500859026E+02  0.21035904042E+02 -0.98145317507E+02  0.10624223210E+03  0.47000000000E+01 0.  1.
         11    1    4    4    0    0 -0.11393745013E+03 -0.13730584048E+02 -0.12143381062E+03  0.16708214100E+03  0.00000000000E+00 0. -1.
        -12    1    4    4    0    0 -0.10883297153E+02  0.29794144905E+02 -0.17956433915E+02  0.36449564421E+02  0.00000000000E+00 0.  1.
</event>
<event>
12    1  0.8494789E-002  0.1827161E+03  0.7818608E-02  0.1165524E+00
         21   -1    0    0  501  502  0.00000000000E+00  0.00000000000E+00  0.13011368196E+03  0.13011368196E+03  0.00000000000E+00 0.  1.
         21   -1    0    0  502  503 -0.00000000000E+00 -0.00000000000E+00 -0.25467923398E+03  0.25467923398E+03  0.00000000000E+00 0. -1.
         -6    2    1    2    0  503  0.14246994299E+02 -0.58048168482E+02 -0.63214569136E+02  0.19334228853E+03  0.17266323312E+03 0.  0.
        -24    2    3    3    0    0  0.74182740769E+02 -0.57129413270E+02 -0.41134000475E+02  0.12928934692E+03  0.79100444653E+02 0.  0.
          6    2    1    2  501    0 -0.14246994299E+02  0.58048168482E+02 -0.61350982877E+02  0.19145062741E+03  0.17122159013E+03 0.  0.
         24    2    5    5    0    0  0.19612033394E+02  0.41769248713E+02  0.19835941183E+02  0.10186913589E+03  0.88625923365E+02 0.  0.
          5    1    5    5  501    0 -0.33859027693E+02  0.16278919770E+02 -0.81186924061E+02  0.89581491524E+02  0.47000000000E+01 0. -1.
        -13    1    6    6    0    0  0.17555496492E+01  0.56020017197E+02 -0.16960295303E+02  0.58557458091E+02  0.00000000000E+00 0.  1.
         14    1    6    6    0    0  0.17856483745E+02 -0.14250768484E+02  0.36796236487E+02  0.43311677798E+02  0.00000000000E+00 0. -1.
         -5    1    3    3    0  503 -0.59935746470E+02 -0.91875521272E+00 -0.22080568661E+02  0.64052941606E+02  0.47000000000E+01 0.  1.
         13    1    4    4    0    0  0.50757634205E+02  0.20821331314E+01  0.44250267916E+01  0.50992681540E+02  0.00000000000E+00 0. -1.
        -14    1    4    4    0    0  0.23425106563E+02 -0.59211546401E+02 -0.45559027267E+02  0.78296665384E+02  0.00000000000E+00 0.  1.
</event>
<event>
12    1  0.8494789E-002  0.2103615E+03  0.7818608E-02  0.1141429E+00
         21   -1    0    0  501  502  0.00000000000E+00  0.00000000000E+00  0.12804678546E+04  0.12804678546E+04  0.00000000000E+00 0.  1.
         21   -1    0    0  502  503 -0.00000000000E+00 -0.00000000000E+00 -0.37398619732E+02  0.37398619732E+02  0.00000000000E+00 0.  1.
         -6    2    1    2    0  503 -0.86837888984E+02 -0.81962516182E+02  0.43708190713E+03  0.48506963506E+03  0.17318569312E+03 0.  0.
        -24    2    3    3    0    0 -0.25187688012E+02  0.14219924030E+02  0.11106075380E+03  0.13957912650E+03  0.79443159901E+02 0.  0.
          6    2    1    2  501    0  0.86837888984E+02  0.81962516182E+02  0.80598732773E+03  0.83279683926E+03  0.17226819206E+03 0.  0.
         24    2    5    5    0    0  0.10423595732E+03  0.11329023545E+03  0.65730000158E+03  0.67978007634E+03  0.79736113952E+02 0.  0.
          5    1    5    5  501    0 -0.17398068333E+02 -0.31327719263E+02  0.14868732615E+03  0.15301676292E+03  0.47000000000E+01 0. -1.
        -11    1    6    6    0    0  0.16878723326E+02  0.59501974007E+02  0.15072263132E+03  0.16291926775E+03  0.00000000000E+00 0.  1.
         12    1    6    6    0    0  0.87357233990E+02  0.53788261439E+02  0.50657737026E+03  0.51686080859E+03  0.00000000000E+00 0. -1.
         -5    1    3    3    0  503 -0.61650200972E+02 -0.96182440212E+02  0.32602115333E+03  0.34549050856E+03  0.47000000000E+01 0.  1.
         13    1    4    4    0    0 -0.25623266470E+02  0.12348322842E+01  0.12070347474E+03  0.12339937362E+03  0.00000000000E+00 0. -1.
        -14    1    4    4    0    0  0.43557845809E+00  0.12985091746E+02 -0.96427209434E+01  0.16179752885E+02  0.00000000000E+00 0.  1.
</event>
<event>
12    1  0.8494789E-002  0.3459405E+03  0.7818608E-02  0.1064330E+00
         21   -1    0    0  501  502  0.00000000000E+00  0.00000000000E+00  0.47166145107E+03  0.47166145107E+03  0.00000000000E+00 0.  1.
         21   -1    0    0  502  503 -0.00000000000E+00 -0.00000000000E+00 -0.26051845910E+03  0.26051845910E+03  0.00000000000E+00 0.  1.
         -6    2    1    2    0  503  0.13877389387E+03  0.26618598238E+03  0.16580683222E+03  0.38362319425E+03  0.17193510032E+03 0.  0.
        -24    2    3    3    0    0  0.60818053733E+02  0.21135110348E+03  0.16912650804E+03  0.28813975483E+03  0.77798573202E+02 0.  0.
          6    2    1    2  501    0 -0.13877389387E+03 -0.26618598238E+03  0.45336159752E+02  0.34855671593E+03  0.17124031652E+03 0.  0.
         24    2    5    5    0    0 -0.81409833336E+02 -0.19495099307E+03 -0.32814340322E+02  0.22816298766E+03  0.79675073559E+02 0.  0.
          5    1    5    5  501    0 -0.57364060537E+02 -0.71234989310E+02  0.78150500074E+02  0.12039372826E+03  0.47000000000E+01 0. -1.
        -11    1    6    6    0    0 -0.82153035207E+02 -0.14882487693E+03  0.25858145056E+01  0.17001368069E+03  0.00000000000E+00 0.  1.
         12    1    6    6    0    0  0.74320187148E+00 -0.46126116140E+02 -0.35400154828E+02  0.58149306969E+02  0.00000000000E+00 0. -1.
         -5    1    3    3    0  503  0.77955840140E+02  0.54834878900E+02 -0.33196758193E+01  0.95483439420E+02  0.47000000000E+01 0.  1.
         11    1    4    4    0    0  0.52556083380E+02  0.74251977418E+02  0.97084349323E+02  0.13304461257E+03  0.00000000000E+00 0. -1.
        -12    1    4    4    0    0  0.82619703526E+01  0.13709912606E+03  0.72042158714E+02  0.15509514226E+03  0.00000000000E+00 0.  1.
</event>
<event>
12    1  0.8494789E-002  0.2293261E+03  0.7818608E-02  0.1127826E+00
         21   -1    0    0  501  502  0.00000000000E+00  0.00000000000E+00  0.16240055925E+03  0.16240055925E+03  0.00000000000E+00 0. -1.
         21   -1    0    0  502  503 -0.00000000000E+00 -0.00000000000E+00 -0.32904074312E+03  0.32904074312E+03  0.00000000000E+00 0.  1.
         -6    2    1    2    0  503  0.12874887171E+03 -0.77230472503E+02 -0.12716147460E+03  0.25874185323E+03  0.16803716298E+03 0.  0.
        -24    2    3    3    0    0  0.11250434184E+03 -0.50570936234E+02 -0.22216960545E+02  0.14915144920E+03  0.80857374059E+02 0.  0.
          6    2    1    2  501    0 -0.12874887171E+03  0.77230472503E+02 -0.39478709272E+02  0.23269944914E+03  0.17334834090E+03 0.  0.
         24    2    5    5    0    0 -0.15050749240E+02 -0.94158521195E+01  0.63901428802E+01  0.82496618864E+02  0.80309867850E+02 0.  0.
          5    1    5    5  501    0 -0.11369812247E+03  0.86646324623E+02 -0.45868852152E+02  0.15020283027E+03  0.47000000000E+01 0. -1.
        -13    1    6    6    0    0 -0.33482541202E+01 -0.27835416199E+02 -0.29370331481E+02  0.40603418229E+02  0.00000000000E+00 0.  1.
         14    1    6    6    0    0 -0.11702495119E+02  0.18419564079E+02  0.35760474361E+02  0.41893200634E+02  0.00000000000E+00 0. -1.
         -5    1    3    3    0  503  0.16244529873E+02 -0.26659536269E+02 -0.10494451406E+03  0.10959040403E+03  0.47000000000E+01 0.  1.
         11    1    4    4    0    0  0.49646357037E+02 -0.59573264071E+02 -0.33817472545E+02  0.84601158434E+02  0.00000000000E+00 0. -1.
        -12    1    4    4    0    0  0.62857984802E+02  0.90023278373E+01  0.11600512000E+02  0.64550290770E+02  0.00000000000E+00 0.  1.
</event>
<event>
12    1  0.8494789E-002  0.1768373E+03  0.7818608E-02  0.1171539E+00
         21   -1    0    0  503  502  0.00000000000E+00  0.00000000000E+00  0.23564625634E+03  0.23564625634E+03  0.00000000000E+00 0.  1.
         21   -1    0    0  501  503 -0.00000000000E+00 -0.00000000000E+00 -0.19983707903E+03  0.19983707903E+03  0.00000000000E+00 0.  1.
          6    2    1    2  501    0 -0.17443575922E+02 -0.40404950681E+02 -0.10999773917E+03  0.20825690639E+03  0.17127345987E+03 0.  0.
         24    2    3    3    0    0  0.22416325903E+02 -0.42255146184E+01 -0.12535278704E+03  0.15208190428E+03  0.83037568305E+02 0.  0.
         -6    2    1    2    0  502  0.17443575922E+02  0.40404950681E+02  0.14580691647E+03  0.22722642898E+03  0.16862785878E+03 0.  0.
        -24    2    5    5    0    0 -0.35402123770E+02  0.69867443124E+02  0.97928189866E+02  0.14992721231E+03  0.82179490408E+02 0.  0.
          5    1    3    3  501    0 -0.39859901826E+02 -0.36179436062E+02  0.15355047869E+02  0.56175002113E+02  0.47000000000E+01 0. -1.
        -13    1    4    4    0    0 -0.20749239977E+02  0.22054596057E+02 -0.74360857771E+02  0.80289932963E+02  0.00000000000E+00 0.  1.
         14    1    4    4    0    0  0.43165565880E+02 -0.26280110675E+02 -0.50991929265E+02  0.71791971313E+02  0.00000000000E+00 0. -1.
         -5    1    5    5    0  502  0.52845699692E+02 -0.29462492443E+02  0.47878726607E+02  0.77299216674E+02  0.47000000000E+01 0.  1.
         11    1    6    6    0    0  0.54631037233E+01 -0.13926781933E+02  0.33883923874E+00  0.14963808650E+02  0.00000000000E+00 0. -1.
        -12    1    6    6    0    0 -0.40865227493E+02  0.83794225056E+02  0.97589350628E+02  0.13496340366E+03  0.00000000000E+00 0.  1.
</event>
<event>
12    1  0.8494789E-002  0.2423442E+03  0.7818608E-02  0.1118264E+00
         21   -1    0    0  503  502  0.00000000000E+00  0.00000000000E+00  0.47098892116E+02  0.47098892116E+02  0.00000000000E+00 0.  1.
         21   -1    0    0  501  503 -0.00000000000E+00 -0.00000000000E+00 -0.26487096014E+04  0.26487096014E+04  0.00000000000E+00 0.  1.
          6    2    1    2  501    0 -0.14250200936E+03  0.95028616212E+02 -0.22818010997E+04  0.22946343870E+04  0.17144518282E+03 0.  0.
         24    2    3    3    0    0 -0.79030303606E+02  0.11997508765E+03 -0.18678474897E+04  0.18750743018E+04  0.80059863912E+02 0.  0.
         -6    2    1    2    0  502  0.14250200936E+03 -0.95028616212E+02 -0.31980960962E+03  0.40117410658E+03  0.17124607095E+03 0.  0.
        -24    2    5    5    0    0  0.93125059264E+02 -0.66336420228E+02 -0.31238551017E+03  0.34339407055E+03  0.85217271796E+02 0.  0.
          5    1    3    3  501    0 -0.63471705750E+02 -0.24946471436E+02 -0.41395360995E+03  0.41956008516E+03  0.47000000000E+01 0. -1.
        -13    1    4    4    0    0 -0.82615305619E+02  0.55637743159E+02 -0.10671910603E+04  0.10718290938E+04  0.00000000000E+00 0.  1.
         14    1    4    4    0    0  0.35850020129E+01  0.64337344489E+02 -0.80065642943E+03  0.80324520797E+03  0.00000000000E+00 0. -1.
         -5    1    5    5    0  502  0.49376950092E+02 -0.28692195984E+02 -0.74240994476E+01  0.57780036028E+02  0.47000000000E+01 0.  1.
         13    1    6    6    0    0  0.61084270446E+02 -0.84889890022E+02 -0.21186878829E+03  0.23627518908E+03  0.00000000000E+00 0. -1.
        -14    1    6    6    0    0  0.32040788818E+02  0.18553469793E+02 -0.10051672188E+03  0.10711888147E+03  0.00000000000E+00 0.  1.
</event>
<event>
12    1  0.8494789E-002  0.2926962E+03  0.7818608E-02  0.1088989E+00
         21   -1    0    0  503  502  0.00000000000E+00  0.00000000000E+00  0.12838846129E+03  0.12838846129E+03  0.00000000000E+00 0.  1.
         21   -1    0    0  501  503 -0.00000000000E+00 -0.00000000000E+00 -0.89200828039E+03  0.89200828039E+03  0.00000000000E+00 0.  1.
          6    2    1    2  501    0 -0.23170331655E+03  0.48367409943E+02 -0.63814332367E+03  0.70193890433E+03  0.17165515028E+03 0.  0.
         24    2    3    3    0    0 -0.95012354397E+02  0.67875578748E+01 -0.14774610611E+03  0.19113089320E+03  0.75024582887E+02 0.  0.
         -6    2    1    2    0  502  0.23170331655E+03 -0.48367409943E+02 -0.12547649543E+03  0.31845783736E+03  0.17217784418E+03 0.  0.
        -24    2    5    5    0    0  0.22374918616E+03 -0.16891863555E+02 -0.14753083893E+03  0.27892984377E+03  0.75415356166E+02 0.  0.
          5    1    3    3  501    0 -0.13669096215E+03  0.41579852068E+02 -0.49039721756E+03  0.51080801112E+03  0.47000000000E+01 0. -1.
        -11    1    4    4    0    0 -0.88102052793E+01  0.30386949475E+02 -0.33485448681E+02  0.46068011557E+02  0.00000000000E+00 0.  1.
         12    1    4    4    0    0 -0.86202149118E+02 -0.23599391600E+02 -0.11426065742E+03  0.14506288165E+03  0.00000000000E+00 0. -1.
         -5    1    5    5    0  502  0.79541303889E+01 -0.31475546388E+02  0.22054343496E+02  0.39527993595E+02  0.47000000000E+01 0.  1.
         11    1    6    6    0    0  0.89552187473E+01  0.11318761604E+02 -0.28005700053E+02  0.31506023908E+02  0.00000000000E+00 0. -1.
        -12    1    6    6    0    0  0.21479396741E+03 -0.28210625159E+02 -0.11952513888E+03  0.24742381986E+03  0.00000000000E+00 0.  1.
</event>
<event>
12    1  0.8494789E-002  0.1774423E+03  0.7818608E-02  0.1170744E+00
         21   -1    0    0  501  502  0.00000000000E+00  0.00000000000E+00  0.50807063701E+02  0.50807063701E+02  0.00000000000E+00 0.  1.
         21   -1    0    0  502  503 -0.00000000000E+00 -0.00000000000E+00 -0.73357853866E+03  0.73357853866E+03  0.00000000000E+00 0.  1.
         -6    2    1    2    0  503 -0.33732238690E+02 -0.48122063369E+01 -0.50151108205E+03  0.53197663728E+03  0.17414004689E+03 0.  0.
        -24    2    3    3    0    0  0.50773424808E+01  0.42191326163E+02 -0.16222833245E+03  0.18722978836E+03  0.83253074367E+02 0.  0.
          6    2    1    2  501    0  0.33732238690E+02  0.48122063369E+01 -0.18126039291E+03  0.25240896509E+03  0.17231928029E+03 0.  0.
         24    2    5    5    0    0  0.71706622494E+01  0.34803182136E+02 -0.19164400484E+03  0.21075700992E+03  0.80177383075E+02 0.  0.
          5    1    5    5  501    0  0.26561576440E+02 -0.29990975799E+02  0.10383611927E+02  0.41651955164E+02  0.47000000000E+01 0. -1.
        -13    1    6    6    0    0  0.12819099136E+02  0.48892431495E+02 -0.60936508127E+02  0.79171062788E+02  0.00000000000E+00 0.  1.
         14    1    6    6    0    0 -0.56484368862E+01 -0.14089249359E+02 -0.13070749671E+03  0.13158594713E+03  0.00000000000E+00 0. -1.
         -5    1    3    3    0  503 -0.38809581171E+02 -0.47003532500E+02 -0.33928274961E+03  0.34474684892E+03  0.47000000000E+01 0.  1.
         11    1    4    4    0    0 -0.27397300436E+01 -0.59848764486E+01  0.78747582699E+01  0.10263366145E+02  0.00000000000E+00 0. -1.
        -12    1    4    4    0    0  0.78170725245E+01  0.48176202611E+02 -0.17010309071E+03  0.17696642222E+03  0.00000000000E+00 0.  1.
</event>
<event>
12    1  0.8494789E-002  0.2205094E+03  0.7818608E-02  0.1136750E+00
         21   -1    0    0  501  502  0.00000000000E+00  0.00000000000E+00  0.18827723250E+03  0.18827723250E+03  0.00000000000E+00 0.  1.
         21   -1    0    0  502  503 -0.00000000000E+00 -0.00000000000E+00 -0.29264265082E+03  0.29264265082E+03  0.00000000000E+00 0. -1.
         -6    2    1    2    0  503  0.76836380214E+02 -0.84521482272E+02  0.52370199714E+02  0.21038254709E+03  0.16873194129E+03 0.  0.
        -24    2    3    3    0    0  0.26094437975E+02 -0.11700050973E+03  0.35236214233E+02  0.14757096069E+03  0.78521071533E+02 0.  0.
          6    2    1    2  501    0 -0.76836380214E+02  0.84521482272E+02 -0.15673561804E+03  0.27053733624E+03  0.18861783067E+03 0.  0.
         24    2    5    5    0    0  0.28553959270E+02  0.52517395608E+02 -0.38404097257E+02  0.10880971327E+03  0.82409183860E+02 0.  0.
          5    1    5    5  501    0 -0.10539033948E+03  0.32004086664E+02 -0.11833152078E+03  0.16172762297E+03  0.47000000000E+01 0. -1.
        -13    1    6    6    0    0  0.31530690367E+01 -0.21467008418E+02 -0.17408115211E+02  0.27817562258E+02  0.00000000000E+00 0.  1.
         14    1    6    6    0    0  0.25400890233E+02  0.73984404025E+02 -0.20995982046E+02  0.80992151013E+02  0.00000000000E+00 0. -1.
         -5    1    3    3    0  503  0.50741942239E+02  0.32479027461E+02  0.17133985481E+02  0.62811586395E+02  0.47000000000E+01 0.  1.
         11    1    4    4    0    0  0.21271297467E+02 -0.53458635403E+02 -0.22309076588E+02  0.61708902868E+02  0.00000000000E+00 0. -1.
        -12    1    4    4    0    0  0.48231405082E+01 -0.63541874331E+02  0.57545290821E+02  0.85862057822E+02  0.00000000000E+00 0.  1.
</event>
<event>
12    1  0.8494789E-002  0.3113062E+03  0.7818608E-02  0.1079746E+00
         21   -1    0    0  503  502  0.00000000000E+00  0.00000000000E+00  0.38629092572E+04  0.38629092572E+04  0.00000000000E+00 0. -1.
         21   -1    0    0  501  503 -0.00000000000E+00 -0.00000000000E+00 -0.26033570446E+02  0.26033570446E+02  0.00000000000E+00 0.  1.
          6    2    1    2  501    0  0.25920285654E+03  0.17125160606E+02  0.15440263494E+04  0.15750565708E+04  0.17119124282E+03 0.  0.
         24    2    3    3    0    0  0.27686197662E+03  0.22077123427E+02  0.13873037120E+04  0.14171944743E+04  0.81784075503E+02 0.  0.
         -6    2    1    2    0  502 -0.25920285654E+03 -0.17125160606E+02  0.22928493374E+04  0.23138862569E+04  0.17155796061E+03 0.  0.
        -24    2    5    5    0    0 -0.21918465091E+03  0.94926639592E+00  0.21835808700E+04  0.21960311354E+04  0.80526514419E+02 0.  0.
          5    1    3    3  501    0 -0.17659120083E+02 -0.49519628209E+01  0.15672263732E+03  0.15786209649E+03  0.47000000000E+01 0. -1.
        -11    1    4    4    0    0  0.76390145515E+02 -0.29375408611E+02  0.43962085576E+03  0.44717431253E+03  0.00000000000E+00 0.  1.
         12    1    4    4    0    0  0.20047183110E+03  0.51452532037E+02  0.94768285626E+03  0.97002016174E+03  0.00000000000E+00 0. -1.
         -5    1    5    5    0  502 -0.40018205622E+02 -0.18074427002E+02  0.10926846738E+03  0.11785512147E+03  0.47000000000E+01 0.  1.
         13    1    6    6    0    0 -0.14270812361E+03  0.16925301129E+02  0.10540348592E+04  0.10637864254E+04  0.00000000000E+00 0. -1.
        -14    1    6    6    0    0 -0.76476527301E+02 -0.15976034734E+02  0.11295460108E+04  0.11322447100E+04  0.00000000000E+00 0.  1.
</event>
<event>
12    1  0.8494789E-002  0.2133392E+03  0.7818608E-02  0.1139449E+00
         21   -1    0    0  501  502  0.00000000000E+00  0.00000000000E+00  0.20044479043E+04  0.20044479043E+04  0.00000000000E+00 0.  1.
         21   -1    0    0  502  503 -0.00000000000E+00 -0.00000000000E+00 -0.24777432802E+02  0.24777432802E+02  0.00000000000E+00 0. -1.
         -6    2    1    2    0  503  0.85145420696E+02  0.85588336824E+02  0.68325172006E+03  0.71578386952E+03  0.17589351560E+03 0.  0.
        -24    2    3    3    0    0  0.87172016462E+02  0.12358158368E+03  0.47183638822E+03  0.50092082841E+03  0.73625612437E+02 0.  0.
          6    2    1    2  501    0 -0.85145420696E+02 -0.85588336824E+02  0.12964187514E+04  0.13134414676E+04  0.17277674504E+03 0.  0.
         24    2    5    5    0    0 -0.64550803225E+02  0.16937215471E+02  0.54557974788E+03  0.55534059936E+03  0.79323669442E+02 0.  0.
          5    1    5    5  501    0 -0.20594617471E+02 -0.10252555230E+03  0.75083900353E+03  0.75810086820E+03  0.47000000000E+01 0. -1.
        -11    1    6    6    0    0 -0.31116812717E+02  0.28854651894E+01  0.47464279813E+03  0.47567044028E+03  0.00000000000E+00 0.  1.
         12    1    6    6    0    0 -0.33433990507E+02  0.14051750282E+02  0.70936949759E+02  0.79670159083E+02  0.00000000000E+00 0. -1.
         -5    1    3    3    0  503 -0.20265957657E+01 -0.37993246857E+02  0.21141533184E+03  0.21486304111E+03  0.47000000000E+01 0.  1.
         11    1    4    4    0    0  0.45966886028E+00  0.58428715794E+02  0.13650172795E+03  0.14848180986E+03  0.00000000000E+00 0. -1.
        -12    1    4    4    0    0  0.86712347602E+02  0.65152867887E+02  0.33533466027E+03  0.35243901855E+03  0.00000000000E+00 0.  1.
</event>
<event>
12    1  0.8494789E-002  0.2020396E+03  0.7818608E-02  0.1148162E+00
         21   -1    0    0  503  502  0.00000000000E+00  0.00000000000E+00  0.26560904985E+03  0.26560904985E+03  0.00000000000E+00 0. -1.
         21   -1    0    0  501  503 -0.00000000000E+00 -0.00000000000E+00 -0.29956814356E+03  0.29956814356E+03  0.00000000000E+00 0. -1.
          6    2    1    2  501    0  0.62634703529E+02  0.83294536260E+02 -0.21449325700E+03  0.29422962428E+03  0.17234450571E+03 0.  0.
         24    2    3    3    0    0  0.10666233392E+03  0.34152965542E+02 -0.14214013654E+03  0.19619702638E+03  0.75803536942E+02 0.  0.
         -6    2    1    2    0  502 -0.62634703529E+02 -0.83294536260E+02  0.18053416328E+03  0.27094756913E+03  0.17308643867E+03 0.  0.
        -24    2    5    5    0    0 -0.71432909226E+02 -0.11912741056E+03  0.16755926098E+03  0.23155415098E+03  0.79039347347E+02 0.  0.
          5    1    3    3  501    0 -0.44027630391E+02  0.49141570718E+02 -0.72353120458E+02  0.98032597897E+02  0.47000000000E+01 0. -1.
        -13    1    4    4    0    0  0.30586834226E+02 -0.20890780802E+02 -0.19878294462E+02  0.42037194735E+02  0.00000000000E+00 0.  1.
         14    1    4    4    0    0  0.76075499694E+02  0.55043746343E+02 -0.12226184207E+03  0.15415983164E+03  0.00000000000E+00 0. -1.
         -5    1    5    5    0  502  0.87982056976E+01  0.35832874298E+02  0.12974902297E+02  0.39393418150E+02  0.47000000000E+01 0.  1.
         13    1    6    6    0    0 -0.83735626367E+02 -0.99682698542E+02  0.11317254247E+03  0.17250020255E+03  0.00000000000E+00 0. -1.
        -14    1    6    6    0    0  0.12302717140E+02 -0.19444712016E+02  0.54386718515E+02  0.59053948430E+02  0.00000000000E+00 0.  1.
</event>
<event>
12    1  0.8494789E-002  0.1885944E+03  0.7818608E-02  0.1159879E+00
         21   -1    0    0  503  502  0.00000000000E+00  0.00000000000E+00  0.16832193554E+03  0.16832193554E+03  0.00000000000E+00 0.  1.
         21   -1    0    0  501  503 -0.00000000000E+00 -0.00000000000E+00 -0.77279687503E+03  0.77279687503E+03  0.00000000000E+00 0. -1.
          6    2    1    2  501    0  0.38702032825E+02 -0.64002668741E+02 -0.70345082111E+03  0.72813040945E+03  0.17244316886E+03 0.  0.
         24    2    3    3    0    0 -0.40601005949E+02 -0.62423443174E+02 -0.43844864243E+03  0.45147229802E+03  0.77748928531E+02 0.  0.
         -6    2    1    2    0  502 -0.38702032825E+02  0.64002668741E+02  0.98975881630E+02  0.21298840112E+03  0.17312898347E+03 0.  0.
        -24    2    5    5    0    0 -0.51339175211E+02 -0.10773566573E+02  0.98412304173E+02  0.13700425570E+03  0.79582685429E+02 0.  0.
          5    1    3    3  501    0  0.79303038773E+02 -0.15792255664E+01 -0.26500217868E+03  0.27665811143E+03  0.47000000000E+01 0. -1.
        -13    1    4    4    0    0 -0.46502939656E+01  0.16428103704E+02 -0.36613696701E+02  0.40398893690E+02  0.00000000000E+00 0.  1.
         14    1    4    4    0    0 -0.35950711983E+02 -0.78851546878E+02 -0.40183494573E+03  0.41107340433E+03  0.00000000000E+00 0. -1.
         -5    1    5    5    0  502  0.12637142386E+02  0.74776235314E+02  0.56357745764E+00  0.75984145418E+02  0.47000000000E+01 0.  1.
         11    1    6    6    0    0 -0.18719255378E+02 -0.15890570669E+02 -0.78114247666E+01  0.25767016028E+02  0.00000000000E+00 0. -1.
        -12    1    6    6    0    0 -0.32619919833E+02  0.51170040958E+01  0.10622372894E+03  0.11123723968E+03  0.00000000000E+00 0.  1.
</event>
<event>
12    1  0.8494789E-002  0.1851184E+03  0.7818608E-02  0.1163080E+00
         21   -1    0    0  503  502  0.00000000000E+00  0.00000000000E+00  0.14246969866E+04  0.14246969866E+04  0.00000000000E+00 0.  1.
         21   -1    0    0  501  503 -0.00000000000E+00 -0.00000000000E+00 -0.52700116208E+02  0.52700116208E+02  0.00000000000E+00 0.  1.
          6    2    1    2  501    0  0.62162977237E+02  0.20867808683E+02  0.14113854631E+03  0.23278511586E+03  0.17311591415E+03 0.  0.
         24    2    3    3    0    0  0.66263577210E+02 -0.42135284099E+02  0.50538715245E+02  0.12225627795E+03  0.78906222377E+02 0.  0.
         -6    2    1    2    0  502 -0.62162977237E+02 -0.20867808683E+02  0.12308583241E+04  0.12446119870E+04  0.17247342668E+03 0.  0.
        -24    2    5    5    0    0 -0.79840699767E+02 -0.19767937122E+01  0.11938464791E+04  0.11992100158E+04  0.80354222830E+02 0.  0.
          5    1    3    3  501    0 -0.41005999732E+01  0.63003092781E+02  0.90599831063E+02  0.11052883791E+03  0.47000000000E+01 0. -1.
        -13    1    4    4    0    0  0.27458984329E+01  0.15394266658E+02 -0.88721040449E+01  0.17978810704E+02  0.00000000000E+00 0.  1.
         14    1    4    4    0    0  0.63517678777E+02 -0.57529550756E+02  0.59410819290E+02  0.10427746725E+03  0.00000000000E+00 0. -1.
         -5    1    5    5    0  502  0.17677722530E+02 -0.18891014970E+02  0.37011844958E+02  0.45401971187E+02  0.47000000000E+01 0.  1.
         11    1    6    6    0    0  0.13391581458E+02  0.59742837801E+00  0.57476600752E+02  0.59019073261E+02  0.00000000000E+00 0. -1.
        -12    1    6    6    0    0 -0.93232281225E+02 -0.25742220902E+01  0.11363698784E+04  0.11401909425E+04  0.00000000000E+00 0.  1.
</event>
<event>
12    1  0.8494789E-002  0.2957402E+03  0.7818608E-02  0.1087458E+00
         21   -1    0    0  501  502  0.00000000000E+00  0.00000000000E+00  0.25800104541E+03  0.25800104541E+03  0.00000000000E+00 0. -1.
         21   -1    0    0  502  503 -0.00000000000E+00 -0.00000000000E+00 -0.34325935230E+03  0.34325935230E+03  0.00000000000E+00 0.  1.
         -6    2    1    2    0  503  0.89460129369E+01  0.24009064651E+03 -0.78480995400E+02  0.30597640114E+03  0.17244924392E+03 0.  0.
        -24    2    3    3    0    0 -0.44707081500E+02  0.15887976835E+03 -0.36294389433E+01  0.18309960603E+03  0.79188313359E+02 0.  0.
          6    2    1    2  501    0 -0.89460129369E+01 -0.24009064651E+03 -0.67773114844E+01  0.29528399657E+03  0.17153179586E+03 0.  0.
         24    2    5    5    0    0 -0.20641648390E+02 -0.17708107346E+03  0.58399615321E+02  0.20375741042E+03  0.79515929247E+02 0.  0.
          5    1    5    5  501    0  0.11695635453E+02 -0.63009573045E+02 -0.65176926806E+02  0.91526586148E+02  0.47000000000E+01 0. -1.
        -11    1    6    6    0    0 -0.47537067105E+02 -0.11511440143E+03  0.20254437625E+02  0.12617979398E+03  0.00000000000E+00 0.  1.
         12    1    6    6    0    0  0.26895418716E+02 -0.61966672032E+02  0.38145177697E+02  0.77577616438E+02  0.00000000000E+00 0. -1.
         -5    1    3    3    0  503  0.53653094437E+02  0.81210878158E+02 -0.74851556457E+02  0.12287679512E+03  0.47000000000E+01 0.  1.
         13    1    4    4    0    0 -0.63771747597E+02  0.11334864227E+03 -0.18916600470E+02  0.13142521931E+03  0.00000000000E+00 0. -1.
        -14    1    4    4    0    0  0.19064666097E+02  0.45531126074E+02  0.15287161526E+02  0.51674386716E+02  0.00000000000E+00 0.  1.
</event>
<event>
12    1  0.8494789E-002  0.2399015E+03  0.7818608E-02  0.1119893E+00
         21   -1    0    0  501  502  0.00000000000E+00  0.00000000000E+00  0.20140080580E+03  0.20140080580E+03  0.00000000000E+00 0.  1.
         21   -1    0    0  502  503 -0.00000000000E+00 -0.00000000000E+00 -0.41072408097E+03  0.41072408097E+03  0.00000000000E+00 0. -1.
         -6    2    1    2    0  503  0.13158008797E+03 -0.10261191328E+03 -0.27368158440E+03  0.36394277876E+03  0.17236650566E+03 0.  0.
        -24    2    3    3    0    0  0.67808137580E+02 -0.11068172847E+03 -0.11039607565E+03  0.18839725491E+03  0.80360709318E+02 0.  0.
          6    2    1    2  501    0 -0.13158008797E+03  0.10261191328E+03  0.64358309217E+02  0.24818210801E+03  0.17207510708E+03 0.  0.
         24    2    5    5    0    0 -0.26466248084E+02  0.65680267738E+02 -0.20825124509E+02  0.10785686738E+03  0.78645140806E+02 0.  0.
          5    1    5    5  501    0 -0.10511383988E+03  0.36931645541E+02  0.85183433726E+02  0.14032524063E+03  0.47000000000E+01 0. -1.
        -11    1    6    6    0    0  0.18245002824E+02  0.31424403196E+02  0.16890001055E+02  0.40070505111E+02  0.00000000000E+00 0.  1.
         12    1    6    6    0    0 -0.44711250908E+02  0.34255864543E+02 -0.37715125564E+02  0.67786362268E+02  0.00000000000E+00 0. -1.
         -5    1    3    3    0  503  0.63771950389E+02  0.80698151876E+01 -0.16328550875E+03  0.17554552384E+03  0.47000000000E+01 0.  1.
         13    1    4    4    0    0 -0.16578070049E+02 -0.27573356301E+02 -0.11730970428E+02  0.34245263198E+02  0.00000000000E+00 0. -1.
        -14    1    4    4    0    0  0.84386207629E+02 -0.83108372165E+02 -0.98665105218E+02  0.15415199171E+03  0.00000000000E+00 0.  1.
</event>
<event>
12    1  0.8494789E-002  0.1816941E+03  0.7818608E-02  0.1166429E+00
         21   -1    0    0  503  502  0.00000000000E+00  0.00000000000E+00  0.61087474566E+02  0.61087474566E+02  0.00000000000E+00 0. -1.
         21   -1    0    0  501  503 -0.00000000000E+00 -0.00000000000E+00 -0.62032776675E+03  0.62032776675E+03  0.00000000000E+00 0. -1.
          6    2    1    2  501    0 -0.44559312272E+02  0.34628327389E+02 -0.15565249303E+03  0.23924974973E+03  0.17270810865E+03 0.  0.
         24    2    3    3    0    0 -0.24305856137E+02  0.88136535795E+02 -0.12709905624E+03  0.17513485595E+03  0.78480724297E+02 0.  0.
         -6    2    1    2    0  502  0.44559312272E+02 -0.34628327389E+02 -0.40358779916E+03  0.44216549159E+03  0.17158833572E+03 0.  0.
        -24    2    5    5    0    0  0.51039110888E+02 -0.44311641167E+02 -0.41337291193E+03  0.42624089465E+03  0.78965964595E+02 0.  0.
          5    1    3    3  501    0 -0.20253456135E+02 -0.53508208406E+02 -0.28553436788E+02  0.64114893782E+02  0.47000000000E+01 0. -1.
        -13    1    4    4    0    0 -0.36808497211E+02  0.47464789608E+02 -0.11682570844E+03  0.13136216301E+03  0.00000000000E+00 0.  1.
         14    1    4    4    0    0  0.12502641074E+02  0.40671746187E+02 -0.10273347803E+02  0.43772692935E+02  0.00000000000E+00 0. -1.
         -5    1    5    5    0  502 -0.64797986164E+01  0.96833137784E+01  0.97851127744E+01  0.15924596945E+02  0.47000000000E+01 0.  1.
         11    1    6    6    0    0  0.16976448301E+02  0.79881747133E+01 -0.25969931174E+03  0.26037615722E+03  0.00000000000E+00 0. -1.
        -12    1    6    6    0    0  0.34062662587E+02 -0.52299815880E+02 -0.15367360019E+03  0.16586473742E+03  0.00000000000E+00 0.  1.
</event>
<event>
12    1  0.8494789E-002  0.1823179E+03  0.7818608E-02  0.1165824E+00
         21   -1    0    0  501  502  0.00000000000E+00  0.00000000000E+00  0.77308397256E+03  0.77308397256E+03  0.00000000000E+00 0. -1.
         21   -1    0    0  502  503 -0.00000000000E+00 -0.00000000000E+00 -0.55695399801E+02  0.55695399801E+02  0.00000000000E+00 0.  1.
         -6    2    1    2    0  503 -0.53151919962E+02  0.24871952749E+02  0.15972222174E+03  0.24238607654E+03  0.17261541459E+03 0.  0.
        -24    2    3    3    0    0 -0.99604187589E+02 -0.38151415744E+01  0.10435417162E+03  0.16448566882E+03  0.78931569240E+02 0.  0.
          6    2    1    2  501    0  0.53151919962E+02 -0.24871952749E+02  0.55766635102E+03  0.58639329582E+03  0.17152725059E+03 0.  0.
         24    2    5    5    0    0  0.26723810189E+02 -0.79707474897E+02  0.30937506450E+03  0.33070592336E+03  0.81154381426E+02 0.  0.
          5    1    5    5  501    0  0.26428109772E+02  0.54835522148E+02  0.24829128652E+03  0.25568737246E+03  0.47000000000E+01 0. -1.
        -13    1    6    6    0    0  0.23159846712E+02 -0.94056670691E+02  0.29322315833E+03  0.30880876993E+03  0.00000000000E+00 0.  1.
         14    1    6    6    0    0  0.35639634777E+01  0.14349195794E+02  0.16151906172E+02  0.21897153436E+02  0.00000000000E+00 0. -1.
         -5    1    3    3    0  503  0.46452267627E+02  0.28687094324E+02  0.55368050115E+02  0.77900407713E+02  0.47000000000E+01 0.  1.
         11    1    4    4    0    0 -0.32588428940E+02  0.35344863571E+02  0.28143189170E+02  0.55707308123E+02  0.00000000000E+00 0. -1.
        -12    1    4    4    0    0 -0.67015758649E+02 -0.39160005146E+02  0.76210982452E+02  0.10877836070E+03  0.00000000000E+00 0.  1.
</event>
<event>
12    1  0.8494789E-002  0.2205970E+03  0.7818608E-02  0.1133500E+00
         21   -1    0    0  503  502  0.00000000000E+00  0.00000000000E+00  0.35747470723E+03  0.35747470723E+03  0.00000000000E+00 0. -1.
         21   -1    0    0  501  503 -0.00000000000E+00 -0.00000000000E+00 -0.13823612257E+03  0.13823612257E+03  0.00000000000E+00 0. -1.
          6    2    1    2  501    0  0.93469855518E+02  0.10034119016E+03  0.77507558854E+02  0.23350725237E+03  0.17237530826E+03 0.  0.
         24    2    3    3    0    0  0.12866772734E+03  0.10396062545E+03  0.72158415486E+02  0.19741440228E+03  0.80015083569E+02 0.  0.
         -6    2    1    2    0  502 -0.93469855518E+02 -0.10034119016E+03  0.14173102581E+03  0.26220357743E+03  0.17279486106E+03 0.  0.
        -24    2    5    5    0    0 -0.70219445874E+02  0.79086122376E+01  0.10715861510E+03  0.14611764870E+03  0.69814624148E+02 0.  0.
          5    1    3    3  501    0 -0.35197871825E+02 -0.36194352924E+01  0.53491433678E+01  0.36092850090E+02  0.47000000000E+01 0. -1.
        -13    1    4    4    0    0  0.70528231838E+02  0.83863707984E+01  0.37398783351E+02  0.80269743350E+02  0.00000000000E+00 0.  1.
         14    1    4    4    0    0  0.58139495505E+02  0.95574254650E+02  0.34759632136E+02  0.11714465893E+03  0.00000000000E+00 0. -1.
         -5    1    5    5    0  502 -0.23250409644E+02 -0.10824980239E+03  0.34572410701E+02  0.11608592873E+03  0.47000000000E+01 0.  1.
         13    1    6    6    0    0 -0.32038750754E+02 -0.31145583737E+02  0.50164385296E+02  0.67178824702E+02  0.00000000000E+00 0. -1.
        -14    1    6    6    0    0 -0.38180695120E+02  0.39054195975E+02  0.56994229808E+02  0.78938824000E+02  0.00000000000E+00 0.  1.
</event>
<event>
12    1  0.8494789E-002  0.2044744E+03  0.7818608E-02  0.1146116E+00
         21   -1    0    0  503  502  0.00000000000E+00  0.00000000000E+00  0.60348281239E+02  0.60348281239E+02  0.00000000000E+00 0.  1.
         21   -1    0    0  501  503 -0.00000000000E+00 -0.00000000000E+00 -0.15849173986E+04  0.15849173986E+04  0.00000000000E+00 0.  1.
          6    2    1    2  501    0 -0.72925350281E+02 -0.84265523291E+02 -0.13804124736E+04  0.13954742521E+04  0.17143805226E+03 0.  0.
         24    2    3    3    0    0 -0.10990045987E+03 -0.40317628490E+02 -0.10449133275E+04  0.10550622322E+04  0.87228606094E+02 0.  0.
         -6    2    1    2    0  502  0.72925350281E+02  0.84265523291E+02 -0.14415664371E+03  0.24979142772E+03  0.17086788555E+03 0.  0.
        -24    2    5    5    0    0  0.10921758223E+03  0.85763385309E+02 -0.14223782578E+03  0.21311525627E+03  0.76828867268E+02 0.  0.
          5    1    3    3  501    0  0.36975109589E+02 -0.43947894801E+02 -0.33549914615E+03  0.34041201985E+03  0.47000000000E+01 0. -1.
        -11    1    4    4    0    0 -0.97489119557E+02 -0.62612935873E+02 -0.93885777724E+03  0.94598014464E+03  0.00000000000E+00 0.  1.
         12    1    4    4    0    0 -0.12411340313E+02  0.22295307383E+02 -0.10605555022E+03  0.10908208759E+03  0.00000000000E+00 0. -1.
         -5    1    5    5    0  502 -0.36292231947E+02 -0.14978620182E+01 -0.19188179274E+01  0.36676171454E+02  0.47000000000E+01 0.  1.
         13    1    6    6    0    0 -0.30085551170E+01  0.33746650956E+02 -0.41608187144E+02  0.53657516641E+02  0.00000000000E+00 0. -1.
        -14    1    6    6    0    0  0.11222613734E+03  0.52016734352E+02 -0.10062963864E+03  0.15945773963E+03  0.00000000000E+00 0.  1.
</event>
<event>
12    1  0.8494789E-002  0.1808027E+03  0.7818608E-02  0.1167663E+00
         21   -1    0    0  503  502  0.00000000000E+00  0.00000000000E+00  0.31652279088E+03  0.31652279088E+03  0.00000000000E+00 0. -1.
         21   -1    0    0  501  503 -0.00000000000E+00 -0.00000000000E+00 -0.26685987518E+03  0.26685987518E+03  0.00000000000E+00 0. -1.
          6    2    1    2  501    0  0.38475258039E+02 -0.32292172014E+02 -0.20451121664E+03  0.27297334691E+03  0.17368500378E+03 0.  0.
         24    2    3    3    0    0 -0.46409019821E+02 -0.29980945213E+02 -0.94748464804E+02  0.13411862395E+03  0.77187301490E+02 0.  0.
         -6    2    1    2    0  502 -0.38475258039E+02  0.32292172014E+02  0.25417413233E+03  0.31040931916E+03  0.17095708824E+03 0.  0.
        -24    2    5    5    0    0  0.33473389168E+02 -0.16557233555E+02  0.16503676816E+03  0.18578816545E+03  0.76716998201E+02 0.  0.
          5    1    3    3  501    0  0.84884277860E+02 -0.23112268012E+01 -0.10976275183E+03  0.13885472295E+03  0.47000000000E+01 0. -1.
        -13    1    4    4    0    0  0.73722717944E+01 -0.26383687499E+02 -0.69287270251E+02  0.74506208979E+02  0.00000000000E+00 0.  1.
         14    1    4    4    0    0 -0.53781291615E+02 -0.35972577142E+01 -0.25461194553E+02  0.59612414973E+02  0.00000000000E+00 0. -1.
         -5    1    5    5    0  502 -0.71948647207E+02  0.48849405569E+02  0.89137364176E+02  0.12462115371E+03  0.47000000000E+01 0.  1.
         13    1    6    6    0    0  0.34549115482E+02  0.61833638482E+01  0.15815796848E+03  0.16200561213E+03  0.00000000000E+00 0. -1.
        -14    1    6    6    0    0 -0.10757263141E+01 -0.22740597403E+02  0.68787996769E+01  0.23782553318E+02  0.00000000000E+00 0.  1.
</event>
<event>
12    1  0.8494789E-002  0.2134021E+03  0.7818608E-02  0.1139219E+00
         21   -1    0    0  503  502  0.00000000000E+00  0.00000000000E+00  0.41756778393E+02  0.41756778393E+02  0.00000000000E+00 0. -1.
         21   -1    0    0  501  503 -0.00000000000E+00 -0.00000000000E+00 -0.14952018167E+04  0.14952018167E+04  0.00000000000E+00 0. -1.
          6    2    1    2  501    0  0.11649551041E+03 -0.47369176036E+02 -0.32488940159E+03  0.38870757766E+03  0.17241059967E+03 0.  0.
         24    2    3    3    0    0  0.41152872841E+02 -0.19609961215E+02 -0.28416884993E+03  0.29855581466E+03  0.79407365367E+02 0.  0.
         -6    2    1    2    0  502 -0.11649551041E+03  0.47369176036E+02 -0.11285556367E+04  0.11482510174E+04  0.17037467856E+03 0.  0.
        -24    2    5    5    0    0 -0.24895124137E+02 -0.23692012843E+02 -0.32440990990E+03  0.33577777893E+03  0.79522628879E+02 0.  0.
          5    1    3    3  501    0  0.75342637572E+02 -0.27759214821E+02 -0.40720551658E+02  0.90151762995E+02  0.47000000000E+01 0. -1.
        -13    1    4    4    0    0  0.24992066050E+02 -0.41920099329E+02 -0.24972992667E+03  0.25445418913E+03  0.00000000000E+00 0.  1.
         14    1    4    4    0    0  0.16160806791E+02  0.22310138114E+02 -0.34438923267E+02  0.44101625532E+02  0.00000000000E+00 0. -1.
         -5    1    5    5    0  502 -0.91600386276E+02  0.71061188880E+02 -0.80414572676E+03  0.81247323845E+03  0.47000000000E+01 0.  1.
         13    1    6    6    0    0 -0.48605866762E+02 -0.32862637113E+02 -0.25987476473E+03  0.26641579635E+03  0.00000000000E+00 0. -1.
        -14    1    6    6    0    0  0.23710742625E+02  0.91706242690E+01 -0.64535145173E+02  0.69361982583E+02  0.00000000000E+00 0.  1.
</event>
<event>
12    1  0.8494789E-002  0.2192280E+03  0.7818608E-02  0.1134774E+00
         21   -1    0    0  503  502  0.00000000000E+00  0.00000000000E+00  0.20985032925E+03  0.20985032925E+03  0.00000000000E+00 0. -1.
         21   -1    0    0  501  503 -0.00000000000E+00 -0.00000000000E+00 -0.23657070084E+03  0.23657070084E+03  0.00000000000E+00 0. -1.
          6    2    1    2  501    0  0.12036596212E+03 -0.62281052051E+02 -0.57534699253E+02  0.22503798636E+03  0.17019094984E+03 0.  0.
         24    2    3    3    0    0 -0.49015927719E+01 -0.28438156330E+02 -0.44686793218E+02  0.94560169898E+02  0.78179037446E+02 0.  0.
         -6    2    1    2    0  502 -0.12036596212E+03  0.62281052051E+02  0.30814327660E+02  0.22138304373E+03  0.17231957225E+03 0.  0.
        -24    2    5    5    0    0 -0.22071346595E+02 -0.15923662036E+01  0.71854075795E+02  0.97093076608E+02  0.61435961344E+02 0.  0.
          5    1    3    3  501    0  0.12526755489E+03 -0.33842895721E+02 -0.12847906035E+02  0.13047781646E+03  0.47000000000E+01 0. -1.
        -13    1    4    4    0    0 -0.18113486910E+02 -0.29657181091E+02  0.11673280653E+02  0.36659409154E+02  0.00000000000E+00 0.  1.
         14    1    4    4    0    0  0.13211894138E+02  0.12190247614E+01 -0.56360073871E+02  0.57900760744E+02  0.00000000000E+00 0. -1.
         -5    1    5    5    0  502 -0.98294615526E+02  0.63873418254E+02 -0.41039748135E+02  0.12428996712E+03  0.47000000000E+01 0.  1.
         13    1    6    6    0    0 -0.12395883709E+02  0.84485106591E+00 -0.91793226668E+01  0.15447707625E+02  0.00000000000E+00 0. -1.
        -14    1    6    6    0    0 -0.96754628862E+01 -0.24372172695E+01  0.81033398462E+02  0.81645368983E+02  0.00000000000E+00 0.  1.
</event>
<event>
12    1  0.8494789E-002  0.1840712E+03  0.7818608E-02  0.1163941E+00
         21   -1    0    0  503  502  0.00000000000E+00  0.00000000000E+00  0.11853256002E+03  0.11853256002E+03  0.00000000000E+00 0. -1.
         21   -1    0    0  501  503 -0.00000000000E+00 -0.00000000000E+00 -0.31151049038E+03  0.31151049038E+03  0.00000000000E+00 0. -1.
          6    2    1    2  501    0  0.42619684548E+02 -0.49083237302E+02 -0.15838960802E+03  0.24283628714E+03  0.17221089609E+03 0.  0.
         24    2    3    3    0    0  0.39158399912E+02 -0.15010108916E+02 -0.18051901068E+03  0.20179047089E+03  0.79834812421E+02 0.  0.
         -6    2    1    2    0  502 -0.42619684548E+02  0.49083237302E+02 -0.34588322350E+02  0.18720676326E+03  0.17211745545E+03 0.  0.
        -24    2    5    5    0    0  0.39270090725E+01 -0.17797206782E+02 -0.61596130593E+02  0.10123525522E+03  0.78245329740E+02 0.  0.
          5    1    3    3  501    0  0.34612846360E+01 -0.34073128386E+02  0.22129402662E+02  0.41045816248E+02  0.47000000000E+01 0. -1.
        -13    1    4    4    0    0  0.25296137806E+02  0.26633726013E+02 -0.12891387827E+03  0.13404491023E+03  0.00000000000E+00 0.  1.
         14    1    4    4    0    0  0.13862262106E+02 -0.41643834929E+02 -0.51605132412E+02  0.67745560664E+02  0.00000000000E+00 0. -1.
         -5    1    5    5    0  502 -0.46546693621E+02  0.66880444083E+02  0.27007808243E+02  0.85971508035E+02  0.47000000000E+01 0.  1.
         13    1    6    6    0    0 -0.11922567855E+02  0.16100260010E-01 -0.73586749223E+02  0.74546344945E+02  0.00000000000E+00 0. -1.
        -14    1    6    6    0    0  0.15849576927E+02 -0.17813307042E+02  0.11990618630E+02  0.26688910275E+02  0.00000000000E+00 0.  1.
</event>
<event>
12    1  0.8494789E-002  0.2065562E+03  0.7818608E-02  0.1145135E+00
         21   -1    0    0  501  502  0.00000000000E+00  0.00000000000E+00  0.11057318592E+03  0.11057318592E+03  0.00000000000E+00 0. -1.
         21   -1    0    0  502  503 -0.00000000000E+00 -0.00000000000E+00 -0.40196097666E+03  0.40196097666E+03  0.00000000000E+00 0.  1.
         -6    2    1    2    0  503 -0.24182812371E+02 -0.11170667617E+03 -0.85076138490E+02  0.22339075410E+03  0.17205315970E+03 0.  0.
        -24    2    3    3    0    0  0.36512078953E+02 -0.11954858531E+02 -0.40320467403E+02  0.98253009800E+02  0.80943580914E+02 0.  0.
          6    2    1    2  501    0  0.24182812371E+02  0.11170667617E+03 -0.20631165225E+03  0.28914340848E+03  0.16726094253E+03 0.  0.
         24    2    5    5    0    0  0.40943978074E+02  0.28741739772E+02 -0.14008046175E+03  0.18156656180E+03  0.10412196527E+03 0.  0.
          5    1    5    5  501    0 -0.16761165703E+02  0.82964936397E+02 -0.66231190498E+02  0.10757684668E+03  0.47000000000E+01 0. -1.
        -13    1    6    6    0    0 -0.95335660887E+01  0.55782606871E+02 -0.84973433199E+02  0.10209344965E+03  0.00000000000E+00 0.  1.
         14    1    6    6    0    0  0.50477544162E+02 -0.27040867099E+02 -0.55107028556E+02  0.79473112148E+02  0.00000000000E+00 0. -1.
         -5    1    3    3    0  503 -0.60694891324E+02 -0.99751817638E+02 -0.44755671087E+02  0.12513774430E+03  0.47000000000E+01 0.  1.
         13    1    4    4    0    0 -0.14338855377E+02  0.89244004667E+01 -0.39849077544E+02  0.43280442215E+02  0.00000000000E+00 0. -1.
        -14    1    4    4    0    0  0.50850934330E+02 -0.20879258997E+02 -0.47138985929E+00  0.54972567586E+02  0.00000000000E+00 0.  1.
</event>
<event>
12    1  0.8494789E-002  0.1807667E+03  0.7818608E-02  0.1167732E+00
         21   -1    0    0  503  502  0.00000000000E+00  0.00000000000E+00  0.89638025723E+03  0.89638025723E+03  0.00000000000E+00 0. -1.
         21   -1    0    0  501  503 -0.00000000000E+00 -0.00000000000E+00 -0.45178945196E+02  0.45178945196E+02  0.00000000000E+00 0. -1.
          6    2    1    2  501    0  0.28318133662E+02 -0.45768371445E+02  0.20965489081E+03  0.27503208116E+03  0.16967855466E+03 0.  0.
         24    2    3    3    0    0  0.63655220895E+02 -0.37499517009E+02  0.68115895280E+02  0.12883884964E+03  0.80631712519E+02 0.  0.
         -6    2    1    2    0  502 -0.28318133662E+02  0.45768371445E+02  0.64154642123E+03  0.66652712126E+03  0.17256863062E+03 0.  0.
        -24    2    5    5    0    0 -0.31496518555E+02 -0.24005282901E+02  0.18825780411E+03  0.20786479953E+03  0.78730488296E+02 0.  0.
          5    1    3    3  501    0 -0.35337087233E+02 -0.82688544356E+01  0.14153899553E+03  0.14619323152E+03  0.47000000000E+01 0. -1.
        -13    1    4    4    0    0  0.79080990493E+01  0.24638026430E+02  0.16632554988E+02  0.30760563428E+02  0.00000000000E+00 0.  1.
         14    1    4    4    0    0  0.55747121845E+02 -0.62137543440E+02  0.51483340292E+02  0.98078286212E+02  0.00000000000E+00 0. -1.
         -5    1    5    5    0  502  0.31783848930E+01  0.69773654346E+02  0.45328861712E+03  0.45866232174E+03  0.47000000000E+01 0.  1.
         13    1    6    6    0    0 -0.35780877715E+02  0.13345201284E+02  0.14772296063E+03  0.15257928661E+03  0.00000000000E+00 0. -1.
        -14    1    6    6    0    0  0.42843591598E+01 -0.37350484184E+02  0.40534843482E+02  0.55285512916E+02  0.00000000000E+00 0.  1.
</event>
<event>
12    1  0.8494789E-002  0.2208960E+03  0.7818608E-02  0.1133266E+00
         21   -1    0    0  501  502  0.00000000000E+00  0.00000000000E+00  0.60220823871E+02  0.60220823871E+02  0.00000000000E+00 0. -1.
         21   -1    0    0  502  503 -0.00000000000E+00 -0.00000000000E+00 -0.12066445226E+04  0.12066445226E+04  0.00000000000E+00 0.  1.
         -6    2    1    2    0  503  0.12687062429E+03  0.52987060565E+02 -0.93694214254E+03  0.96262952992E+03  0.17289086010E+03 0.  0.
        -24    2    3    3    0    0  0.67402631411E+02  0.91810504560E+02 -0.74487406659E+03  0.75779804361E+03  0.80300786818E+02 0.  0.
          6    2    1    2  501    0 -0.12687062429E+03 -0.52987060565E+02 -0.20948155615E+03  0.30423581652E+03  0.17254890839E+03 0.  0.
         24    2    5    5    0    0 -0.78629032731E+01 -0.62897621982E+02 -0.71001716375E+02  0.12131558004E+03  0.75221606818E+02 0.  0.
          5    1    5    5  501    0 -0.11900772102E+03  0.99105614161E+01 -0.13847983978E+03  0.18292023648E+03  0.47000000000E+01 0. -1.
        -11    1    6    6    0    0 -0.14742304168E+02 -0.27036255564E+02  0.10070732797E+02  0.32399294841E+02  0.00000000000E+00 0.  1.
         12    1    6    6    0    0  0.68794008947E+01 -0.35861366417E+02 -0.81072449172E+02  0.88916285195E+02  0.00000000000E+00 0. -1.
         -5    1    3    3    0  503  0.59467992880E+02 -0.38823443995E+02 -0.19206807595E+03  0.20483148630E+03  0.47000000000E+01 0.  1.
         13    1    4    4    0    0  0.57361890202E+02  0.11998568082E+02 -0.28913666911E+03  0.29501587331E+03  0.00000000000E+00 0. -1.
        -14    1    4    4    0    0  0.10040741208E+02  0.79811936478E+02 -0.45573739748E+03  0.46278217030E+03  0.00000000000E+00 0.  1.
</event>
<event>
12    1  0.8494789E-002  0.2161951E+03  0.7818608E-02  0.1136991E+00
         21   -1    0    0  503  502  0.00000000000E+00  0.00000000000E+00  0.16413261823E+03  0.16413261823E+03  0.00000000000E+00 0.  1.
         21   -1    0    0  501  503 -0.00000000000E+00 -0.00000000000E+00 -0.52381389202E+03  0.52381389202E+03  0.00000000000E+00 0.  1.
          6    2    1    2  501    0 -0.12506885855E+03 -0.33924334873E+02 -0.41272302014E+03  0.46533978582E+03  0.17148686549E+03 0.  0.
         24    2    3    3    0    0 -0.10691141909E+03  0.34893505645E+02 -0.31802282729E+03  0.34678260844E+03  0.80449055762E+02 0.  0.
         -6    2    1    2    0  502  0.12506885855E+03  0.33924334873E+02  0.53041746357E+02  0.22260672443E+03  0.17305272904E+03 0.  0.
        -24    2    5    5    0    0 -0.44050350431E+01  0.32874202536E+02  0.23444265777E+02  0.89705660635E+02  0.79983463453E+02 0.  0.
          5    1    3    3  501    0 -0.18157439458E+02 -0.68817840518E+02 -0.94700192849E+02  0.11855717737E+03  0.47000000000E+01 0. -1.
        -11    1    4    4    0    0 -0.47768662346E+02  0.29062357140E+02 -0.25123470669E+03  0.25738170788E+03  0.00000000000E+00 0.  1.
         12    1    4    4    0    0 -0.59142756748E+02  0.58311485052E+01 -0.66788120600E+02  0.89400900566E+02  0.00000000000E+00 0. -1.
         -5    1    5    5    0  502  0.12947389360E+03  0.10501323362E+01  0.29597480579E+02  0.13290106379E+03  0.47000000000E+01 0.  1.
         13    1    6    6    0    0 -0.94697257945E+01 -0.12688081135E+02 -0.20702159795E+02  0.26062281744E+02  0.00000000000E+00 0. -1.
        -14    1    6    6    0    0  0.50646907514E+01  0.45562283672E+02  0.44146425573E+02  0.63643378891E+02  0.00000000000E+00 0.  1.
</event>
<event>
12    1  0.8494789E-002  0.2358571E+03  0.7818608E-02  0.1122616E+00
         21   -1    0    0  501  502  0.00000000000E+00  0.00000000000E+00  0.54159653969E+03  0.54159653969E+03  0.00000000000E+00 0. -1.
         21   -1    0    0  502  503 -0.00000000000E+00 -0.00000000000E+00 -0.10523828793E+03  0.10523828793E+03  0.00000000000E+00 0. -1.
         -6    2    1    2    0  503 -0.13215952475E+03 -0.92758167079E+02  0.26900089531E+03  0.35763408116E+03  0.17166955696E+03 0.  0.
        -24    2    3    3    0    0 -0.15270468058E+03 -0.74644659726E+02  0.27246020588E+03  0.32962944928E+03  0.74367098567E+02 0.  0.
          6    2    1    2  501    0  0.13215952475E+03  0.92758167079E+02  0.16735735646E+03  0.28920074646E+03  0.17192547645E+03 0.  0.
         24    2    5    5    0    0  0.11982833513E+03  0.10325964534E+02  0.13424792092E+03  0.19939289060E+03  0.85261744677E+02 0.  0.
          5    1    5    5  501    0  0.12331189620E+02  0.82432202545E+02  0.33109435533E+02  0.89807855866E+02  0.47000000000E+01 0. -1.
        -11    1    6    6    0    0 -0.11917107663E+02 -0.80499324584E+01  0.14228615973E+02  0.20230481461E+02  0.00000000000E+00 0.  1.
         12    1    6    6    0    0  0.13174544279E+03  0.18375896992E+02  0.12001930495E+03  0.17916240914E+03  0.00000000000E+00 0. -1.
         -5    1    3    3    0  503  0.20545155834E+02 -0.18113507353E+02 -0.34593105700E+01  0.28004631876E+02  0.47000000000E+01 0.  1.
         11    1    4    4    0    0 -0.21965974142E+02 -0.30467218114E+02  0.11125143643E+03  0.11742077119E+03  0.00000000000E+00 0. -1.
        -12    1    4    4    0    0 -0.13073870644E+03 -0.44177441612E+02  0.16120876944E+03  0.21220867809E+03  0.00000000000E+00 0.  1.
</event>
<event>
12    1  0.8494789E-002  0.1908155E+03  0.7818608E-02  0.1157731E+00
         21   -1    0    0  501  502  0.00000000000E+00  0.00000000000E+00  0.14316685164E+04  0.14316685164E+04  0.00000000000E+00 0. -1.
         21   -1    0    0  502  503 -0.00000000000E+00 -0.00000000000E+00 -0.27802986888E+02  0.27802986888E+02  0.00000000000E+00 0. -1.
         -6    2    1    2    0  503 -0.72191213663E+02 -0.40179918663E+02  0.91508486360E+03  0.93476482734E+03  0.17198539952E+03 0.  0.
        -24    2    3    3    0    0 -0.79325278350E+02 -0.77986702796E+02  0.51806178194E+03  0.53585422936E+03  0.79858121836E+02 0.  0.
          6    2    1    2  501    0  0.72191213663E+02  0.40179918663E+02  0.48878066593E+03  0.52470667597E+03  0.17200162564E+03 0.  0.
         24    2    5    5    0    0 -0.22442673719E+02  0.20423825323E+02  0.27288124907E+03  0.28810463864E+03  0.87288604467E+02 0.  0.
          5    1    5    5  501    0  0.94633887382E+02  0.19756093340E+02  0.21589941687E+03  0.23660203733E+03  0.47000000000E+01 0. -1.
        -11    1    6    6    0    0 -0.16510554203E+02 -0.33670814409E+02  0.12620145104E+03  0.13165533938E+03  0.00000000000E+00 0.  1.
         12    1    6    6    0    0 -0.59321195166E+01  0.54094639732E+02  0.14667979803E+03  0.15644929926E+03  0.00000000000E+00 0. -1.
         -5    1    3    3    0  503  0.71340646866E+01  0.37806784133E+02  0.39702308166E+03  0.39891059798E+03  0.47000000000E+01 0.  1.
         13    1    4    4    0    0 -0.24938217010E+02 -0.50523978864E+02  0.11334212455E+03  0.12657418498E+03  0.00000000000E+00 0. -1.
        -14    1    4    4    0    0 -0.54387061340E+02 -0.27462723932E+02  0.40471965739E+03  0.40928004438E+03  0.00000000000E+00 0.  1.
</event>
<event>
12    1  0.8494789E-002  0.2525486E+03  0.7818608E-02  0.1112012E+00
         21   -1    0    0  503  502  0.00000000000E+00  0.00000000000E+00  0.77363174734E+03  0.77363174734E+03  0.00000000000E+00 0.  1.
         21   -1    0    0  501  503 -0.00000000000E+00 -0.00000000000E+00 -0.92559412127E+02  0.92559412127E+02  0.00000000000E+00 0.  1.
          6    2    1    2  501    0  0.31100820184E+02  0.18226375950E+03  0.19407192913E+03  0.31850385538E+03  0.17202747797E+03 0.  0.
         24    2    3    3    0    0 -0.33631589358E+02  0.42485526888E+02  0.86719880183E+02  0.13068801055E+03  0.81381291989E+02 0.  0.
         -6    2    1    2    0  502 -0.31100820184E+02 -0.18226375950E+03  0.48700040609E+03  0.54768730409E+03  0.16912908824E+03 0.  0.
        -24    2    5    5    0    0 -0.61523167643E+02 -0.60271896316E+02  0.29972349917E+03  0.32207200370E+03  0.80488495865E+02 0.  0.
          5    1    3    3  501    0  0.64732409542E+02  0.13977823261E+03  0.10735204894E+03  0.18781584483E+03  0.47000000000E+01 0. -1.
        -13    1    4    4    0    0 -0.13409253642E+02  0.64042207359E+02  0.44419429485E+02  0.79084120545E+02  0.00000000000E+00 0.  1.
         14    1    4    4    0    0 -0.20222335716E+02 -0.21556680471E+02  0.42300450698E+02  0.51603890008E+02  0.00000000000E+00 0. -1.
         -5    1    5    5    0  502  0.30422347459E+02 -0.12199186318E+03  0.18727690692E+03  0.22561530039E+03  0.47000000000E+01 0.  1.
         13    1    6    6    0    0 -0.62763639944E+02 -0.70197525858E+02  0.19162183923E+03  0.21350853942E+03  0.00000000000E+00 0. -1.
        -14    1    6    6    0    0  0.12404723012E+01  0.99256295420E+01  0.10810165994E+03  0.10856346428E+03  0.00000000000E+00 0.  1.
</event>
<event>
12    1  0.8494789E-002  0.2625280E+03  0.7818608E-02  0.1105664E+00
         21   -1    0    0  503  502  0.00000000000E+00  0.00000000000E+00  0.40088652426E+02  0.40088652426E+02  0.00000000000E+00 0. -1.
         21   -1    0    0  501  503 -0.00000000000E+00 -0.00000000000E+00 -0.19318313243E+04  0.19318313243E+04  0.00000000000E+00 0.  1.
          6    2    1    2  501    0  0.19561636166E+03 -0.34616225030E+02 -0.61808549767E+03  0.67152858947E+03  0.17163018400E+03 0.  0.
         24    2    3    3    0    0  0.16953106553E+03  0.18378739576E+01 -0.58854708971E+03  0.61764026465E+03  0.79672201853E+02 0.  0.
         -6    2    1    2    0  502 -0.19561636166E+03  0.34616225030E+02 -0.12736571742E+04  0.13003913872E+04  0.17132168185E+03 0.  0.
        -24    2    5    5    0    0 -0.20864626699E+03  0.38696945456E+02 -0.96157870834E+03  0.98797901624E+03  0.80238431380E+02 0.  0.
          5    1    3    3  501    0  0.26085296129E+02 -0.36454098987E+02 -0.29538407961E+02  0.53888324821E+02  0.47000000000E+01 0. -1.
        -11    1    4    4    0    0  0.12800029576E+03 -0.22224456262E+02 -0.32955159832E+03  0.35423475002E+03  0.00000000000E+00 0.  1.
         12    1    4    4    0    0  0.41530769771E+02  0.24062330219E+02 -0.25899549139E+03  0.26340551462E+03  0.00000000000E+00 0. -1.
         -5    1    5    5    0  502  0.13029905338E+02 -0.40807204261E+01 -0.31207846585E+03  0.31241237101E+03  0.47000000000E+01 0.  1.
         13    1    6    6    0    0 -0.39480813359E+02  0.39476894920E+02 -0.18776688341E+03  0.19589171081E+03  0.00000000000E+00 0. -1.
        -14    1    6    6    0    0 -0.16916545363E+03 -0.77994946439E+00 -0.77381182493E+03  0.79208730543E+03  0.00000000000E+00 0.  1.
</event>
<event>
12    1  0.8494789E-002  0.1912992E+03  0.7818608E-02  0.1157619E+00
         21   -1    0    0  503  502  0.00000000000E+00  0.00000000000E+00  0.61531396094E+03  0.61531396094E+03  0.00000000000E+00 0.  1.
         21   -1    0    0  501  503 -0.00000000000E+00 -0.00000000000E+00 -0.12034403037E+03  0.12034403037E+03  0.00000000000E+00 0.  1.
          6    2    1    2  501    0 -0.10603303833E+02 -0.81092524328E+02 -0.14613881199E+02  0.19185659492E+03  0.17293628867E+03 0.  0.
         24    2    3    3    0    0  0.11337696565E+02 -0.11785348358E+03 -0.30451916457E+02  0.14596859013E+03  0.79759157048E+02 0.  0.
         -6    2    1    2    0  502  0.10603303833E+02  0.81092524328E+02  0.50958381177E+03  0.54380139638E+03  0.17133554780E+03 0.  0.
        -24    2    5    5    0    0 -0.46534725768E+02  0.11574804186E+02  0.32825329515E+03  0.34131605347E+03  0.80292999578E+02 0.  0.
          5    1    3    3  501    0 -0.21941000398E+02  0.36760959250E+02  0.15838035258E+02  0.45888004797E+02  0.47000000000E+01 0. -1.
        -11    1    4    4    0    0  0.43740093274E+02 -0.61495974549E+02 -0.29290474692E+02  0.80949876795E+02  0.00000000000E+00 0.  1.
         12    1    4    4    0    0 -0.32402396709E+02 -0.56357509028E+02 -0.11614417647E+01  0.65018713332E+02  0.00000000000E+00 0. -1.
         -5    1    5    5    0  502  0.57138029601E+02  0.69517720142E+02  0.18133051661E+03  0.20248534291E+03  0.47000000000E+01 0.  1.
         13    1    6    6    0    0 -0.62110530922E+02  0.23274161055E+02  0.18081947764E+03  0.19260085182E+03  0.00000000000E+00 0. -1.
        -14    1    6    6    0    0  0.15575805154E+02 -0.11699356869E+02  0.14743381751E+03  0.14871520165E+03  0.00000000000E+00 0.  1.
</event>
<event>
12    1  0.8494789E-002  0.2387875E+03  0.7818608E-02  0.1120777E+00
         21   -1    0    0  503  502  0.00000000000E+00  0.00000000000E+00  0.21950951696E+03  0.21950951696E+03  0.00000000000E+00 0.  1.
         21   -1    0    0  501  503 -0.00000000000E+00 -0.00000000000E+00 -0.34949068193E+03  0.34949068193E+03  0.00000000000E+00 0.  1.
          6    2    1    2  501    0  0.16070545724E+03  0.40467412532E+02 -0.20994552585E+03  0.31717926360E+03  0.17047494235E+03 0.  0.
         24    2    3    3    0    0  0.90601905815E+02 -0.11702853651E+02 -0.24111298161E+02  0.11177065916E+03  0.59713176351E+02 0.  0.
         -6    2    1    2    0  502 -0.16070545724E+03 -0.40467412532E+02  0.79964360888E+02  0.25182093528E+03  0.17191750629E+03 0.  0.
        -24    2    5    5    0    0 -0.48807981474E+02  0.23848647241E+02 -0.71108446413E+01  0.96058994984E+02  0.78903671493E+02 0.  0.
          5    1    3    3  501    0  0.70103551422E+02  0.52170266183E+02 -0.18583422769E+03  0.20540860444E+03  0.47000000000E+01 0. -1.
        -11    1    4    4    0    0  0.76061348974E+02  0.44800312360E+01 -0.38816810750E+02  0.85511076969E+02  0.00000000000E+00 0.  1.
         12    1    4    4    0    0  0.14540556841E+02 -0.16182884887E+02  0.14705512589E+02  0.26259582194E+02  0.00000000000E+00 0. -1.
         -5    1    5    5    0  502 -0.11189747576E+03 -0.64316059773E+02  0.87075205529E+02  0.15576194030E+03  0.47000000000E+01 0.  1.
         11    1    6    6    0    0 -0.28375364257E+02  0.90958834320E+01 -0.42932742661E+02  0.52260087874E+02  0.00000000000E+00 0. -1.
        -12    1    6    6    0    0 -0.20432617217E+02  0.14752763809E+02  0.35821898020E+02  0.43798907111E+02  0.00000000000E+00 0.  1.
</event>
<event>
12    1  0.8494789E-002  0.1803555E+03  0.7818608E-02  0.1167719E+00
         21   -1    0    0  501  502  0.00000000000E+00  0.00000000000E+00  0.46999565587E+03  0.46999565587E+03  0.00000000000E+00 0. -1.
         21   -1    0    0  502  503 -0.00000000000E+00 -0.00000000000E+00 -0.14358414404E+03  0.14358414404E+03  0.00000000000E+00 0. -1.
         -6    2    1    2    0  503 -0.37344536815E+02  0.41028883669E+02 -0.58436466695E+02  0.18856679194E+03  0.17048352019E+03 0.  0.
        -24    2    3    3    0    0  0.10295668047E+02  0.81542568564E+02 -0.37764746114E+02  0.12253378645E+03  0.82662939114E+02 0.  0.
          6    2    1    2  501    0  0.37344536815E+02 -0.41028883669E+02  0.38484797852E+03  0.42501300796E+03  0.17161033372E+03 0.  0.
         24    2    5    5    0    0  0.48432197554E+02 -0.52764197730E+02  0.12266106407E+03  0.16228744406E+03  0.78496748591E+02 0.  0.
          5    1    5    5  501    0 -0.11087660739E+02  0.11735314060E+02  0.26218691445E+03  0.26272556390E+03  0.47000000000E+01 0. -1.
        -13    1    6    6    0    0  0.10924531589E+02 -0.40610330749E+02  0.11456154289E+03  0.12203643498E+03  0.00000000000E+00 0.  1.
         14    1    6    6    0    0  0.37507665965E+02 -0.12153866980E+02  0.80995211842E+01  0.40251009082E+02  0.00000000000E+00 0. -1.
         -5    1    3    3    0  503 -0.47640204862E+02 -0.40513684894E+02 -0.20671720582E+02  0.66033005496E+02  0.47000000000E+01 0.  1.
         13    1    4    4    0    0  0.30992562974E+02  0.47871570957E+01 -0.28719966274E+02  0.42524020219E+02  0.00000000000E+00 0. -1.
        -14    1    4    4    0    0 -0.20696894927E+02  0.76755411468E+02 -0.90447798395E+01  0.80009766226E+02  0.00000000000E+00 0.  1.
</event>
<event>
12    1  0.8494789E-002  0.2157006E+03  0.7818608E-02  0.1140436E+00
         21   -1    0    0  503  502  0.00000000000E+00  0.00000000000E+00  0.57999695077E+03  0.57999695077E+03  0.00000000000E+00 0. -1.
         21   -1    0    0  501  503 -0.00000000000E+00 -0.00000000000E+00 -0.85301161647E+02  0.85301161647E+02  0.00000000000E+00 0. -1.
          6    2    1    2  501    0 -0.11439365444E+03 -0.55057477651E+02  0.13588485122E+03  0.25493420343E+03  0.17438325970E+03 0.  0.
         24    2    3    3    0    0 -0.10898505046E+03  0.20519022707E+02  0.73294625934E+02  0.15654372266E+03  0.82674442237E+02 0.  0.
         -6    2    1    2    0  502  0.11439365444E+03  0.55057477651E+02  0.35881093791E+03  0.41036390900E+03  0.15341451894E+03 0.  0.
        -24    2    5    5    0    0  0.12631329757E+02 -0.31918983821E+01  0.15794414643E+03  0.17773089661E+03  0.80449857120E+02 0.  0.
          5    1    3    3  501    0 -0.54086039858E+01 -0.75576500358E+02  0.62590225282E+02  0.98390480761E+02  0.47000000000E+01 0. -1.
        -11    1    4    4    0    0 -0.30507412708E+01  0.29456181974E+02  0.28763336276E+02  0.41283207149E+02  0.00000000000E+00 0.  1.
         12    1    4    4    0    0 -0.10593430918E+03 -0.89371592672E+01  0.44531289658E+02  0.11526051552E+03  0.00000000000E+00 0. -1.
         -5    1    5    5    0  502  0.10176232468E+03  0.58249376033E+02  0.20086679148E+03  0.23263301239E+03  0.47000000000E+01 0.  1.
         13    1    6    6    0    0 -0.12182621318E+02  0.34373568403E+02  0.71946907775E+02  0.80661738174E+02  0.00000000000E+00 0. -1.
        -14    1    6    6    0    0  0.24813951075E+02 -0.37565466785E+02  0.85997238653E+02  0.97069158432E+02  0.00000000000E+00 0.  1.
</event>
<event>
12    1  0.8494789E-002  0.1880896E+03  0.7818608E-02  0.1160440E+00
         21   -1    0    0  501  502  0.00000000000E+00  0.00000000000E+00  0.97100959941E+02  0.97100959941E+02  0.00000000000E+00 0. -1.
         21   -1    0    0  502  503 -0.00000000000E+00 -0.00000000000E+00 -0.76652699861E+03  0.76652699861E+03  0.00000000000E+00 0. -1.
         -6    2    1    2    0  503  0.44405749044E+02  0.59131767861E+02 -0.64874982464E+03  0.67546577597E+03  0.17294288948E+03 0.  0.
        -24    2    3    3    0    0  0.50184930421E+02  0.10622095526E+03 -0.48249322147E+03  0.50250873332E+03  0.76901883675E+02 0.  0.
          6    2    1    2  501    0 -0.44405749044E+02 -0.59131767861E+02 -0.20676214029E+02  0.18816218258E+03  0.17178202644E+03 0.  0.
         24    2    5    5    0    0  0.28073152288E+02  0.85855139088E+01 -0.27018896254E+02  0.88657705262E+02  0.79172943731E+02 0.  0.
          5    1    5    5  501    0 -0.72478901332E+02 -0.67717281770E+02  0.63426822243E+01  0.99504477318E+02  0.47000000000E+01 0. -1.
        -13    1    6    6    0    0 -0.10506568492E+02  0.30109759809E+02 -0.30778068384E+02  0.44320143397E+02  0.00000000000E+00 0.  1.
         14    1    6    6    0    0  0.38579720780E+02 -0.21524245900E+02  0.37591721305E+01  0.44337561865E+02  0.00000000000E+00 0. -1.
         -5    1    3    3    0  503 -0.57791813767E+01 -0.47089187403E+02 -0.16625660316E+03  0.17295704265E+03  0.47000000000E+01 0.  1.
         11    1    4    4    0    0  0.47959902286E+02  0.95134068369E+02 -0.47895327301E+03  0.49065963857E+03  0.00000000000E+00 0. -1.
        -12    1    4    4    0    0  0.22250281343E+01  0.11086886895E+02 -0.35399484618E+01  0.11849094748E+02  0.00000000000E+00 0.  1.
</event>
<event>
12    1  0.8494789E-002  0.1761884E+03  0.7818608E-02  0.1171798E+00
         21   -1    0    0  503  502  0.00000000000E+00  0.00000000000E+00  0.15795510277E+03  0.15795510277E+03  0.00000000000E+00 0.  1.
         21   -1    0    0  501  503 -0.00000000000E+00 -0.00000000000E+00 -0.19612264838E+03  0.19612264838E+03  0.00000000000E+00 0.  1.
          6    2    1    2  501    0  0.35292396925E+02  0.16771129159E+01 -0.82069751226E+01  0.17536013576E+03  0.17156764493E+03 0.  0.
         24    2    3    3    0    0  0.62310286671E+02 -0.49848561291E+02 -0.22013464829E+02  0.11538038396E+03  0.80377792207E+02 0.  0.
         -6    2    1    2    0  502 -0.35292396925E+02 -0.16771129159E+01 -0.29960570485E+02  0.17871761538E+03  0.17260934006E+03 0.  0.
        -24    2    5    5    0    0  0.40755585254E+02 -0.19379285224E+02  0.75463665581E+01  0.91967844063E+02  0.79778206724E+02 0.  0.
          5    1    3    3  501    0 -0.27017889746E+02  0.51525674207E+02  0.13806489706E+02  0.59979751807E+02  0.47000000000E+01 0. -1.
        -11    1    4    4    0    0  0.52707583466E+02  0.87843718259E+01 -0.55167501472E+01  0.53718610140E+02  0.00000000000E+00 0.  1.
         12    1    4    4    0    0  0.96027032049E+01 -0.58632933117E+02 -0.16496714682E+02  0.61661773815E+02  0.00000000000E+00 0. -1.
         -5    1    5    5    0  502 -0.76047982180E+02  0.17702172308E+02 -0.37506937043E+02  0.86749771322E+02  0.47000000000E+01 0.  1.
         11    1    6    6    0    0  0.32001490017E+01 -0.45418795887E+02 -0.66496297095E+00  0.45536250935E+02  0.00000000000E+00 0. -1.
        -12    1    6    6    0    0  0.37555436253E+02  0.26039510663E+02  0.82113295290E+01  0.46431593127E+02  0.00000000000E+00 0.  1.
</event>
<event>
12    1  0.8494789E-002  0.2956284E+03  0.7818608E-02  0.1087653E+00
         21   -1    0    0  501  502  0.00000000000E+00  0.00000000000E+00  0.45547107846E+03  0.45547107846E+03  0.00000000000E+00 0.  1.
         21   -1    0    0  502  503 -0.00000000000E+00 -0.00000000000E+00 -0.26800780448E+03  0.26800780448E+03  0.00000000000E+00 0. -1.
         -6    2    1    2    0  503 -0.17904904800E+03 -0.16020401968E+03 -0.10056903536E+03  0.31073346883E+03  0.16946170148E+03 0.  0.
        -24    2    3    3    0    0 -0.39023866224E+02 -0.25486176650E+02  0.23587196489E+00  0.91782177208E+02  0.79066459907E+02 0.  0.
          6    2    1    2  501    0  0.17904904800E+03  0.16020401968E+03  0.28803230935E+03  0.41274541411E+03  0.17225642550E+03 0.  0.
         24    2    5    5    0    0  0.99285961931E+02  0.12688455115E+03  0.27015933443E+03  0.32434931626E+03  0.79113977417E+02 0.  0.
          5    1    5    5  501    0  0.79763086068E+02  0.33319468532E+02  0.17872974921E+02  0.88396097849E+02  0.47000000000E+01 0. -1.
        -13    1    6    6    0    0  0.91001928976E+02  0.11407297705E+03  0.17446647541E+03  0.22744789780E+03  0.00000000000E+00 0.  1.
         14    1    6    6    0    0  0.82840329549E+01  0.12811574098E+02  0.95692859018E+02  0.96901418462E+02  0.00000000000E+00 0. -1.
         -5    1    3    3    0  503 -0.14002518178E+03 -0.13471784303E+03 -0.10080490733E+03  0.21895129162E+03  0.47000000000E+01 0.  1.
         13    1    4    4    0    0 -0.54288997532E+02 -0.82425589979E+01  0.22877734067E+02  0.59486349257E+02  0.00000000000E+00 0. -1.
        -14    1    4    4    0    0  0.15265131308E+02 -0.17243617652E+02 -0.22641862103E+02  0.32295827951E+02  0.00000000000E+00 0.  1.
</event>
<event>
12    1  0.8494789E-002  0.1888010E+03  0.7818608E-02  0.1159663E+00
         21   -1    0    0  501  502  0.00000000000E+00  0.00000000000E+00  0.32356010839E+03  0.32356010839E+03  0.00000000000E+00 0. -1.
         21   -1    0    0  502  503 -0.00000000000E+00 -0.00000000000E+00 -0.18361552480E+03  0.18361552480E+03  0.00000000000E+00 0. -1.
         -6    2    1    2    0  503 -0.77067583190E+01  0.76163206635E+02 -0.90680580548E+02  0.20944876737E+03  0.17258502338E+03 0.  0.
        -24    2    3    3    0    0 -0.57783353434E+02  0.24650283024E+02 -0.85904435183E+02  0.13729512406E+03  0.86739994930E+02 0.  0.
          6    2    1    2  501    0  0.77067583190E+01 -0.76163206635E+02  0.23062516414E+03  0.29772686582E+03  0.17202642858E+03 0.  0.
         24    2    5    5    0    0  0.68198321267E+02 -0.21593869282E+02  0.15007806971E+03  0.18306664522E+03  0.76633304578E+02 0.  0.
          5    1    5    5  501    0 -0.60491562948E+02 -0.54569337353E+02  0.80547094423E+02  0.11466022060E+03  0.47000000000E+01 0. -1.
        -13    1    6    6    0    0 -0.14481096251E+02 -0.10157004295E+02  0.10892976675E+02  0.20773151560E+02  0.00000000000E+00 0.  1.
         14    1    6    6    0    0  0.82679417518E+02 -0.11436864988E+02  0.13918509304E+03  0.16229349366E+03  0.00000000000E+00 0. -1.
         -5    1    3    3    0  503  0.50076595116E+02  0.51512923610E+02 -0.47761453653E+01  0.72153643302E+02  0.47000000000E+01 0.  1.
         13    1    4    4    0    0 -0.36531264971E+02 -0.29756123758E+02 -0.50148530266E+02  0.68810139582E+02  0.00000000000E+00 0. -1.
        -14    1    4    4    0    0 -0.21252088463E+02  0.54406406783E+02 -0.35755904917E+02  0.68484984482E+02  0.00000000000E+00 0.  1.
</event>
<event>
12    1  0.8494789E-002  0.1887108E+03  0.7818608E-02  0.1159883E+00
         21   -1    0    0  503  502  0.00000000000E+00  0.00000000000E+00  0.31860945090E+02  0.31860945090E+02  0.00000000000E+00 0.  1.
         21   -1    0    0  501  503 -0.00000000000E+00 -0.00000000000E+00 -0.18640745630E+04  0.18640745630E+04  0.00000000000E+00 0.  1.
          6    2    1    2  501    0  0.39864948848E+02 -0.65144478024E+02 -0.31525000107E+03  0.36741573667E+03  0.17256518539E+03 0.  0.
         24    2    3    3    0    0  0.27885013398E+02 -0.75355112468E+02 -0.97518390736E+02  0.14906528430E+03  0.79086380012E+02 0.  0.
         -6    2    1    2    0  502 -0.39864948848E+02  0.65144478024E+02 -0.15169636168E+04  0.15285197714E+04  0.17135069207E+03 0.  0.
        -24    2    5    5    0    0 -0.20769488580E+02  0.46892059419E+02 -0.38123336090E+03  0.39247263700E+03  0.77882337140E+02 0.  0.
          5    1    3    3  501    0  0.11979935450E+02  0.10210634444E+02 -0.21773161034E+03  0.21835045237E+03  0.47000000000E+01 0. -1.
        -11    1    4    4    0    0  0.23170444012E+02 -0.46905455969E+02 -0.54653937457E+01  0.52600967711E+02  0.00000000000E+00 0.  1.
         12    1    4    4    0    0  0.47145693865E+01 -0.28449656499E+02 -0.92052996990E+02  0.96464316585E+02  0.00000000000E+00 0. -1.
         -5    1    5    5    0  502 -0.19095460268E+02  0.18252418605E+02 -0.11357302559E+04  0.11360471344E+04  0.47000000000E+01 0.  1.
         11    1    6    6    0    0 -0.38205783917E+01 -0.21874330009E+02 -0.79923163907E+02  0.82950559139E+02  0.00000000000E+00 0. -1.
        -12    1    6    6    0    0 -0.16948910188E+02  0.68766389428E+02 -0.30131019699E+03  0.30952207786E+03  0.00000000000E+00 0.  1.
</event>
<event>
12    1  0.8494789E-002  0.1773667E+03  0.7818608E-02  0.1171132E+00
         21   -1    0    0  501  502  0.00000000000E+00  0.00000000000E+00  0.43307584336E+02  0.43307584336E+02  0.00000000000E+00 0.  1.
         21   -1    0    0  502  503 -0.00000000000E+00 -0.00000000000E+00 -0.71460883870E+03  0.71460883870E+03  0.00000000000E+00 0.  1.
         -6    2    1    2    0  503 -0.22974659073E+02  0.30698417003E+02 -0.34360544182E+03  0.38529933260E+03  0.17006071942E+03 0.  0.
        -24    2    3    3    0    0 -0.21558577521E+02  0.17752668856E+02 -0.35647326391E+03  0.36639778432E+03  0.79963860324E+02 0.  0.
          6    2    1    2  501    0  0.22974659073E+02 -0.30698417003E+02 -0.32769581255E+03  0.37261709044E+03  0.17317252311E+03 0.  0.
         24    2    5    5    0    0 -0.19495534108E+02  0.29708746303E+02 -0.25058035208E+03  0.26574507853E+03  0.81038561523E+02 0.  0.
          5    1    5    5  501    0  0.42470193180E+02 -0.60407163306E+02 -0.77115460463E+02  0.10687201191E+03  0.47000000000E+01 0. -1.
        -13    1    6    6    0    0 -0.44816840436E+02  0.13095145768E+02 -0.81100071692E+02  0.93580199069E+02  0.00000000000E+00 0.  1.
         14    1    6    6    0    0  0.25321306329E+02  0.16613600536E+02 -0.16948028039E+03  0.17216487946E+03  0.00000000000E+00 0. -1.
         -5    1    3    3    0  503 -0.14160815516E+01  0.12945748147E+02  0.12867822089E+02  0.18901548279E+02  0.47000000000E+01 0.  1.
         13    1    4    4    0    0 -0.39451678587E+02  0.30868265995E+02 -0.13817096840E+03  0.14697109000E+03  0.00000000000E+00 0. -1.
        -14    1    4    4    0    0  0.17893101065E+02 -0.13115597139E+02 -0.21830229551E+03  0.21942669432E+03  0.00000000000E+00 0.  1.
</event>
<event>
12    1  0.8494789E-002  0.1739857E+03  0.7818608E-02  0.1174858E+00
         21   -1    0    0  501  502  0.00000000000E+00  0.00000000000E+00  0.29398201504E+03  0.29398201504E+03  0.00000000000E+00 0. -1.
         21   -1    0    0  502  503 -0.00000000000E+00 -0.00000000000E+00 -0.12140794396E+03  0.12140794396E+03  0.00000000000E+00 0. -1.
         -6    2    1    2    0  503  0.13439760652E+02 -0.14023017241E+02 -0.92390321098E+00  0.16968165127E+03  0.16856374759E+03 0.  0.
        -24    2    3    3    0    0 -0.23601270942E+02 -0.13763136566E+02  0.58359277607E+02  0.99619599577E+02  0.75972464872E+02 0.  0.
          6    2    1    2  501    0 -0.13439760652E+02  0.14023017241E+02  0.17349797429E+03  0.24570830773E+03  0.17289810070E+03 0.  0.
         24    2    5    5    0    0  0.51867073015E+02  0.24264132804E+01  0.56774682791E+02  0.11137335128E+03  0.80526877651E+02 0.  0.
          5    1    5    5  501    0 -0.65306833666E+02  0.11596603961E+02  0.11672329149E+03  0.13433495645E+03  0.47000000000E+01 0. -1.
        -11    1    6    6    0    0 -0.16074113885E+02  0.12995285895E+02  0.32381370181E+02  0.38416243017E+02  0.00000000000E+00 0.  1.
         12    1    6    6    0    0  0.67941186900E+02 -0.10568872615E+02  0.24393312610E+02  0.72957108261E+02  0.00000000000E+00 0. -1.
         -5    1    3    3    0  503  0.37041031593E+02 -0.25988067476E+00 -0.59283180818E+02  0.70062051693E+02  0.47000000000E+01 0.  1.
         13    1    4    4    0    0 -0.11501618465E+02 -0.81580394185E+00 -0.17919880110E+02  0.21309032511E+02  0.00000000000E+00 0. -1.
        -14    1    4    4    0    0 -0.12099652476E+02 -0.12947332624E+02  0.76279157717E+02  0.78310567066E+02  0.00000000000E+00 0.  1.
</event>
<event>
12    1  0.8494789E-002  0.1905865E+03  0.7818608E-02  0.1158060E+00
         21   -1    0    0  503  502  0.00000000000E+00  0.00000000000E+00  0.31241316180E+03  0.31241316180E+03  0.00000000000E+00 0.  1.
         21   -1    0    0  501  503 -0.00000000000E+00 -0.00000000000E+00 -0.14510570917E+03  0.14510570917E+03  0.00000000000E+00 0. -1.
          6    2    1    2  501    0 -0.16795776763E+02 -0.80439145897E+02 -0.19031460293E+02  0.19097541997E+03  0.17133843773E+03 0.  0.
         24    2    3    3    0    0 -0.72513011480E+02 -0.42460563808E+02  0.13961080184E+02  0.11575985862E+03  0.78386202839E+02 0.  0.
         -6    2    1    2    0  502  0.16795776763E+02  0.80439145897E+02  0.18633891293E+03  0.26654345100E+03  0.17196123543E+03 0.  0.
        -24    2    5    5    0    0 -0.51290761403E+02  0.25602952162E+02  0.78297891199E+02  0.12748325829E+03  0.82675074914E+02 0.  0.
          5    1    3    3  501    0  0.55717234717E+02 -0.37978582089E+02 -0.32992540477E+02  0.75215561350E+02  0.47000000000E+01 0. -1.
        -13    1    4    4    0    0 -0.65389131876E+02 -0.64414463012E+02  0.12472256842E+02  0.92631089831E+02  0.00000000000E+00 0.  1.
         14    1    4    4    0    0 -0.71238796043E+01  0.21953899204E+02  0.14888233412E+01  0.23128768791E+02  0.00000000000E+00 0. -1.
         -5    1    5    5    0  502  0.68086538166E+02  0.54836193735E+02  0.10804102173E+03  0.13906019272E+03  0.47000000000E+01 0.  1.
         13    1    6    6    0    0 -0.45101262308E+02  0.15085044841E+02 -0.68600460622E+00  0.47562096694E+02  0.00000000000E+00 0. -1.
        -14    1    6    6    0    0 -0.61894990953E+01  0.10517907321E+02  0.78983895806E+02  0.79921161591E+02  0.00000000000E+00 0.  1.
</event>
<event>
12    1  0.8494789E-002  0.2412934E+03  0.7818608E-02  0.1118974E+00
         21   -1    0    0  501  502  0.00000000000E+00  0.00000000000E+00  0.74334503098E+03  0.74334503098E+03  0.00000000000E+00 0. -1.
         21   -1    0    0  502  503 -0.00000000000E+00 -0.00000000000E+00 -0.19982611544E+03  0.19982611544E+03  0.00000000000E+00 0. -1.
         -6    2    1    2    0  503 -0.10950998341E+03  0.12897265410E+03 -0.96032535663E+02  0.25970129545E+03  0.17203526667E+03 0.  0.
        -24    2    3    3    0    0 -0.72467431139E+02  0.67312180512E+02 -0.12764826663E+03  0.18098783328E+03  0.81731619336E+02 0.  0.
          6    2    1    2  501    0  0.10950998341E+03 -0.12897265410E+03  0.63955145121E+03  0.68346985097E+03  0.17169332097E+03 0.  0.
         24    2    5    5    0    0 -0.58352776563E+01 -0.81500086506E+02  0.35141639491E+03  0.36946017820E+03  0.79567745331E+02 0.  0.
          5    1    5    5  501    0  0.11534526107E+03 -0.47472567598E+02  0.28813505630E+03  0.31400967277E+03  0.47000000000E+01 0. -1.
        -11    1    6    6    0    0 -0.37790902501E+02 -0.19021596281E+02  0.16293861254E+03  0.16834180970E+03  0.00000000000E+00 0.  1.
         12    1    6    6    0    0  0.31955624845E+02 -0.62478490225E+02  0.18847778237E+03  0.20111836850E+03  0.00000000000E+00 0. -1.
         -5    1    3    3    0  503 -0.37042552270E+02  0.61660473592E+02  0.31615730969E+02  0.78713462171E+02  0.47000000000E+01 0.  1.
         13    1    4    4    0    0 -0.25799845199E+02 -0.17262257992E+02 -0.23454261928E+02  0.38906554279E+02  0.00000000000E+00 0. -1.
        -14    1    4    4    0    0 -0.46667585940E+02  0.84574438504E+02 -0.10419400470E+03  0.14208127900E+03  0.00000000000E+00 0.  1.
</event>
<event>
12    1  0.8494789E-002  0.2083315E+03  0.7818608E-02  0.1143311E+00
         21   -1    0    0  501  502  0.00000000000E+00  0.00000000000E+00  0.46258267068E+03  0.46258267068E+03  0.00000000000E+00 0. -1.
         21   -1    0    0  502  503 -0.00000000000E+00 -0.00000000000E+00 -0.11315067504E+03  0.11315067504E+03  0.00000000000E+00 0.  1.
         -6    2    1    2    0  503  0.75781456760E+02 -0.90832464957E+02  0.52200420707E+02  0.21276141292E+03  0.16896499350E+03 0.  0.
        -24    2    3    3    0    0 -0.70747189022E+01 -0.17840794689E+02  0.75430834614E+02  0.99824829371E+02  0.62504720987E+02 0.  0.
          6    2    1    2  501    0 -0.75781456760E+02  0.90832464957E+02  0.29723157493E+03  0.36297193280E+03  0.17148950110E+03 0.  0.
         24    2    5    5    0    0  0.17830641347E+02  0.81421136273E+02  0.16879521178E+03  0.20369297186E+03  0.77792480759E+02 0.  0.
          5    1    5    5  501    0 -0.93612098107E+02  0.94113286847E+01  0.12843636315E+03  0.15927896094E+03  0.47000000000E+01 0. -1.
        -13    1    6    6    0    0  0.25612482975E+02  0.31232422677E+02  0.17352884319E+02  0.43961188617E+02  0.00000000000E+00 0.  1.
         14    1    6    6    0    0 -0.77818416288E+01  0.50188713596E+02  0.15144232746E+03  0.15973178324E+03  0.00000000000E+00 0. -1.
         -5    1    3    3    0  503  0.82856175663E+02 -0.72991670268E+02 -0.23230413907E+02  0.11293658355E+03  0.47000000000E+01 0.  1.
         11    1    4    4    0    0  0.25902438980E+02 -0.19362765728E+02  0.35742315301E+02  0.48201308539E+02  0.00000000000E+00 0. -1.
        -12    1    4    4    0    0 -0.32977157883E+02  0.15219710390E+01  0.39688519313E+02  0.51623520832E+02  0.00000000000E+00 0.  1.
</event>
<event>
12    1  0.8494789E-002  0.1881030E+03  0.7818608E-02  0.1160698E+00
         21   -1    0    0  503  502  0.00000000000E+00  0.00000000000E+00  0.45553623559E+03  0.45553623559E+03  0.00000000000E+00 0. -1.
         21   -1    0    0  501  503 -0.00000000000E+00 -0.00000000000E+00 -0.13168096136E+03  0.13168096136E+03  0.00000000000E+00 0.  1.
          6    2    1    2  501    0 -0.21894984412E+02  0.68745662781E+02 -0.28264793375E+02  0.18800384955E+03  0.17129270974E+03 0.  0.
         24    2    3    3    0    0 -0.66819628247E+02  0.83976471457E+02 -0.28675237937E+01  0.13399169852E+03  0.80178813307E+02 0.  0.
         -6    2    1    2    0  502  0.21894984412E+02 -0.68745662781E+02  0.35212006761E+03  0.39921334740E+03  0.17371643052E+03 0.  0.
        -24    2    5    5    0    0 -0.21267871742E+02 -0.11212303263E+02  0.29738596152E+03  0.30870902718E+03  0.79276826623E+02 0.  0.
          5    1    3    3  501    0  0.44924643836E+02 -0.15230808676E+02 -0.25397269581E+02  0.54012151030E+02  0.47000000000E+01 0. -1.
        -13    1    4    4    0    0  0.13682382438E+02  0.36759331744E+02 -0.97306158593E+01  0.40412138578E+02  0.00000000000E+00 0.  1.
         14    1    4    4    0    0 -0.80502010686E+02  0.47217139713E+02  0.68630920655E+01  0.93579559947E+02  0.00000000000E+00 0. -1.
         -5    1    5    5    0  502  0.43162856154E+02 -0.57533359518E+02  0.54734106085E+02  0.90504320216E+02  0.47000000000E+01 0.  1.
         13    1    6    6    0    0  0.54118194973E+01  0.17082042720E+02  0.23156972580E+03  0.23226196822E+03  0.00000000000E+00 0. -1.
        -14    1    6    6    0    0 -0.26679691239E+02 -0.28294345983E+02  0.65816235721E+02  0.76447058961E+02  0.00000000000E+00 0.  1.
</event>
<event>
12    1  0.8494789E-002  0.3494351E+03  0.7818608E-02  0.1062853E+00
         21   -1    0    0  501  502  0.00000000000E+00  0.00000000000E+00  0.25073169510E+03  0.25073169510E+03  0.00000000000E+00 0.  1.
         21   -1    0    0  502  503 -0.00000000000E+00 -0.00000000000E+00 -0.50602156742E+03  0.50602156742E+03  0.00000000000E+00 0.  1.
         -6    2    1    2    0  503 -0.26160877197E+03  0.15617209121E+03 -0.54118096584E+02  0.35354736850E+03  0.17099152538E+03 0.  0.
        -24    2    3    3    0    0 -0.16454614845E+03  0.34691779720E+02 -0.65297695050E+02  0.19758040922E+03  0.80593266347E+02 0.  0.
          6    2    1    2  501    0  0.26160877197E+03 -0.15617209121E+03 -0.20117177573E+03  0.40320589402E+03  0.17110241955E+03 0.  0.
         24    2    5    5    0    0  0.16656627685E+03 -0.70178521370E+02 -0.38348984644E+02  0.19593476427E+03  0.65195381575E+02 0.  0.
          5    1    5    5  501    0  0.95042495119E+02 -0.85993569841E+02 -0.16282279109E+03  0.20727112975E+03  0.47000000000E+01 0. -1.
        -13    1    6    6    0    0  0.57690861503E+02 -0.62767778834E+01 -0.38591185296E+02  0.69691556333E+02  0.00000000000E+00 0.  1.
         14    1    6    6    0    0  0.10887541535E+03 -0.63901743487E+02  0.24220065221E+00  0.12624320793E+03  0.00000000000E+00 0. -1.
         -5    1    3    3    0  503 -0.97062623520E+02  0.12148031149E+03  0.11179598466E+02  0.15596695928E+03  0.47000000000E+01 0.  1.
         13    1    4    4    0    0 -0.15914282290E+03  0.28565250961E+02 -0.33984367752E+02  0.16521909361E+03  0.00000000000E+00 0. -1.
        -14    1    4    4    0    0 -0.54033255512E+01  0.61265287598E+01 -0.31313327298E+02  0.32361315612E+02  0.00000000000E+00 0.  1.
</event>
<event>
12    1  0.8494789E-002  0.2033932E+03  0.7818608E-02  0.1147067E+00
         21   -1    0    0  501  502  0.00000000000E+00  0.00000000000E+00  0.34269681011E+03  0.34269681011E+03  0.00000000000E+00 0. -1.
         21   -1    0    0  502  503 -0.00000000000E+00 -0.00000000000E+00 -0.13641122949E+03  0.13641122949E+03  0.00000000000E+00 0.  1.
         -6    2    1    2    0  503  0.10658379910E+03 -0.21220202269E+02  0.20538482591E+02  0.20366153377E+03  0.17101399900E+03 0.  0.
        -24    2    3    3    0    0  0.14172942987E+03 -0.20727290150E+02  0.24097600754E+01  0.16383442108E+03  0.79492507426E+02 0.  0.
          6    2    1    2  501    0 -0.10658379910E+03  0.21220202269E+02  0.18574709802E+03  0.27544650583E+03  0.17192553602E+03 0.  0.
         24    2    5    5    0    0 -0.68283498133E+02 -0.39718815570E+02  0.16291235246E+03  0.19978943376E+03  0.84469893044E+02 0.  0.
          5    1    5    5  501    0 -0.38300300967E+02  0.60939017839E+02  0.22834745558E+02  0.75657072069E+02  0.47000000000E+01 0. -1.
        -11    1    6    6    0    0  0.10920359902E+02 -0.34120677595E+02  0.42952727461E+02  0.55932206253E+02  0.00000000000E+00 0.  1.
         12    1    6    6    0    0 -0.79203858035E+02 -0.55981379751E+01  0.11995962500E+03  0.14385722751E+03  0.00000000000E+00 0. -1.
         -5    1    3    3    0  503 -0.35145630775E+02 -0.49291211816E+00  0.18128722516E+02  0.39827112687E+02  0.47000000000E+01 0.  1.
         11    1    4    4    0    0  0.65334958652E+00 -0.12225533252E+02  0.17867496054E+02  0.21659592429E+02  0.00000000000E+00 0. -1.
        -12    1    4    4    0    0  0.14107608029E+03 -0.85017568985E+01 -0.15457735978E+02  0.14217482865E+03  0.00000000000E+00 0.  1.
</event>
<event>
12    1  0.8494789E-002  0.2750131E+03  0.7818608E-02  0.1099477E+00
         21   -1    0    0  501  502  0.00000000000E+00  0.00000000000E+00  0.79151344407E+02  0.79151344407E+02  0.00000000000E+00 0. -1.
         21   -1    0    0  502  503 -0.00000000000E+00 -0.00000000000E+00 -0.10221554744E+04  0.10221554744E+04  0.00000000000E+00 0. -1.
         -6    2    1    2    0  503  0.20850941780E+03  0.55798970480E+01 -0.63071951533E+03  0.68518917661E+03  0.16783857771E+03 0.  0.
        -24    2    3    3    0    0  0.99792961692E+02  0.38574866309E+02 -0.20366092917E+03  0.24325132822E+03  0.79036568114E+02 0.  0.
          6    2    1    2  501    0 -0.20850941780E+03 -0.55798970480E+01 -0.31228461468E+03  0.41611764221E+03  0.17923420162E+03 0.  0.
         24    2    5    5    0    0 -0.22691732655E+03 -0.27272195914E+02 -0.25393482968E+03  0.35103158883E+03  0.80653784011E+02 0.  0.
          5    1    5    5  501    0  0.18407908749E+02  0.21692298866E+02 -0.58349785000E+02  0.65086053377E+02  0.47000000000E+01 0. -1.
        -13    1    6    6    0    0 -0.94569895870E+02 -0.41304943672E+02 -0.15046226924E+03  0.18245124840E+03  0.00000000000E+00 0.  1.
         14    1    6    6    0    0 -0.13234743068E+03  0.14032747758E+02 -0.10347256043E+03  0.16858034043E+03  0.00000000000E+00 0. -1.
         -5    1    3    3    0  503  0.10871645611E+03 -0.32994969261E+02 -0.42705858616E+03  0.44193784839E+03  0.47000000000E+01 0.  1.
         13    1    4    4    0    0  0.10210455270E+03  0.13839069380E+02 -0.18645522568E+03  0.21303147820E+03  0.00000000000E+00 0. -1.
        -14    1    4    4    0    0 -0.23115910075E+01  0.24735796929E+02 -0.17205703493E+02  0.30219850023E+02  0.00000000000E+00 0.  1.
</event>
<event>
12    1  0.8494789E-002  0.1902565E+03  0.7818608E-02  0.1158480E+00
         21   -1    0    0  501  502  0.00000000000E+00  0.00000000000E+00  0.71265583527E+03  0.71265583527E+03  0.00000000000E+00 0. -1.
         21   -1    0    0  502  503 -0.00000000000E+00 -0.00000000000E+00 -0.52606170398E+02  0.52606170398E+02  0.00000000000E+00 0.  1.
         -6    2    1    2    0  503 -0.65270480329E+02  0.50577504304E+02  0.25434367657E+03  0.31762908413E+03  0.17140364562E+03 0.  0.
        -24    2    3    3    0    0 -0.47190579140E+01  0.87849261900E+02  0.16262813349E+03  0.20148482249E+03  0.80052867326E+02 0.  0.
          6    2    1    2  501    0  0.65270480329E+02 -0.50577504304E+02  0.40570598830E+03  0.44763292154E+03  0.17017509792E+03 0.  0.
         24    2    5    5    0    0 -0.12043498501E+02  0.14810535686E+02  0.21991494786E+03  0.23598829532E+03  0.83447548870E+02 0.  0.
          5    1    5    5  501    0  0.77313978830E+02 -0.65388039990E+02  0.18579104045E+03  0.21164462622E+03  0.47000000000E+01 0. -1.
        -11    1    6    6    0    0 -0.85249112394E+00  0.47741597952E+01 -0.70330421833E+01  0.85430103136E+01  0.00000000000E+00 0.  1.
         12    1    6    6    0    0 -0.11191007377E+02  0.10036375891E+02  0.22694799004E+03  0.22744528500E+03  0.00000000000E+00 0. -1.
         -5    1    3    3    0  503 -0.60551422415E+02 -0.37271757596E+02  0.91715543074E+02  0.11614426164E+03  0.47000000000E+01 0.  1.
         13    1    4    4    0    0  0.11457216709E+02  0.34588475356E+01  0.84519402430E+02  0.85362525901E+02  0.00000000000E+00 0. -1.
        -14    1    4    4    0    0 -0.16176274623E+02  0.84390414364E+02  0.78108731061E+02  0.11612229659E+03  0.00000000000E+00 0.  1.
</event>
<event>
12    1  0.8494789E-002  0.2302257E+03  0.7818608E-02  0.1126833E+00
         21   -1    0    0  501  502  0.00000000000E+00  0.00000000000E+00  0.90547171491E+02  0.90547171491E+02  0.00000000000E+00 0. -1.
         21   -1    0    0  502  503 -0.00000000000E+00 -0.00000000000E+00 -0.11295262747E+04  0.11295262747E+04  0.00000000000E+00 0. -1.
         -6    2    1    2    0  503 -0.31506231419E+02  0.14728508887E+03 -0.94370699072E+03  0.97091353246E+03  0.17147787951E+03 0.  0.
        -24    2    3    3    0    0 -0.15623593061E+01  0.15756802240E+03 -0.59744340775E+03  0.62317378338E+03  0.81097571986E+02 0.  0.
          6    2    1    2  501    0  0.31506231419E+02 -0.14728508887E+03 -0.95272112495E+02  0.24915991374E+03  0.17412164475E+03 0.  0.
         24    2    5    5    0    0 -0.26071564820E+02 -0.22932709937E+02 -0.11459810463E+02  0.88457366345E+02  0.80546525236E+02 0.  0.
          5    1    5    5  501    0  0.57577796239E+02 -0.12435237893E+03 -0.83812302031E+02  0.16070254739E+03  0.47000000000E+01 0. -1.
        -11    1    6    6    0    0 -0.48285013894E+02 -0.37391640482E+02 -0.10255181842E+02  0.61925326800E+02  0.00000000000E+00 0.  1.
         12    1    6    6    0    0  0.22213449075E+02  0.14458930545E+02 -0.12046286216E+01  0.26532039545E+02  0.00000000000E+00 0. -1.
         -5    1    3    3    0  503 -0.29943872113E+02 -0.10282933526E+02 -0.34626358297E+03  0.34773974908E+03  0.47000000000E+01 0.  1.
         13    1    4    4    0    0 -0.25473922025E+02  0.14992586095E+03 -0.50794271394E+03  0.53021928023E+03  0.00000000000E+00 0. -1.
        -14    1    4    4    0    0  0.23911562719E+02  0.76421614432E+01 -0.89500693816E+02  0.92954503155E+02  0.00000000000E+00 0.  1.
</event>
<event>
12    1  0.8494789E-002  0.1819007E+03  0.7818608E-02  0.1166278E+00
         21   -1    0    0  501  502  0.00000000000E+00  0.00000000000E+00  0.39847919930E+03  0.39847919930E+03  0.00000000000E+00 0.  1.
         21   -1    0    0  502  503 -0.00000000000E+00 -0.00000000000E+00 -0.13083562283E+03  0.13083562283E+03  0.00000000000E+00 0.  1.
         -6    2    1    2    0  503  0.32574945076E+02 -0.47177556470E+02 -0.26811086487E+02  0.18386601440E+03  0.17262974255E+03 0.  0.
        -24    2    3    3    0    0  0.24041353358E+02 -0.58925219088E+00 -0.78809519889E+02  0.11337332429E+03  0.77873206853E+02 0.  0.
          6    2    1    2  501    0 -0.32574945076E+02  0.47177556470E+02  0.29445466296E+03  0.34544880773E+03  0.17130230980E+03 0.  0.
         24    2    5    5    0    0  0.41086867666E+02  0.36766926066E+02  0.11267199069E+03  0.14897622995E+03  0.80367916842E+02 0.  0.
          5    1    5    5  501    0 -0.73661812741E+02  0.10410630404E+02  0.18178267227E+03  0.19647257778E+03  0.47000000000E+01 0. -1.
        -11    1    6    6    0    0 -0.22289442341E+02  0.22541524632E+02  0.46274831792E+02  0.56091885599E+02  0.00000000000E+00 0.  1.
         12    1    6    6    0    0  0.63376310007E+02  0.14225401434E+02  0.66397158895E+02  0.92884344350E+02  0.00000000000E+00 0. -1.
         -5    1    3    3    0  503  0.85335917181E+01 -0.46588304279E+02  0.51998433402E+02  0.70492690114E+02  0.47000000000E+01 0.  1.
         13    1    4    4    0    0 -0.27029292704E+02 -0.10287683267E+02 -0.34908701280E+02  0.45332510587E+02  0.00000000000E+00 0. -1.
        -14    1    4    4    0    0  0.51070646062E+02  0.96984310759E+01 -0.43900818609E+02  0.68040813701E+02  0.00000000000E+00 0.  1.
</event>
<event>
12    1  0.8494789E-002  0.2225926E+03  0.7818608E-02  0.1132842E+00
         21   -1    0    0  503  502  0.00000000000E+00  0.00000000000E+00  0.23817610459E+03  0.23817610459E+03  0.00000000000E+00 0. -1.
         21   -1    0    0  501  503 -0.00000000000E+00 -0.00000000000E+00 -0.23123961322E+03  0.23123961322E+03  0.00000000000E+00 0. -1.
          6    2    1    2  501    0 -0.44372389760E+02 -0.12722587154E+03 -0.77653074288E+02  0.23129207049E+03  0.17120365231E+03 0.  0.
         24    2    3    3    0    0 -0.14817198291E+02  0.30049995654E+01 -0.67224848401E+01  0.80008139918E+02  0.78278549189E+02 0.  0.
         -6    2    1    2    0  502  0.44372389760E+02  0.12722587154E+03  0.84589565657E+02  0.23812364732E+03  0.17717828714E+03 0.  0.
        -24    2    5    5    0    0  0.16015930446E+02 -0.29622225873E+01  0.52098344512E+01  0.82958379422E+02  0.81176754989E+02 0.  0.
          5    1    3    3  501    0 -0.29555191469E+02 -0.13023087110E+03 -0.70930589448E+02  0.15128393058E+03  0.47000000000E+01 0. -1.
        -13    1    4    4    0    0 -0.35830198346E+02 -0.25302877818E+02 -0.86189746218E+01  0.44702633736E+02  0.00000000000E+00 0.  1.
         14    1    4    4    0    0  0.21013000055E+02  0.28307877383E+02  0.18964897817E+01  0.35305506182E+02  0.00000000000E+00 0. -1.
         -5    1    5    5    0  502  0.28356459314E+02  0.13018809412E+03  0.79379731206E+02  0.15516526790E+03  0.47000000000E+01 0.  1.
         13    1    6    6    0    0  0.42412296384E+01  0.28313122633E+02  0.29909450600E+02  0.41402852285E+02  0.00000000000E+00 0. -1.
        -14    1    6    6    0    0  0.11774700808E+02 -0.31275345220E+02 -0.24699616149E+02  0.41555527138E+02  0.00000000000E+00 0.  1.
</event>
<event>
12    1  0.8494789E-002  0.1883961E+03  0.7818608E-02  0.1160101E+00
         21   -1    0    0  503  502  0.00000000000E+00  0.00000000000E+00  0.15139213323E+03  0.15139213323E+03  0.00000000000E+00 0. -1.
         21   -1    0    0  501  503 -0.00000000000E+00 -0.00000000000E+00 -0.23598587186E+03  0.23598587186E+03  0.00000000000E+00 0. -1.
          6    2    1    2  501    0 -0.42454283044E+02 -0.61590285048E+02 -0.62339224749E+02  0.19767202461E+03  0.17202418728E+03 0.  0.
         24    2    3    3    0    0 -0.73646645134E+02  0.58888256581E+01 -0.60212412924E+02  0.12315352245E+03  0.77991979173E+02 0.  0.
         -6    2    1    2    0  502  0.42454283044E+02  0.61590285048E+02 -0.22254513878E+02  0.18970598049E+03  0.17290854890E+03 0.  0.
        -24    2    5    5    0    0 -0.56755792332E+01  0.49317692616E+02  0.37674369437E+02  0.11172738584E+03  0.92731891112E+02 0.  0.
          5    1    3    3  501    0  0.31192362090E+02 -0.67479110706E+02 -0.21268118251E+01  0.74518502152E+02  0.47000000000E+01 0. -1.
        -13    1    4    4    0    0 -0.43008706015E+02  0.39882359312E+02 -0.19241593228E+02  0.61729978838E+02  0.00000000000E+00 0.  1.
         14    1    4    4    0    0 -0.30637939119E+02 -0.33993533654E+02 -0.40970819695E+02  0.61423543615E+02  0.00000000000E+00 0. -1.
         -5    1    5    5    0  502  0.48129862278E+02  0.12272592433E+02 -0.59928883315E+02  0.77978594648E+02  0.47000000000E+01 0.  1.
         11    1    6    6    0    0  0.30158700733E+02  0.56480138817E+02  0.77494591443E+01  0.64495018628E+02  0.00000000000E+00 0. -1.
        -12    1    6    6    0    0 -0.35834279966E+02 -0.71624462018E+01  0.29924910293E+02  0.47232367211E+02  0.00000000000E+00 0.  1.
</event>
<event>
12    1  0.8494789E-002  0.2187839E+03  0.7818608E-02  0.1138574E+00
         21   -1    0    0  501  502  0.00000000000E+00  0.00000000000E+00  0.47180283236E+03  0.47180283236E+03  0.00000000000E+00 0. -1.
         21   -1    0    0  502  503 -0.00000000000E+00 -0.00000000000E+00 -0.10502150596E+03  0.10502150596E+03  0.00000000000E+00 0. -1.
         -6    2    1    2    0  503 -0.22738131737E+02 -0.10087785384E+03  0.27444093210E+03  0.33935195177E+03  0.17072948758E+03 0.  0.
        -24    2    3    3    0    0 -0.69356741087E+02 -0.87195456106E+02  0.25251977265E+03  0.28584372832E+03  0.74343771353E+02 0.  0.
          6    2    1    2  501    0  0.22738131737E+02  0.10087785384E+03  0.92340394297E+02  0.23747238655E+03  0.19280306513E+03 0.  0.
         24    2    5    5    0    0  0.39129741702E+01 -0.28678995695E+02  0.56359810746E+02  0.10161931808E+03  0.79449741218E+02 0.  0.
          5    1    5    5  501    0  0.18825157567E+02  0.12955684953E+03  0.35980583551E+02  0.13585306847E+03  0.47000000000E+01 0. -1.
        -11    1    6    6    0    0  0.28200242896E+02 -0.36689978408E+02  0.80676209647E+01  0.46973340556E+02  0.00000000000E+00 0.  1.
         12    1    6    6    0    0 -0.24287268726E+02  0.80109827127E+01  0.48292189781E+02  0.54645977528E+02  0.00000000000E+00 0. -1.
         -5    1    3    3    0  503  0.46618609350E+02 -0.13682397734E+02  0.21921159446E+02  0.53508223452E+02  0.47000000000E+01 0.  1.
         13    1    4    4    0    0 -0.37227444148E+01 -0.40100470396E+02  0.15005083073E+03  0.15536137987E+03  0.00000000000E+00 0. -1.
        -14    1    4    4    0    0 -0.65633996673E+02 -0.47094985710E+02  0.10246894192E+03  0.13048234845E+03  0.00000000000E+00 0.  1.
</event>
<event>
12    1  0.8494789E-002  0.4933957E+03  0.7818608E-02  0.1015643E+00
         21   -1    0    0  503  502  0.00000000000E+00  0.00000000000E+00  0.28870124275E+03  0.28870124275E+03  0.00000000000E+00 0. -1.
         21   -1    0    0  501  503 -0.00000000000E+00 -0.00000000000E+00 -0.84434875361E+03  0.84434875361E+03  0.00000000000E+00 0.  1.
          6    2    1    2  501    0  0.12488069059E+03 -0.44508135288E+03 -0.23662048820E+03  0.54549779451E+03  0.16699099024E+03 0.  0.
         24    2    3    3    0    0  0.39611185513E+02 -0.35678522592E+03 -0.18889056826E+03  0.41371262923E+03  0.81324961436E+02 0.  0.
         -6    2    1    2    0  502 -0.12488069059E+03  0.44508135288E+03 -0.31902702266E+03  0.58755220185E+03  0.17247246490E+03 0.  0.
        -24    2    5    5    0    0 -0.19663781683E+02  0.93735604415E+02 -0.67964589897E+02  0.14306500515E+03  0.81703013251E+02 0.  0.
          5    1    3    3  501    0  0.85269505080E+02 -0.88296126957E+02 -0.47729919939E+02  0.13178516529E+03  0.47000000000E+01 0. -1.
        -11    1    4    4    0    0  0.27568081927E+02 -0.10094444197E+03 -0.93730540832E+02  0.14048200522E+03  0.00000000000E+00 0.  1.
         12    1    4    4    0    0  0.12043103586E+02 -0.25584078395E+03 -0.95160027424E+02  0.27323062401E+03  0.00000000000E+00 0. -1.
         -5    1    5    5    0  502 -0.10521690891E+03  0.35134574846E+03 -0.25106243276E+03  0.44448719670E+03  0.47000000000E+01 0.  1.
         11    1    6    6    0    0  0.16749594388E+02  0.85842003803E+02 -0.38482927552E+02  0.95552782492E+02  0.00000000000E+00 0. -1.
        -12    1    6    6    0    0 -0.36413376071E+02  0.78936006117E+01 -0.29481662345E+02  0.47512222660E+02  0.00000000000E+00 0.  1.
</event>
<event>
12    1  0.8494789E-002  0.1893849E+03  0.7818608E-02  0.1159039E+00
         21   -1    0    0  503  502  0.00000000000E+00  0.00000000000E+00  0.24254353518E+03  0.24254353518E+03  0.00000000000E+00 0. -1.
         21   -1    0    0  501  503 -0.00000000000E+00 -0.00000000000E+00 -0.45402606082E+03  0.45402606082E+03  0.00000000000E+00 0. -1.
          6    2    1    2  501    0  0.51865424686E+02 -0.61806908557E+02 -0.39176355951E+03  0.43509706786E+03  0.17123275293E+03 0.  0.
         24    2    3    3    0    0  0.12687428219E+02 -0.36748243978E+02 -0.78843441261E+02  0.11870499703E+03  0.79769567001E+02 0.  0.
         -6    2    1    2    0  502 -0.51865424686E+02  0.61806908557E+02  0.18028103387E+03  0.26147252815E+03  0.17133743193E+03 0.  0.
        -24    2    5    5    0    0  0.24050281058E+02 -0.14136328682E+02  0.41986154780E+02  0.86320784670E+02  0.70072739816E+02 0.  0.
          5    1    3    3  501    0  0.39177996467E+02 -0.25058664579E+02 -0.31292011825E+03  0.31639207083E+03  0.47000000000E+01 0. -1.
        -11    1    4    4    0    0  0.18131086350E+02  0.16779124320E+02 -0.54122848462E+02  0.59494184849E+02  0.00000000000E+00 0.  1.
         12    1    4    4    0    0 -0.54436581307E+01 -0.53527368298E+02 -0.24720592799E+02  0.59210812180E+02  0.00000000000E+00 0. -1.
         -5    1    5    5    0  502 -0.75915705744E+02  0.75943237239E+02  0.13829487909E+03  0.17515174348E+03  0.47000000000E+01 0.  1.
         11    1    6    6    0    0  0.30911552077E+02 -0.29849586414E+02  0.51210624365E+02  0.66850952938E+02  0.00000000000E+00 0. -1.
        -12    1    6    6    0    0 -0.68612710194E+01  0.15713257732E+02 -0.92244695846E+01  0.19469831732E+02  0.00000000000E+00 0.  1.
</event>
<event>
12    1  0.8494789E-002  0.2268832E+03  0.7818608E-02  0.1128881E+00
         21   -1    0    0  501  502  0.00000000000E+00  0.00000000000E+00  0.71135257646E+02  0.71135257646E+02  0.00000000000E+00 0.  1.
         21   -1    0    0  502  503 -0.00000000000E+00 -0.00000000000E+00 -0.95790773660E+03  0.95790773660E+03  0.00000000000E+00 0.  1.
         -6    2    1    2    0  503 -0.13513655122E+03 -0.60243672135E+02 -0.69822093752E+03  0.73415833013E+03  0.17200229243E+03 0.  0.
        -24    2    3    3    0    0 -0.13803664825E+02 -0.41354067160E+02 -0.17920252006E+03  0.20079101378E+03  0.79390100031E+02 0.  0.
          6    2    1    2  501    0  0.13513655122E+03  0.60243672135E+02 -0.18855154143E+03  0.29488466411E+03  0.17179666424E+03 0.  0.
         24    2    5    5    0    0  0.97183337726E+02  0.20479460422E+02 -0.36431786975E+02  0.13306949596E+03  0.80723021637E+02 0.  0.
          5    1    5    5  501    0  0.37953213494E+02  0.39764211713E+02 -0.15211975446E+03  0.16181516815E+03  0.47000000000E+01 0. -1.
        -13    1    6    6    0    0  0.43575937475E+02 -0.30086832829E+02 -0.24764941566E+02  0.58458379786E+02  0.00000000000E+00 0.  1.
         14    1    6    6    0    0  0.53607400252E+02  0.50566293251E+02 -0.11666845409E+02  0.74611116174E+02  0.00000000000E+00 0. -1.
         -5    1    3    3    0  503 -0.12133288640E+03 -0.18889604974E+02 -0.51901841746E+03  0.53336731636E+03  0.47000000000E+01 0.  1.
         13    1    4    4    0    0  0.39995855332E+01  0.21346781478E+02 -0.73188822244E+02  0.76343208378E+02  0.00000000000E+00 0. -1.
        -14    1    4    4    0    0 -0.17803250358E+02 -0.62700848638E+02 -0.10601369782E+03  0.12444780540E+03  0.00000000000E+00 0.  1.
</event>
<event>
12    1  0.8494789E-002  0.3217939E+03  0.7818608E-02  0.1075045E+00
         21   -1    0    0  501  502  0.00000000000E+00  0.00000000000E+00  0.16814074827E+03  0.16814074827E+03  0.00000000000E+00 0.  1.
         21   -1    0    0  502  503 -0.00000000000E+00 -0.00000000000E+00 -0.65681534807E+03  0.65681534807E+03  0.00000000000E+00 0. -1.
         -6    2    1    2    0  503  0.14869312966E+02  0.26975195433E+03 -0.13753649693E+03  0.34995371971E+03  0.17482592661E+03 0.  0.
        -24    2    3    3    0    0  0.43925767382E+02  0.12331123048E+03 -0.10666030951E+02  0.15397574063E+03  0.80371835143E+02 0.  0.
          6    2    1    2  501    0 -0.14869312966E+02 -0.26975195433E+03 -0.35113810287E+03  0.47500237663E+03  0.17129529237E+03 0.  0.
         24    2    5    5    0    0 -0.89104657345E+01 -0.25822873475E+03 -0.23670580850E+03  0.35974122774E+03  0.81379575512E+02 0.  0.
          5    1    5    5  501    0 -0.59588472320E+01 -0.11523219588E+02 -0.11443229437E+03  0.11526114889E+03  0.47000000000E+01 0. -1.
        -13    1    6    6    0    0  0.35706559486E+02 -0.95289277557E+02 -0.95681825051E+02  0.13967826049E+03  0.00000000000E+00 0.  1.
         14    1    6    6    0    0 -0.44617025220E+02 -0.16293945719E+03 -0.14102398345E+03  0.22006296725E+03  0.00000000000E+00 0. -1.
         -5    1    3    3    0  503 -0.29056454415E+02  0.14644072385E+03 -0.12687046598E+03  0.19597797907E+03  0.47000000000E+01 0.  1.
         11    1    4    4    0    0  0.46680094830E+02  0.44384688496E+02 -0.32347439476E+02  0.72079044575E+02  0.00000000000E+00 0. -1.
        -12    1    4    4    0    0 -0.27543274480E+01  0.78926541987E+02  0.21681408525E+02  0.81896696058E+02  0.00000000000E+00 0.  1.
</event>
<event>
12    1  0.8494789E-002  0.1776764E+03  0.7818608E-02  0.1171489E+00
         21   -1    0    0  501  502  0.00000000000E+00  0.00000000000E+00  0.40479318810E+02  0.40479318810E+02  0.00000000000E+00 0. -1.
         21   -1    0    0  502  503 -0.00000000000E+00 -0.00000000000E+00 -0.75531955881E+03  0.75531955881E+03  0.00000000000E+00 0. -1.
         -6    2    1    2    0  503  0.36531056703E+02  0.10376353667E+02 -0.35611276290E+03  0.39548112092E+03  0.16777017103E+03 0.  0.
        -24    2    3    3    0    0  0.15362313678E+02  0.72002235838E+02 -0.17501876871E+03  0.20296361584E+03  0.71710092062E+02 0.  0.
          6    2    1    2  501    0 -0.36531056703E+02 -0.10376353667E+02 -0.35872747709E+03  0.40031775669E+03  0.17357049485E+03 0.  0.
         24    2    5    5    0    0  0.28963066860E+02 -0.91802313158E+00 -0.30157790453E+03  0.31275575647E+03  0.77635228465E+02 0.  0.
          5    1    5    5  501    0 -0.65494123562E+02 -0.94583305355E+01 -0.57149572564E+02  0.87562000216E+02  0.47000000000E+01 0. -1.
        -13    1    6    6    0    0 -0.77563059081E+01  0.30450865662E+02 -0.79447165868E+02  0.85435751682E+02  0.00000000000E+00 0.  1.
         14    1    6    6    0    0  0.36719372768E+02 -0.31368888794E+02 -0.22213073866E+03  0.22732000479E+03  0.00000000000E+00 0. -1.
         -5    1    3    3    0  503  0.21168743025E+02 -0.61625882171E+02 -0.18109399419E+03  0.19251750509E+03  0.47000000000E+01 0.  1.
         13    1    4    4    0    0  0.24149388721E+02  0.24703627442E+02 -0.18437584880E+02  0.39158737475E+02  0.00000000000E+00 0. -1.
        -14    1    4    4    0    0 -0.87870750433E+01  0.47298608397E+02 -0.15658118383E+03  0.16380487836E+03  0.00000000000E+00 0.  1.
</event>
<event>
12    1  0.8494789E-002  0.1772088E+03  0.7818608E-02  0.1170989E+00
         21   -1    0    0  501  502  0.00000000000E+00  0.00000000000E+00  0.55462163886E+02  0.55462163886E+02  0.00000000000E+00 0. -1.
         21   -1    0    0  502  503 -0.00000000000E+00 -0.00000000000E+00 -0.78319842537E+03  0.78319842537E+03  0.00000000000E+00 0. -1.
         -6    2    1    2    0  503 -0.37813824082E+02  0.90752996281E+01 -0.58619244143E+03  0.61186197240E+03  0.17100072668E+03 0.  0.
        -24    2    3    3    0    0  0.10686590664E+02  0.52765685497E+02 -0.45525091997E+03  0.46547579788E+03  0.80721109355E+02 0.  0.
          6    2    1    2  501    0  0.37813824082E+02 -0.90752996281E+01 -0.14154382006E+03  0.22679861686E+03  0.17288930926E+03 0.  0.
         24    2    5    5    0    0 -0.69350605180E+01 -0.62586596013E+02 -0.57654939594E+02  0.11759533953E+03  0.80866524315E+02 0.  0.
          5    1    5    5  501    0  0.44748884600E+02  0.53511296385E+02 -0.83888880462E+02  0.10920327733E+03  0.47000000000E+01 0. -1.
        -11    1    6    6    0    0  0.23291102207E+02  0.78034957791E+01 -0.22490836598E+02  0.33304770218E+02  0.00000000000E+00 0.  1.
         12    1    6    6    0    0 -0.30226162725E+02 -0.70390091792E+02 -0.35164102996E+02  0.84290569313E+02  0.00000000000E+00 0. -1.
         -5    1    3    3    0  503 -0.48500414747E+02 -0.43690385869E+02 -0.13094152146E+03  0.14638617452E+03  0.47000000000E+01 0.  1.
         13    1    4    4    0    0 -0.11965951263E+02  0.62351967053E+02 -0.39985841811E+03  0.40486751699E+03  0.00000000000E+00 0. -1.
        -14    1    4    4    0    0  0.22652541927E+02 -0.95862815560E+01 -0.55392501864E+02  0.60608280892E+02  0.00000000000E+00 0.  1.
</event>
<event>
12    1  0.8494789E-002  0.1760637E+03  0.7818608E-02  0.1171767E+00
         21   -1    0    0  501  502  0.00000000000E+00  0.00000000000E+00  0.41702592082E+02  0.41702592082E+02  0.00000000000E+00 0.  1.
         21   -1    0    0  502  503 -0.00000000000E+00 -0.00000000000E+00 -0.78631092041E+03  0.78631092041E+03  0.00000000000E+00 0.  1.
         -6    2    1    2    0  503 -0.28700461136E+02 -0.24347065658E+02 -0.47058796811E+03  0.50230568399E+03  0.17158516357E+03 0.  0.
        -24    2    3    3    0    0 -0.12482212434E+02  0.50984232963E+02 -0.21592488937E+03  0.23619816846E+03  0.80067592063E+02 0.  0.
          6    2    1    2  501    0  0.28700461136E+02  0.24347065658E+02 -0.27402036022E+03  0.32570782851E+03  0.17199399891E+03 0.  0.
         24    2    5    5    0    0 -0.34985023186E+02  0.55357108273E+02 -0.18471795211E+03  0.21162683206E+03  0.79855074558E+02 0.  0.
          5    1    5    5  501    0  0.63685484322E+02 -0.31010042615E+02 -0.89302408112E+02  0.11408099645E+03  0.47000000000E+01 0. -1.
        -11    1    6    6    0    0 -0.22661308296E+02  0.63557764262E+02 -0.18489492875E+03  0.19682291271E+03  0.00000000000E+00 0.  1.
         12    1    6    6    0    0 -0.12323714890E+02 -0.82006559890E+01  0.17697663852E+00  0.14803919348E+02  0.00000000000E+00 0. -1.
         -5    1    3    3    0  503 -0.16218248702E+02 -0.75331298621E+02 -0.25466307874E+03  0.26610751552E+03  0.47000000000E+01 0.  1.
         11    1    4    4    0    0 -0.24453264057E+02  0.69320304833E+01 -0.16837416861E+03  0.17028175424E+03  0.00000000000E+00 0. -1.
        -12    1    4    4    0    0  0.11971051623E+02  0.44052202479E+02 -0.47550720756E+02  0.65916414228E+02  0.00000000000E+00 0.  1.
</event>
<event>
12    1  0.8494789E-002  0.3056268E+03  0.7818608E-02  0.1082533E+00
         21   -1    0    0  501  502  0.00000000000E+00  0.00000000000E+00  0.80070671332E+02  0.80070671332E+02  0.00000000000E+00 0. -1.
         21   -1    0    0  502  503 -0.00000000000E+00 -0.00000000000E+00 -0.12651351457E+04  0.12651351457E+04  0.00000000000E+00 0.  1.
         -6    2    1    2    0  503 -0.83539462364E+01 -0.25248830307E+03 -0.78291691726E+03  0.84045620309E+03  0.17201046007E+03 0.  0.
        -24    2    3    3    0    0  0.53735190898E+02 -0.16040908870E+03 -0.48920820467E+03  0.52641712826E+03  0.95769404971E+02 0.  0.
          6    2    1    2  501    0  0.83539462364E+01  0.25248830307E+03 -0.40214755705E+03  0.50474961389E+03  0.17096603017E+03 0.  0.
         24    2    5    5    0    0  0.40152876117E+02  0.64065880212E+02 -0.18441606041E+03  0.21501995368E+03  0.80669738276E+02 0.  0.
          5    1    5    5  501    0 -0.31798929880E+02  0.18842242286E+03 -0.21773149664E+03  0.28972966021E+03  0.47000000000E+01 0. -1.
        -11    1    6    6    0    0 -0.22554823335E+02  0.32251806738E+02 -0.79673108316E+02  0.88863396752E+02  0.00000000000E+00 0.  1.
         12    1    6    6    0    0  0.62707699451E+02  0.31814073474E+02 -0.10474295210E+03  0.12615655693E+03  0.00000000000E+00 0. -1.
         -5    1    3    3    0  503 -0.62089137134E+02 -0.92079214374E+02 -0.29370871259E+03  0.31403907483E+03  0.47000000000E+01 0.  1.
         13    1    4    4    0    0 -0.12560251390E+02 -0.30948797056E+02 -0.30605009527E+02  0.45301816325E+02  0.00000000000E+00 0. -1.
        -14    1    4    4    0    0  0.66295442287E+02 -0.12946029164E+03 -0.45860319515E+03  0.48111531193E+03  0.00000000000E+00 0.  1.
</event>
<event>
12    1  0.8494789E-002  0.2854891E+03  0.7818608E-02  0.1092816E+00
         21   -1    0    0  503  502  0.00000000000E+00  0.00000000000E+00  0.19683217259E+03  0.19683217259E+03  0.00000000000E+00 0.  1.
         21   -1    0    0  501  503 -0.00000000000E+00 -0.00000000000E+00 -0.41877517582E+03  0.41877517582E+03  0.00000000000E+00 0.  1.
          6    2    1    2  501    0 -0.15024398506E+03 -0.17122781586E+03 -0.14660368340E+03  0.32034467364E+03  0.17098494076E+03 0.  0.
         24    2    3    3    0    0 -0.12522306748E+03 -0.18073474148E+03 -0.78210896735E+02  0.24675057591E+03  0.80143864004E+02 0.  0.
         -6    2    1    2    0  502  0.15024398506E+03  0.17122781586E+03 -0.75339319826E+02  0.29526267477E+03  0.17208083574E+03 0.  0.
        -24    2    5    5    0    0  0.42806758389E+02  0.36108212372E+02  0.15909642216E+02  0.99946193141E+02  0.81239788549E+02 0.  0.
          5    1    3    3  501    0 -0.25020917580E+02  0.95069256212E+01 -0.68392786667E+02  0.73594097721E+02  0.47000000000E+01 0. -1.
        -13    1    4    4    0    0 -0.79712653393E+02 -0.57292003469E+02 -0.10333816547E+02  0.98707996317E+02  0.00000000000E+00 0.  1.
         14    1    4    4    0    0 -0.45510414088E+02 -0.12344273802E+03 -0.67877080187E+02  0.14804257960E+03  0.00000000000E+00 0. -1.
         -5    1    5    5    0  502  0.10743722667E+03  0.13511960349E+03 -0.91248962043E+02  0.19531648163E+03  0.47000000000E+01 0.  1.
         13    1    6    6    0    0 -0.84047082105E+01  0.91274175117E+01 -0.25780876778E+02  0.28611229928E+02  0.00000000000E+00 0. -1.
        -14    1    6    6    0    0  0.51211466599E+02  0.26980794860E+02  0.41690518995E+02  0.71334963213E+02  0.00000000000E+00 0.  1.
</event>
<event>
12    1  0.8494789E-002  0.1736369E+03  0.7818608E-02  0.1175248E+00
         21   -1    0    0  501  502  0.00000000000E+00  0.00000000000E+00  0.13119413125E+04  0.13119413125E+04  0.00000000000E+00 0. -1.
         21   -1    0    0  502  503 -0.00000000000E+00 -0.00000000000E+00 -0.31303222723E+03  0.31303222723E+03  0.00000000000E+00 0. -1.
         -6    2    1    2    0  503  0.24733853213E+02  0.14728908777E+02 -0.28295859792E+03  0.33198696621E+03  0.17123397254E+03 0.  0.
        -24    2    3    3    0    0  0.35585832098E+02  0.68147299710E+02 -0.23024606824E+03  0.25601334763E+03  0.81358320538E+02 0.  0.
          6    2    1    2  501    0 -0.24733853213E+02 -0.14728908777E+02  0.12818676832E+04  0.12929865735E+04  0.16673577260E+03 0.  0.
         24    2    5    5    0    0  0.12627735783E+02 -0.61069306756E+02  0.62327981545E+03  0.63169738538E+03  0.81700296309E+02 0.  0.
          5    1    5    5  501    0 -0.37361588996E+02  0.46340397980E+02  0.65858786773E+03  0.66128918813E+03  0.47000000000E+01 0. -1.
        -11    1    6    6    0    0  0.46537032492E+02 -0.46736320344E+02  0.40465264324E+03  0.40999236665E+03  0.00000000000E+00 0.  1.
         12    1    6    6    0    0 -0.33909296709E+02 -0.14332986412E+02  0.21862717221E+03  0.22170501873E+03  0.00000000000E+00 0. -1.
         -5    1    3    3    0  503 -0.10851978885E+02 -0.53418390934E+02 -0.52712529679E+02  0.75973618584E+02  0.47000000000E+01 0.  1.
         11    1    4    4    0    0 -0.21201032782E+00 -0.17894871234E+02 -0.49903110077E+02  0.53015014479E+02  0.00000000000E+00 0. -1.
        -12    1    4    4    0    0  0.35797842426E+02  0.86042170944E+02 -0.18034295816E+03  0.20299833315E+03  0.00000000000E+00 0.  1.
</event>
<event>
12    1  0.8494789E-002  0.1721296E+03  0.7818608E-02  0.1175708E+00
         21   -1    0    0  501  502  0.00000000000E+00  0.00000000000E+00  0.10666712396E+04  0.10666712396E+04  0.00000000000E+00 0.  1.
         21   -1    0    0  502  503 -0.00000000000E+00 -0.00000000000E+00 -0.56082320194E+02  0.56082320194E+02  0.00000000000E+00 0.  1.
         -6    2    1    2    0  503 -0.55207086871E+01 -0.48179631773E+01  0.90421534127E+03  0.92040748988E+03  0.17172906873E+03 0.  0.
        -24    2    3    3    0    0  0.27725920384E+01  0.63242633481E+02  0.48051827036E+03  0.49117291351E+03  0.79659932593E+02 0.  0.
          6    2    1    2  501    0  0.55207086871E+01  0.48179631773E+01  0.10637357809E+03  0.20234606987E+03  0.17197355286E+03 0.  0.
         24    2    5    5    0    0  0.55166611125E+02 -0.45396661609E-01  0.97477795327E+01  0.93502131843E+02  0.74861688529E+02 0.  0.
          5    1    5    5  501    0 -0.49645902438E+02  0.48633598390E+01  0.96625798561E+02  0.10884393803E+03  0.47000000000E+01 0. -1.
        -11    1    6    6    0    0 -0.17830908764E+02  0.78047626840E+01  0.19783212802E+00  0.19465219379E+02  0.00000000000E+00 0.  1.
         12    1    6    6    0    0  0.72997519889E+02 -0.78501593456E+01  0.95499474047E+01  0.74036912464E+02  0.00000000000E+00 0. -1.
         -5    1    3    3    0  503 -0.82933007255E+01 -0.68060596658E+02  0.42369707092E+03  0.42923457638E+03  0.47000000000E+01 0.  1.
         11    1    4    4    0    0 -0.23264590358E+02  0.15018657458E+02  0.49791705867E+02  0.56973811611E+02  0.00000000000E+00 0. -1.
        -12    1    4    4    0    0  0.26037182396E+02  0.48223976023E+02  0.43072656449E+03  0.43419910190E+03  0.00000000000E+00 0.  1.
</event>
<event>
12    1  0.8494789E-002  0.2638905E+03  0.7818608E-02  0.1104951E+00
         21   -1    0    0  501  502  0.00000000000E+00  0.00000000000E+00  0.22969932147E+03  0.22969932147E+03  0.00000000000E+00 0.  1.
         21   -1    0    0  502  503 -0.00000000000E+00 -0.00000000000E+00 -0.37676940303E+03  0.37676940303E+03  0.00000000000E+00 0. -1.
         -6    2    1    2    0  503  0.55059561706E+02 -0.19158015759E+03 -0.20833347677E+03  0.33556028482E+03  0.17164892976E+03 0.  0.
        -24    2    3    3    0    0  0.14080855482E+02 -0.81116605957E+02 -0.18149745804E+03  0.21463174185E+03  0.79669837980E+02 0.  0.
          6    2    1    2  501    0 -0.55059561706E+02  0.19158015759E+03  0.61263395204E+02  0.27090843968E+03  0.17292676768E+03 0.  0.
         24    2    5    5    0    0 -0.44045218206E+02  0.74567338174E+02 -0.30257815479E+02  0.12187308255E+03  0.80232435360E+02 0.  0.
          5    1    5    5  501    0 -0.11014343501E+02  0.11701281941E+03  0.91521210683E+02  0.14903535713E+03  0.47000000000E+01 0. -1.
        -11    1    6    6    0    0 -0.59137366844E+02  0.34103615689E+02  0.14738463040E+01  0.68282186427E+02  0.00000000000E+00 0.  1.
         12    1    6    6    0    0  0.15092148638E+02  0.40463722485E+02 -0.31731661783E+02  0.53590896124E+02  0.00000000000E+00 0. -1.
         -5    1    3    3    0  503  0.40978706224E+02 -0.11046355163E+03 -0.26836018737E+02  0.12092854297E+03  0.47000000000E+01 0.  1.
         13    1    4    4    0    0  0.14985051995E+02 -0.25169507141E+02 -0.14476219792E+03  0.14769614017E+03  0.00000000000E+00 0. -1.
        -14    1    4    4    0    0 -0.90419651273E+00 -0.55947098816E+02 -0.36735260113E+02  0.66935601684E+02  0.00000000000E+00 0.  1.
</event>
<event>
12    1  0.8494789E-002  0.2717102E+03  0.7818608E-02  0.1100339E+00
         21   -1    0    0  503  502  0.00000000000E+00  0.00000000000E+00  0.29139530537E+04  0.29139530537E+04  0.00000000000E+00 0.  1.
         21   -1    0    0  501  503 -0.00000000000E+00 -0.00000000000E+00 -0.63052703897E+02  0.63052703897E+02  0.00000000000E+00 0.  1.
          6    2    1    2  501    0 -0.20113773088E+03  0.61819423683E+02  0.27360901069E+03  0.38543151344E+03  0.17151540134E+03 0.  0.
         24    2    3    3    0    0 -0.15354001722E+03  0.10497175861E+03  0.17386014805E+03  0.26668981077E+03  0.79388267990E+02 0.  0.
         -6    2    1    2    0  502  0.20113773088E+03 -0.61819423683E+02  0.25772913391E+04  0.25915742441E+04  0.17189644668E+03 0.  0.
        -24    2    5    5    0    0  0.22497797885E+03 -0.57986499366E+02  0.22653618792E+04  0.22786762949E+04  0.80769349382E+02 0.  0.
          5    1    3    3  501    0 -0.47597713657E+02 -0.43152334928E+02  0.99748862649E+02  0.11874170268E+03  0.47000000000E+01 0. -1.
        -13    1    4    4    0    0 -0.77137907264E+02  0.51588679056E+02  0.34437875429E+02  0.98982906645E+02  0.00000000000E+00 0.  1.
         14    1    4    4    0    0 -0.76402109955E+02  0.53383079555E+02  0.13942227262E+03  0.16770690412E+03  0.00000000000E+00 0. -1.
         -5    1    5    5    0  502 -0.23840247978E+02 -0.38329243176E+01  0.31192945984E+03  0.31289794926E+03  0.47000000000E+01 0.  1.
         11    1    6    6    0    0  0.10243425697E+03 -0.29057075026E+02  0.67592594957E+03  0.68426090047E+03  0.00000000000E+00 0. -1.
        -12    1    6    6    0    0  0.12254372188E+03 -0.28929424340E+02  0.15894359297E+04  0.15944153944E+04  0.00000000000E+00 0.  1.
</event>
<event>
12    1  0.8494789E-002  0.2086305E+03  0.7818608E-02  0.1142932E+00
         21   -1    0    0  501  502  0.00000000000E+00  0.00000000000E+00  0.23495231950E+03  0.23495231950E+03  0.00000000000E+00 0. -1.
         21   -1    0    0  502  503 -0.00000000000E+00 -0.00000000000E+00 -0.19956890193E+03  0.19956890193E+03  0.00000000000E+00 0. -1.
         -6    2    1    2    0  503 -0.80713317920E+02  0.85084758238E+02 -0.42870874879E+02  0.21298968980E+03  0.17254750150E+03 0.  0.
        -24    2    3    3    0    0  0.16196940215E+02  0.57074069905E+02 -0.45322176263E+02  0.11197337591E+03  0.83451464481E+02 0.  0.
          6    2    1    2  501    0  0.80713317920E+02 -0.85084758238E+02  0.78254292445E+02  0.22153153164E+03  0.17087547937E+03 0.  0.
         24    2    5    5    0    0  0.20268745024E+02 -0.37092792144E+02  0.10539650543E+03  0.13958298114E+03  0.81168269750E+02 0.  0.
          5    1    5    5  501    0  0.60444572897E+02 -0.47991966095E+02 -0.27142212984E+02  0.81948550494E+02  0.47000000000E+01 0. -1.
        -11    1    6    6    0    0 -0.19733027573E+02  0.15275489704E+02  0.21797254787E+02  0.33133869063E+02  0.00000000000E+00 0.  1.
         12    1    6    6    0    0  0.40001772596E+02 -0.52368281847E+02  0.83599250642E+02  0.10644911208E+03  0.00000000000E+00 0. -1.
         -5    1    3    3    0  503 -0.96910258135E+02  0.28010688334E+02  0.24513013839E+01  0.10101631389E+03  0.47000000000E+01 0.  1.
         13    1    4    4    0    0  0.15223530212E+02  0.77721252061E+02 -0.45430003143E+02  0.91302979576E+02  0.00000000000E+00 0. -1.
        -14    1    4    4    0    0  0.97341000271E+00 -0.20647182156E+02  0.10782688011E+00  0.20670396335E+02  0.00000000000E+00 0.  1.
</event>
<event>
12    1  0.8494789E-002  0.2164051E+03  0.7818608E-02  0.1136649E+00
         21   -1    0    0  501  502  0.00000000000E+00  0.00000000000E+00  0.15689956460E+04  0.15689956460E+04  0.00000000000E+00 0.  1.
         21   -1    0    0  502  503 -0.00000000000E+00 -0.00000000000E+00 -0.66019652209E+02  0.66019652209E+02  0.00000000000E+00 0.  1.
         -6    2    1    2    0  503 -0.95287428988E+02 -0.90660899995E+02  0.14578469508E+03  0.26067931098E+03  0.17146846049E+03 0.  0.
        -24    2    3    3    0    0 -0.73631343526E+02  0.12893348635E+02  0.64577846018E+02  0.12722853061E+03  0.80180967917E+02 0.  0.
          6    2    1    2  501    0  0.95287428988E+02  0.90660899995E+02  0.13571912987E+04  0.13743359872E+04  0.17184903719E+03 0.  0.
         24    2    5    5    0    0  0.13038512134E+03  0.10223754298E+03  0.11395031898E+04  0.11534829378E+04  0.67842267190E+02 0.  0.
          5    1    5    5  501    0 -0.35097692352E+02 -0.11576642986E+02  0.21768810887E+03  0.22085304936E+03  0.47000000000E+01 0. -1.
        -13    1    6    6    0    0  0.10169930682E+03  0.42427200744E+02  0.80070911028E+03  0.80825608297E+03  0.00000000000E+00 0.  1.
         14    1    6    6    0    0  0.28685814520E+02  0.59810342237E+02  0.33879407953E+03  0.34522685486E+03  0.00000000000E+00 0. -1.
         -5    1    3    3    0  503 -0.21656085462E+02 -0.10355424863E+03  0.81206849059E+02  0.13345078037E+03  0.47000000000E+01 0.  1.
         11    1    4    4    0    0 -0.27446718732E+02  0.38605838258E+02  0.56542260219E+02  0.73761509660E+02  0.00000000000E+00 0. -1.
        -12    1    4    4    0    0 -0.46184624795E+02 -0.25712489623E+02  0.80355857990E+01  0.53467020949E+02  0.00000000000E+00 0.  1.
</event>
<event>
12    1  0.8494789E-002  0.1837492E+03  0.7818608E-02  0.1164267E+00
         21   -1    0    0  501  502  0.00000000000E+00  0.00000000000E+00  0.34794510542E+03  0.34794510542E+03  0.00000000000E+00 0. -1.
         21   -1    0    0  502  503 -0.00000000000E+00 -0.00000000000E+00 -0.11528667256E+03  0.11528667256E+03  0.00000000000E+00 0.  1.
         -6    2    1    2    0  503 -0.32746726117E+02  0.54623297660E+02  0.20877773236E+03  0.27812211427E+03  0.17235926490E+03 0.  0.
        -24    2    3    3    0    0  0.77239812148E+01  0.62924595902E+01  0.19870583101E+03  0.21411210523E+03  0.79124783692E+02 0.  0.
          6    2    1    2  501    0  0.32746726117E+02 -0.54623297660E+02  0.23880700497E+02  0.18510966371E+03  0.17216052691E+03 0.  0.
         24    2    5    5    0    0  0.57607107088E+02 -0.71303767816E+02  0.62689883463E+02  0.13587025562E+03  0.78280896661E+02 0.  0.
          5    1    5    5  501    0 -0.24860380971E+02  0.16680470156E+02 -0.38809182965E+02  0.49239408090E+02  0.47000000000E+01 0. -1.
        -13    1    6    6    0    0  0.20165516200E+02 -0.64337705716E+02  0.61549453717E+01  0.67704296562E+02  0.00000000000E+00 0.  1.
         14    1    6    6    0    0  0.37441590888E+02 -0.69660621000E+01  0.56534938091E+02  0.68165959059E+02  0.00000000000E+00 0. -1.
         -5    1    3    3    0  503 -0.40470707332E+02  0.48330838070E+02  0.10071901346E+02  0.64010009040E+02  0.47000000000E+01 0.  1.
         13    1    4    4    0    0  0.37326486441E+02  0.16933570366E+02  0.65700937021E+02  0.77437881691E+02  0.00000000000E+00 0. -1.
        -14    1    4    4    0    0 -0.29602505227E+02 -0.10641110776E+02  0.13300489399E+03  0.13667422354E+03  0.00000000000E+00 0.  1.
</event>
<event>
12    1  0.8494789E-002  0.2424976E+03  0.7818608E-02  0.1118907E+00
         21   -1    0    0  503  502  0.00000000000E+00  0.00000000000E+00  0.15516187766E+04  0.15516187766E+04  0.00000000000E+00 0.  1.
         21   -1    0    0  501  503 -0.00000000000E+00 -0.00000000000E+00 -0.61540894666E+02  0.61540894666E+02  0.00000000000E+00 0. -1.
          6    2    1    2  501    0  0.96768525830E+02 -0.12734507232E+03  0.24191578390E+03  0.34253220205E+03  0.18227492397E+03 0.  0.
         24    2    3    3    0    0 -0.14532390631E+02 -0.60121281713E+02  0.16262433365E+03  0.19016371413E+03  0.76745067500E+02 0.  0.
         -6    2    1    2    0  502 -0.96768525830E+02  0.12734507232E+03  0.12481620981E+04  0.12706274693E+04  0.17608130936E+03 0.  0.
        -24    2    5    5    0    0 -0.76824652396E+02 -0.78266661413E+00  0.61344378849E+03  0.62278188726E+03  0.75108972091E+02 0.  0.
          5    1    3    3  501    0  0.11130091646E+03 -0.67223790609E+02  0.79291450251E+02  0.15236848792E+03  0.47000000000E+01 0. -1.
        -13    1    4    4    0    0 -0.61918026547E+01  0.14396089324E+02  0.64981506323E+01  0.16965016050E+02  0.00000000000E+00 0.  1.
         14    1    4    4    0    0 -0.83405879765E+01 -0.74517371037E+02  0.15612618301E+03  0.17319869808E+03  0.00000000000E+00 0. -1.
         -5    1    5    5    0  502 -0.19943873435E+02  0.12812773894E+03  0.63471830959E+03  0.64784558199E+03  0.47000000000E+01 0.  1.
         13    1    6    6    0    0 -0.79107253882E+01 -0.42493569580E+01  0.46914510928E+01  0.10131452220E+02  0.00000000000E+00 0. -1.
        -14    1    6    6    0    0 -0.68913927007E+02  0.34666903438E+01  0.60875233739E+03  0.61265043504E+03  0.00000000000E+00 0.  1.
</event>
<event>
12    1  0.8494789E-002  0.1971814E+03  0.7818608E-02  0.1153185E+00
         21   -1    0    0  501  502  0.00000000000E+00  0.00000000000E+00  0.63357076257E+03  0.63357076257E+03  0.00000000000E+00 0.  1.
         21   -1    0    0  502  503 -0.00000000000E+00 -0.00000000000E+00 -0.64074052781E+02  0.64074052781E+02  0.00000000000E+00 0. -1.
         -6    2    1    2    0  503 -0.16569381257E+02  0.93559340121E+02  0.19880445457E+03  0.28000664265E+03  0.17277909090E+03 0.  0.
        -24    2    3    3    0    0 -0.18907834180E+02  0.17386142248E+02  0.18390074114E+03  0.20221181564E+03  0.80064671707E+02 0.  0.
          6    2    1    2  501    0  0.16569381257E+02 -0.93559340121E+02  0.37069225522E+03  0.41763817270E+03  0.16727522440E+03 0.  0.
         24    2    5    5    0    0 -0.21702285178E+02 -0.10243282627E+03  0.34845120321E+03  0.37224859678E+03  0.78659415852E+02 0.  0.
          5    1    5    5  501    0  0.38271666435E+02  0.88734861507E+01  0.22241052011E+02  0.45389575926E+02  0.47000000000E+01 0. -1.
        -11    1    6    6    0    0  0.14691952629E+02 -0.20788763367E+02  0.17770785951E+03  0.17952189138E+03  0.00000000000E+00 0.  1.
         12    1    6    6    0    0 -0.36394237807E+02 -0.81644062904E+02  0.17074334371E+03  0.19272670540E+03  0.00000000000E+00 0. -1.
         -5    1    3    3    0  503  0.23384529225E+01  0.76173197873E+02  0.14903713427E+02  0.77794827014E+02  0.47000000000E+01 0.  1.
         13    1    4    4    0    0  0.21234473543E+02  0.30484119862E+02  0.53415412072E+02  0.65064511658E+02  0.00000000000E+00 0. -1.
        -14    1    4    4    0    0 -0.40142307722E+02 -0.13097977614E+02  0.13048532907E+03  0.13714730398E+03  0.00000000000E+00 0.  1.
</event>
<event>
12    1  0.8494789E-002  0.2858655E+03  0.7818608E-02  0.1092611E+00
         21   -1    0    0  501  502  0.00000000000E+00  0.00000000000E+00  0.78133264239E+02  0.78133264239E+02  0.00000000000E+00 0. -1.
         21   -1    0    0  502  503 -0.00000000000E+00 -0.00000000000E+00 -0.14107976858E+04  0.14107976858E+04  0.00000000000E+00 0.  1.
         -6    2    1    2    0  503 -0.91032685371E+02  0.20879265442E+03 -0.10466798507E+04  0.10850151109E+04  0.17273609521E+03 0.  0.
        -24    2    3    3    0    0 -0.11675050427E+03  0.16308507205E+03 -0.65413503185E+03  0.68895436539E+03  0.80858250826E+02 0.  0.
          6    2    1    2  501    0  0.91032685371E+02 -0.20879265442E+03 -0.28598457086E+03  0.40391583918E+03  0.17169597556E+03 0.  0.
         24    2    5    5    0    0  0.83689173672E+02 -0.21200453380E+03 -0.19054567809E+03  0.30802571671E+03  0.81378047254E+02 0.  0.
          5    1    5    5  501    0  0.73435116989E+01  0.32118793824E+01 -0.95438892776E+02  0.95890122471E+02  0.47000000000E+01 0. -1.
        -13    1    6    6    0    0 -0.68474529341E+01 -0.83988164831E+02 -0.79865439571E+02  0.11610076607E+03  0.00000000000E+00 0.  1.
         14    1    6    6    0    0  0.90536626606E+02 -0.12801636897E+03 -0.11068023852E+03  0.19192495064E+03  0.00000000000E+00 0. -1.
         -5    1    3    3    0  503  0.25717818896E+02  0.45707582369E+02 -0.39254481886E+03  0.39606074548E+03  0.47000000000E+01 0.  1.
         11    1    4    4    0    0 -0.21904719070E+02 -0.49881199978E+01 -0.51913914812E+02  0.56566355811E+02  0.00000000000E+00 0. -1.
        -12    1    4    4    0    0 -0.94845785197E+02  0.16807319205E+03 -0.60222111704E+03  0.63238800958E+03  0.00000000000E+00 0.  1.
</event>
<event>
12    1  0.8494789E-002  0.1804701E+03  0.7818608E-02  0.1167865E+00
         21   -1    0    0  503  502  0.00000000000E+00  0.00000000000E+00  0.12649917038E+03  0.12649917038E+03  0.00000000000E+00 0. -1.
         21   -1    0    0  501  503 -0.00000000000E+00 -0.00000000000E+00 -0.25482091988E+03  0.25482091988E+03  0.00000000000E+00 0. -1.
          6    2    1    2  501    0 -0.40225763890E+02  0.98514691525E+01 -0.71146470234E+02  0.19200962561E+03  0.17346674775E+03 0.  0.
         24    2    3    3    0    0 -0.51966602710E+02  0.26777317271E+02 -0.11028207535E+03  0.14753472012E+03  0.78656245653E+02 0.  0.
         -6    2    1    2    0  502  0.40225763890E+02 -0.98514691525E+01 -0.57175279269E+02  0.18931046465E+03  0.17565385263E+03 0.  0.
        -24    2    5    5    0    0  0.17199991731E+02  0.54432041687E+02  0.39013148786E+01  0.97577175700E+02  0.79040483817E+02 0.  0.
          5    1    3    3  501    0  0.11740838819E+02 -0.16925848119E+02  0.39135605115E+02  0.44474905491E+02  0.47000000000E+01 0. -1.
        -11    1    4    4    0    0 -0.15864638553E+02  0.99964262402E+01  0.97059606578E+01  0.21114472911E+02  0.00000000000E+00 0.  1.
         12    1    4    4    0    0 -0.36101964156E+02  0.16780891031E+02 -0.11998803601E+03  0.12642024721E+03  0.00000000000E+00 0. -1.
         -5    1    5    5    0  502  0.23025772160E+02 -0.64283510840E+02 -0.61076594147E+02  0.91733288953E+02  0.47000000000E+01 0.  1.
         11    1    6    6    0    0 -0.25336067124E+02  0.27799439970E+02 -0.19314095140E+02  0.42281904298E+02  0.00000000000E+00 0. -1.
        -12    1    6    6    0    0  0.42536058854E+02  0.26632601717E+02  0.23215410019E+02  0.55295271402E+02  0.00000000000E+00 0.  1.
</event>
<event>
12    1  0.8494789E-002  0.2822696E+03  0.7818608E-02  0.1094463E+00
         21   -1    0    0  503  502  0.00000000000E+00  0.00000000000E+00  0.28865668840E+03  0.28865668840E+03  0.00000000000E+00 0.  1.
         21   -1    0    0  501  503 -0.00000000000E+00 -0.00000000000E+00 -0.50347931428E+03  0.50347931428E+03  0.00000000000E+00 0. -1.
          6    2    1    2  501    0  0.18417732061E+03  0.12707907892E+03 -0.37364676035E+03  0.46825139324E+03  0.17197990587E+03 0.  0.
         24    2    3    3    0    0  0.40179289308E+02  0.53877792121E+02 -0.81644292866E+02  0.13451288418E+03  0.83130822689E+02 0.  0.
         -6    2    1    2    0  502 -0.18417732061E+03 -0.12707907892E+03  0.15882413448E+03  0.32388460944E+03  0.17206323493E+03 0.  0.
        -24    2    5    5    0    0 -0.48475532268E+02 -0.11539131670E+03  0.95358117205E+02  0.17354630929E+03  0.73212825051E+02 0.  0.
          5    1    3    3  501    0  0.14399803130E+03  0.73201286797E+02 -0.29200246749E+03  0.33373850906E+03  0.47000000000E+01 0. -1.
        -11    1    4    4    0    0  0.18101858667E+02  0.67252069055E+02 -0.28155611650E+02  0.75121611716E+02  0.00000000000E+00 0.  1.
         12    1    4    4    0    0  0.22077430641E+02 -0.13374276934E+02 -0.53488681216E+02  0.59391272469E+02  0.00000000000E+00 0. -1.
         -5    1    5    5    0  502 -0.13570178834E+03 -0.11687762216E+02  0.63466017275E+02  0.15033830015E+03  0.47000000000E+01 0.  1.
         11    1    6    6    0    0  0.28696603107E+01 -0.34113037229E+02  0.63724540844E+02  0.72337758916E+02  0.00000000000E+00 0. -1.
        -12    1    6    6    0    0 -0.51345192578E+02 -0.81278279473E+02  0.31633576361E+02  0.10120855037E+03  0.00000000000E+00 0.  1.
</event>
<event>
12    1  0.8494789E-002  0.2169766E+03  0.7818608E-02  0.1136181E+00
         21   -1    0    0  501  502  0.00000000000E+00  0.00000000000E+00  0.23914114042E+03  0.23914114042E+03  0.00000000000E+00 0.  1.
         21   -1    0    0  502  503 -0.00000000000E+00 -0.00000000000E+00 -0.19721543419E+03  0.19721543419E+03  0.00000000000E+00 0.  1.
         -6    2    1    2    0  503 -0.64355643386E+02 -0.11476575558E+03  0.31549158124E+02  0.21925830637E+03  0.17252833984E+03 0.  0.
        -24    2    3    3    0    0 -0.45695978495E+02 -0.14898172775E+03  0.12389309851E+02  0.17557643792E+03  0.79936930753E+02 0.  0.
          6    2    1    2  501    0  0.64355643386E+02  0.11476575558E+03  0.10376548109E+02  0.21709826823E+03  0.17236924851E+03 0.  0.
         24    2    5    5    0    0  0.61113744986E+02  0.12932596012E+02 -0.11042425666E+02  0.11288039678E+03  0.93369732502E+02 0.  0.
          5    1    5    5  501    0  0.32418984000E+01  0.10183315956E+03  0.21418973775E+02  0.10421787145E+03  0.47000000000E+01 0. -1.
        -13    1    6    6    0    0  0.87349238500E+01  0.18495814891E+02  0.36554167671E+02  0.41887960529E+02  0.00000000000E+00 0.  1.
         14    1    6    6    0    0  0.52378821136E+02 -0.55632188789E+01 -0.47596593338E+02  0.70992436254E+02  0.00000000000E+00 0. -1.
         -5    1    3    3    0  503 -0.18659664891E+02  0.34215972177E+02  0.19159848273E+02  0.43681868455E+02  0.47000000000E+01 0.  1.
         11    1    4    4    0    0 -0.31959634058E+02 -0.25353363822E+02  0.29043564751E+02  0.50077339383E+02  0.00000000000E+00 0. -1.
        -12    1    4    4    0    0 -0.13736344437E+02 -0.12362836393E+03 -0.16654254900E+02  0.12549909854E+03  0.00000000000E+00 0.  1.
</event>
<event>
12    1  0.8494789E-002  0.1862122E+03  0.7818608E-02  0.1162388E+00
         21   -1    0    0  503  502  0.00000000000E+00  0.00000000000E+00  0.32372005869E+03  0.32372005869E+03  0.00000000000E+00 0.  1.
         21   -1    0    0  501  503 -0.00000000000E+00 -0.00000000000E+00 -0.11295481803E+03  0.11295481803E+03  0.00000000000E+00 0.  1.
          6    2    1    2  501    0  0.67120585185E+02 -0.33480697854E+01  0.51613231806E+02  0.19323275170E+03  0.17366228175E+03 0.  0.
         24    2    3    3    0    0  0.97630706880E+00  0.43741457689E+02 -0.84283032483E+01  0.92140887252E+02  0.80651339181E+02 0.  0.
         -6    2    1    2    0  502 -0.67120585185E+02  0.33480697854E+01  0.15915200886E+03  0.24344212502E+03  0.17151770691E+03 0.  0.
        -24    2    5    5    0    0  0.15889046514E+01  0.54050940580E+02  0.63776715217E+02  0.11533938603E+03  0.79446055724E+02 0.  0.
          5    1    3    3  501    0  0.66144278116E+02 -0.47089527474E+02  0.60041535055E+02  0.10109186444E+03  0.47000000000E+01 0. -1.
        -11    1    4    4    0    0  0.34381964509E+02  0.81897058412E+01  0.14543315641E+02  0.38219089407E+02  0.00000000000E+00 0.  1.
         12    1    4    4    0    0 -0.33405657440E+02  0.35551751848E+02 -0.22971618890E+02  0.53921797845E+02  0.00000000000E+00 0. -1.
         -5    1    5    5    0  502 -0.68709489836E+02 -0.50702870795E+02  0.95375293643E+02  0.12810273899E+03  0.47000000000E+01 0.  1.
         11    1    6    6    0    0 -0.23389503418E+02  0.22557642452E+02 -0.76460682752E+01  0.33382307638E+02  0.00000000000E+00 0. -1.
        -12    1    6    6    0    0  0.24978408070E+02  0.31493298128E+02  0.71422783493E+02  0.81957078392E+02  0.00000000000E+00 0.  1.
</event>
<event>
12    1  0.8494789E-002  0.2336266E+03  0.7818608E-02  0.1124219E+00
         21   -1    0    0  501  502  0.00000000000E+00  0.00000000000E+00  0.29511240336E+03  0.29511240336E+03  0.00000000000E+00 0.  1.
         21   -1    0    0  502  503 -0.00000000000E+00 -0.00000000000E+00 -0.19336226943E+03  0.19336226943E+03  0.00000000000E+00 0. -1.
         -6    2    1    2    0  503 -0.82428595213E+02  0.13542390600E+03 -0.14513589739E+01  0.23363108055E+03  0.17160206214E+03 0.  0.
        -24    2    3    3    0    0 -0.13425527400E+02  0.33757079456E+01  0.16582472630E+02  0.83479626816E+02  0.80636403099E+02 0.  0.
          6    2    1    2  501    0  0.82428595213E+02 -0.13542390600E+03  0.10320149291E+03  0.25484359224E+03  0.17076475263E+03 0.  0.
         24    2    5    5    0    0  0.46794086907E+02 -0.53946454327E+01  0.66985639480E+02  0.11516143581E+03  0.80970930785E+02 0.  0.
          5    1    5    5  501    0  0.35634508306E+02 -0.13002926056E+03  0.36215853430E+02  0.13968215643E+03  0.47000000000E+01 0. -1.
        -13    1    6    6    0    0 -0.18071445529E+02  0.16913281684E+02  0.22137105981E+02  0.33206741816E+02  0.00000000000E+00 0.  1.
         14    1    6    6    0    0  0.64865532436E+02 -0.22307927117E+02  0.44848533499E+02  0.81954693993E+02  0.00000000000E+00 0. -1.
         -5    1    3    3    0  503 -0.69003067813E+02  0.13204819805E+03 -0.18033831604E+02  0.15015145373E+03  0.47000000000E+01 0.  1.
         11    1    4    4    0    0 -0.44231107672E+02  0.75024022683E+01 -0.57185759186E+01  0.45225866893E+02  0.00000000000E+00 0. -1.
        -12    1    4    4    0    0  0.30805580272E+02 -0.41266943227E+01  0.22301048549E+02  0.38253759924E+02  0.00000000000E+00 0.  1.
</event>
<event>
12    1  0.8494789E-002  0.1925300E+03  0.7818608E-02  0.1157244E+00
         21   -1    0    0  503  502  0.00000000000E+00  0.00000000000E+00  0.31818259085E+02  0.31818259085E+02  0.00000000000E+00 0.  1.
         21   -1    0    0  501  503 -0.00000000000E+00 -0.00000000000E+00 -0.12338742753E+04  0.12338742753E+04  0.00000000000E+00 0. -1.
          6    2    1    2  501    0 -0.79655838167E+02 -0.33398717580E+02 -0.78512773224E+03  0.80838935585E+03  0.17206762572E+03 0.  0.
         24    2    3    3    0    0  0.10048610646E+02 -0.11706026854E+01 -0.52941978424E+03  0.53545312850E+03  0.79513520805E+02 0.  0.
         -6    2    1    2    0  502  0.79655838167E+02  0.33398717580E+02 -0.41692828394E+03  0.45730317851E+03  0.16684266910E+03 0.  0.
        -24    2    5    5    0    0  0.87454645314E+02  0.67211912963E+02 -0.39230541151E+03  0.41449512527E+03  0.75742436870E+02 0.  0.
          5    1    3    3  501    0 -0.89704448812E+02 -0.32228114895E+02 -0.25570794800E+03  0.27293622735E+03  0.47000000000E+01 0. -1.
        -11    1    4    4    0    0  0.14813878977E+02  0.36393376292E+02 -0.19674002895E+03  0.20062544166E+03  0.00000000000E+00 0.  1.
         12    1    4    4    0    0 -0.47652683308E+01 -0.37563978977E+02 -0.33267975529E+03  0.33482768685E+03  0.00000000000E+00 0. -1.
         -5    1    5    5    0  502 -0.77988071476E+01 -0.33813195382E+02 -0.24622872429E+02  0.42808053232E+02  0.47000000000E+01 0.  1.
         13    1    6    6    0    0  0.33494898103E+01  0.35113634362E+02 -0.18734055469E+03  0.19063228958E+03  0.00000000000E+00 0. -1.
        -14    1    6    6    0    0  0.84105155504E+02  0.32098278600E+02 -0.20496485682E+03  0.22386283569E+03  0.00000000000E+00 0.  1.
</event>
<event>
12    1  0.8494789E-002  0.1913425E+03  0.7818608E-02  0.1158433E+00
         21   -1    0    0  501  502  0.00000000000E+00  0.00000000000E+00  0.89551704728E+03  0.89551704728E+03  0.00000000000E+00 0. -1.
         21   -1    0    0  502  503 -0.00000000000E+00 -0.00000000000E+00 -0.79578820184E+02  0.79578820184E+02  0.00000000000E+00 0. -1.
         -6    2    1    2    0  503 -0.46824077160E+02  0.58985780542E+02  0.60397414753E+02  0.19570258513E+03  0.17023465455E+03 0.  0.
        -24    2    3    3    0    0  0.33684368900E+02  0.59057750741E+02  0.55968959192E+02  0.11493553563E+03  0.73859314417E+02 0.  0.
          6    2    1    2  501    0  0.46824077160E+02 -0.58985780542E+02  0.75554081235E+03  0.77939328234E+03  0.17589813223E+03 0.  0.
         24    2    5    5    0    0  0.35894875931E+02  0.29933526236E+01  0.65471778912E+03  0.66044693981E+03  0.78977051341E+02 0.  0.
          5    1    5    5  501    0  0.10929201229E+02 -0.61979133166E+02  0.10082302323E+03  0.11894634253E+03  0.47000000000E+01 0. -1.
        -11    1    6    6    0    0 -0.17737784348E+02  0.23443107205E+02  0.22561639562E+03  0.22752355096E+03  0.00000000000E+00 0.  1.
         12    1    6    6    0    0  0.53632660279E+02 -0.20449754581E+02  0.42910139350E+03  0.43292338885E+03  0.00000000000E+00 0. -1.
         -5    1    3    3    0  503 -0.80508446060E+02 -0.71970198758E-01  0.44284555603E+01  0.80767049503E+02  0.47000000000E+01 0.  1.
         13    1    4    4    0    0 -0.63259424295E+01  0.41027384876E+02 -0.27798392195E+01  0.41605184334E+02  0.00000000000E+00 0. -1.
        -14    1    4    4    0    0  0.40010311330E+02  0.18030365865E+02  0.58748798412E+02  0.73330351293E+02  0.00000000000E+00 0.  1.
</event>
<event>
12    1  0.8494789E-002  0.2379750E+03  0.7818608E-02  0.1121235E+00
         21   -1    0    0  501  502  0.00000000000E+00  0.00000000000E+00  0.48127609367E+03  0.48127609367E+03  0.00000000000E+00 0.  1.
         21   -1    0    0  502  503 -0.00000000000E+00 -0.00000000000E+00 -0.12666401457E+03  0.12666401457E+03  0.00000000000E+00 0.  1.
         -6    2    1    2    0  503 -0.16201816653E+03  0.26931604394E+02  0.95016649216E+02  0.25577270821E+03  0.17151185684E+03 0.  0.
        -24    2    3    3    0    0 -0.81812387622E+02  0.30672612758E+02  0.12284364642E+03  0.17066457766E+03  0.80011003372E+02 0.  0.
          6    2    1    2  501    0  0.16201816653E+03 -0.26931604394E+02  0.25959542988E+03  0.35216740003E+03  0.17221176739E+03 0.  0.
         24    2    5    5    0    0  0.34550063930E+02 -0.52819573725E+02  0.15399118468E+03  0.18455877632E+03  0.79781217545E+02 0.  0.
          5    1    5    5  501    0  0.12746810260E+03  0.25887969331E+02  0.10560424520E+03  0.16760862371E+03  0.47000000000E+01 0. -1.
        -13    1    6    6    0    0  0.36126855039E+02  0.36629329389E+01  0.26032210326E+02  0.44679331991E+02  0.00000000000E+00 0.  1.
         14    1    6    6    0    0 -0.15767911090E+01 -0.56482506663E+02  0.12795897435E+03  0.13987944433E+03  0.00000000000E+00 0. -1.
         -5    1    3    3    0  503 -0.80205778905E+02 -0.37410083645E+01 -0.27826997200E+02  0.85108130555E+02  0.47000000000E+01 0.  1.
         11    1    4    4    0    0  0.85982975272E+01  0.26482293579E+02  0.25681184954E+02  0.37878303211E+02  0.00000000000E+00 0. -1.
        -12    1    4    4    0    0 -0.90410685150E+02  0.41903191796E+01  0.97162461462E+02  0.13278627445E+03  0.00000000000E+00 0.  1.
</event>
<event>
12    1  0.8494789E-002  0.2786904E+03  0.7818608E-02  0.1097049E+00
         21   -1    0    0  501  502  0.00000000000E+00  0.00000000000E+00  0.21825470184E+03  0.21825470184E+03  0.00000000000E+00 0.  1.
         21   -1    0    0  502  503 -0.00000000000E+00 -0.00000000000E+00 -0.37803723817E+03  0.37803723817E+03  0.00000000000E+00 0.  1.
         -6    2    1    2    0  503 -0.60454951804E+02  0.20685829136E+03  0.72586387721E+00  0.27869131017E+03  0.17670077980E+03 0.  0.
        -24    2    3    3    0    0 -0.10491106301E+02  0.12359063269E+03 -0.65163193444E+02  0.16124623061E+03  0.79808503964E+02 0.  0.
          6    2    1    2  501    0  0.60454951804E+02 -0.20685829136E+03 -0.16050840020E+03  0.31760062984E+03  0.16929872900E+03 0.  0.
         24    2    5    5    0    0  0.78667786021E+02 -0.21189868281E+03 -0.11268733101E+03  0.26596675012E+03  0.83367891101E+02 0.  0.
          5    1    5    5  501    0 -0.18212834218E+02  0.50403914521E+01 -0.47821069193E+02  0.51633879720E+02  0.47000000000E+01 0. -1.
        -11    1    6    6    0    0  0.28334004442E+02 -0.11225180032E+02 -0.31179436220E+02  0.43600203181E+02  0.00000000000E+00 0.  1.
         12    1    6    6    0    0  0.50333781579E+02 -0.20067350278E+03 -0.81507894787E+02  0.22236654694E+03  0.00000000000E+00 0. -1.
         -5    1    3    3    0  503 -0.49963845502E+02  0.83267658667E+02  0.65889057321E+02  0.11744507956E+03  0.47000000000E+01 0.  1.
         13    1    4    4    0    0  0.99308044288E+01 -0.16934129987E+01  0.96101579222E+01  0.13922774848E+02  0.00000000000E+00 0. -1.
        -14    1    4    4    0    0 -0.20421910730E+02  0.12528404569E+03 -0.74773351366E+02  0.14732345576E+03  0.00000000000E+00 0.  1.
</event>
<event>
12    1  0.8494789E-002  0.1923553E+03  0.7818608E-02  0.1157514E+00
         21   -1    0    0  503  502  0.00000000000E+00  0.00000000000E+00  0.25342930523E+03  0.25342930523E+03  0.00000000000E+00 0.  1.
         21   -1    0    0  501  503 -0.00000000000E+00 -0.00000000000E+00 -0.27499132510E+03  0.27499132510E+03  0.00000000000E+00 0. -1.
          6    2    1    2  501    0 -0.15195204453E+01  0.85810078890E+02 -0.19435727337E+03  0.26984999879E+03  0.16636884791E+03 0.  0.
         24    2    3    3    0    0  0.56941006264E+02  0.54027274268E+02 -0.83119585538E+02  0.14014381911E+03  0.81056770080E+02 0.  0.
         -6    2    1    2    0  502  0.15195204453E+01 -0.85810078890E+02  0.17279525351E+03  0.25857063153E+03  0.17214788200E+03 0.  0.
        -24    2    5    5    0    0 -0.27073480205E+02 -0.57864739994E+02  0.18912151142E+03  0.21512942587E+03  0.80202383556E+02 0.  0.
          5    1    3    3  501    0 -0.58460526709E+02  0.31782804622E+02 -0.11123768784E+03  0.12970617968E+03  0.47000000000E+01 0. -1.
        -13    1    4    4    0    0 -0.36683711854E+01 -0.11492886374E+02 -0.38522965735E+02  0.40367837115E+02  0.00000000000E+00 0.  1.
         14    1    4    4    0    0  0.60609377449E+02  0.65520160641E+02 -0.44596619803E+02  0.99775981995E+02  0.00000000000E+00 0. -1.
         -5    1    5    5    0  502  0.28593000650E+02 -0.27945338896E+02 -0.16326257913E+02  0.43441205665E+02  0.47000000000E+01 0.  1.
         13    1    6    6    0    0  0.17121437364E+02 -0.21148757760E+02  0.13554153323E+02  0.30399484280E+02  0.00000000000E+00 0. -1.
        -14    1    6    6    0    0 -0.44194917569E+02 -0.36715982235E+02  0.17556735810E+03  0.18472994159E+03  0.00000000000E+00 0.  1.
</event>
<event>
12    1  0.8494789E-002  0.2364440E+03  0.7818608E-02  0.1122228E+00
         21   -1    0    0  503  502  0.00000000000E+00  0.00000000000E+00  0.18069589616E+03  0.18069589616E+03  0.00000000000E+00 0. -1.
         21   -1    0    0  501  503 -0.00000000000E+00 -0.00000000000E+00 -0.32247332136E+03  0.32247332136E+03  0.00000000000E+00 0. -1.
          6    2    1    2  501    0 -0.14217620678E+03 -0.77952738212E+02 -0.12217317453E+03  0.26591384905E+03  0.17173580690E+03 0.  0.
         24    2    3    3    0    0 -0.26602273839E+02  0.19923938829E+02 -0.37324107610E+02  0.92251440792E+02  0.77540924727E+02 0.  0.
         -6    2    1    2    0  502  0.14217620678E+03  0.77952738212E+02 -0.19604250658E+02  0.23725536847E+03  0.17209032528E+03 0.  0.
        -24    2    5    5    0    0  0.15250750128E+03  0.20018307180E+02 -0.46761477128E+01  0.17636142622E+03  0.86152282230E+02 0.  0.
          5    1    3    3  501    0 -0.11557393294E+03 -0.97876677042E+02 -0.84849066923E+02  0.17366240826E+03  0.47000000000E+01 0. -1.
        -11    1    4    4    0    0  0.44879238138E+01 -0.24045263696E+02 -0.28708470924E+02  0.37715944495E+02  0.00000000000E+00 0.  1.
         12    1    4    4    0    0 -0.31090197653E+02  0.43969202526E+02 -0.86156366864E+01  0.54535496297E+02  0.00000000000E+00 0. -1.
         -5    1    5    5    0  502 -0.10331294500E+02  0.57934431032E+02 -0.14928102945E+02  0.60893942249E+02  0.47000000000E+01 0.  1.
         13    1    6    6    0    0  0.13043466382E+03  0.19031412388E+02 -0.37270997846E+02  0.13698366131E+03  0.00000000000E+00 0. -1.
        -14    1    6    6    0    0  0.22072837454E+02  0.98689479185E+00  0.32594850133E+02  0.39377764917E+02  0.00000000000E+00 0.  1.
</event>
<event>
12    1  0.8494789E-002  0.1814039E+03  0.7818608E-02  0.1166532E+00
         21   -1    0    0  501  502  0.00000000000E+00  0.00000000000E+00  0.67114199831E+02  0.67114199831E+02  0.00000000000E+00 0. -1.
         21   -1    0    0  502  503 -0.00000000000E+00 -0.00000000000E+00 -0.53135931453E+03  0.53135931453E+03  0.00000000000E+00 0. -1.
         -6    2    1    2    0  503  0.53810781833E+02 -0.16620364232E+02 -0.14784033445E+03  0.23375530780E+03  0.17208411515E+03 0.  0.
        -24    2    3    3    0    0  0.58463732569E+02 -0.15432469662E+02 -0.11814555784E+02  0.97563665231E+02  0.75649956372E+02 0.  0.
          6    2    1    2  501    0 -0.53810781833E+02  0.16620364232E+02 -0.31640478025E+03  0.36471820656E+03  0.17243998517E+03 0.  0.
         24    2    5    5    0    0 -0.72999721487E+02  0.34102686844E+02 -0.31864266353E+03  0.33824283819E+03  0.79894417664E+02 0.  0.
          5    1    5    5  501    0  0.19188939654E+02 -0.17482322612E+02  0.22378832847E+01  0.26475368375E+02  0.47000000000E+01 0. -1.
        -13    1    6    6    0    0 -0.16718715315E+02  0.34861374819E+02 -0.23008974685E+03  0.23331549992E+03  0.00000000000E+00 0.  1.
         14    1    6    6    0    0 -0.56281006172E+02 -0.75868797433E+00 -0.88552916678E+02  0.10492733827E+03  0.00000000000E+00 0. -1.
         -5    1    3    3    0  503 -0.46529507367E+01 -0.11878945700E+01 -0.13602577867E+03  0.13619164257E+03  0.47000000000E+01 0.  1.
         11    1    4    4    0    0  0.69555220533E+02 -0.27672015255E+02  0.36364693916E+01  0.74945934121E+02  0.00000000000E+00 0. -1.
        -12    1    4    4    0    0 -0.11091487963E+02  0.12239545593E+02 -0.15451025176E+02  0.22617731110E+02  0.00000000000E+00 0.  1.
</event>
<event>
12    1  0.8494789E-002  0.1748585E+03  0.7818608E-02  0.1173063E+00
         21   -1    0    0  501  502  0.00000000000E+00  0.00000000000E+00  0.21012930063E+04  0.21012930063E+04  0.00000000000E+00 0.  1.
         21   -1    0    0  502  503 -0.00000000000E+00 -0.00000000000E+00 -0.72215217394E+02  0.72215217394E+02  0.00000000000E+00 0.  1.
         -6    2    1    2    0  503  0.31172051260E+02  0.90574284507E+01  0.42461180909E+02  0.17921109027E+03  0.17105533959E+03 0.  0.
        -24    2    3    3    0    0 -0.28946222718E+02 -0.36486094912E+02  0.47604454307E+02  0.10346835037E+03  0.79185835394E+02 0.  0.
          6    2    1    2  501    0 -0.31172051260E+02 -0.90574284507E+01  0.19866166080E+04  0.19942971334E+04  0.17181901936E+03 0.  0.
         24    2    5    5    0    0 -0.84931001766E+02 -0.46081602335E+01  0.14824325512E+04  0.14872138327E+04  0.83451813046E+02 0.  0.
          5    1    5    5  501    0  0.53758950506E+02 -0.44492682171E+01  0.50418405676E+03  0.50708330069E+03  0.47000000000E+01 0. -1.
        -11    1    6    6    0    0 -0.50790328829E+02 -0.13919160111E+02  0.13163524030E+04  0.13174054233E+04  0.00000000000E+00 0.  1.
         12    1    6    6    0    0 -0.34140672938E+02  0.93109998774E+01  0.16608014827E+03  0.16980840944E+03  0.00000000000E+00 0. -1.
         -5    1    3    3    0  503  0.60118273978E+02  0.45543523363E+02 -0.51432733978E+01  0.75742739901E+02  0.47000000000E+01 0.  1.
         13    1    4    4    0    0 -0.13195808525E+02 -0.97955566114E+00  0.60970536106E+02  0.62389864281E+02  0.00000000000E+00 0. -1.
        -14    1    4    4    0    0 -0.15750414193E+02 -0.35506539251E+02 -0.13366081799E+02  0.41078486090E+02  0.00000000000E+00 0.  1.
</event>
<event>
12    1  0.8494789E-002  0.1993635E+03  0.7818608E-02  0.1150406E+00
         21   -1    0    0  503  502  0.00000000000E+00  0.00000000000E+00  0.91985943945E+03  0.91985943945E+03  0.00000000000E+00 0. -1.
         21   -1    0    0  501  503 -0.00000000000E+00 -0.00000000000E+00 -0.90968471723E+02  0.90968471723E+02  0.00000000000E+00 0.  1.
          6    2    1    2  501    0  0.19026146786E+02 -0.98119802381E+02  0.47431294936E+02  0.20433857863E+03  0.17179940948E+03 0.  0.
         24    2    3    3    0    0 -0.27821865724E+02 -0.66902403563E+02  0.82077396462E+02  0.13806864114E+03  0.84120525679E+02 0.  0.
         -6    2    1    2    0  502 -0.19026146786E+02  0.98119802381E+02  0.78145967279E+03  0.80648933254E+03  0.17250024179E+03 0.  0.
        -24    2    5    5    0    0  0.15639947780E+02  0.12732548403E+03  0.54165073903E+03  0.56238868800E+03  0.80244167671E+02 0.  0.
          5    1    3    3  501    0  0.46848012510E+02 -0.31217398818E+02 -0.34646101526E+02  0.66269937498E+02  0.47000000000E+01 0. -1.
        -11    1    4    4    0    0  0.27380250578E+02 -0.12064315368E+02  0.38917273166E+02  0.49089509854E+02  0.00000000000E+00 0.  1.
         12    1    4    4    0    0 -0.55202116301E+02 -0.54838088195E+02  0.43160123296E+02  0.88979131283E+02  0.00000000000E+00 0. -1.
         -5    1    5    5    0  502 -0.34666094566E+02 -0.29205681651E+02  0.23980893376E+03  0.24410064454E+03  0.47000000000E+01 0.  1.
         13    1    6    6    0    0  0.10322141124E+02 -0.23026398356E+00  0.15213040515E+03  0.15248035871E+03  0.00000000000E+00 0. -1.
        -14    1    6    6    0    0  0.53178066564E+01  0.12755574802E+03  0.38952033388E+03  0.40990832930E+03  0.00000000000E+00 0.  1.
</event>
<event>
12    1  0.8494789E-002  0.1829259E+03  0.7818608E-02  0.1165120E+00
         21   -1    0    0  503  502  0.00000000000E+00  0.00000000000E+00  0.16134610334E+03  0.16134610334E+03  0.00000000000E+00 0.  1.
         21   -1    0    0  501  503 -0.00000000000E+00 -0.00000000000E+00 -0.46627406602E+03  0.46627406602E+03  0.00000000000E+00 0.  1.
          6    2    1    2  501    0 -0.18382143958E+02 -0.59510422134E+02 -0.38664178515E+03  0.42773094942E+03  0.17199564387E+03 0.  0.
         24    2    3    3    0    0  0.36855847785E+02 -0.87512152789E+02 -0.24551823982E+03  0.27354509502E+03  0.74370575658E+02 0.  0.
         -6    2    1    2    0  502  0.18382143958E+02  0.59510422134E+02  0.81713822471E+02  0.19988921993E+03  0.17146182638E+03 0.  0.
        -24    2    5    5    0    0  0.15285151980E+02  0.14934847007E+02 -0.23390688210E+02  0.85584270686E+02  0.79503821090E+02 0.  0.
          5    1    3    3  501    0 -0.55237991743E+02  0.28001730654E+02 -0.14112354533E+03  0.15418585440E+03  0.47000000000E+01 0. -1.
        -11    1    4    4    0    0 -0.12535759642E+02 -0.11491852499E+02 -0.10467546792E+03  0.10604792091E+03  0.00000000000E+00 0.  1.
         12    1    4    4    0    0  0.49391607427E+02 -0.76020300289E+02 -0.14084277189E+03  0.16749717411E+03  0.00000000000E+00 0. -1.
         -5    1    5    5    0  502  0.30969919780E+01  0.44575575127E+02  0.10510451068E+03  0.11430494925E+03  0.47000000000E+01 0.  1.
         13    1    6    6    0    0  0.17337671850E+02 -0.31404168950E+02 -0.11942491442E+02  0.37807932957E+02  0.00000000000E+00 0. -1.
        -14    1    6    6    0    0 -0.20525198705E+01  0.46339015957E+02 -0.11448196768E+02  0.47776337730E+02  0.00000000000E+00 0.  1.
</event>
<event>
12    1  0.8494789E-002  0.1976218E+03  0.7818608E-02  0.1151963E+00
         21   -1    0    0  501  502  0.00000000000E+00  0.00000000000E+00  0.52317719799E+03  0.52317719799E+03  0.00000000000E+00 0. -1.
         21   -1    0    0  502  503 -0.00000000000E+00 -0.00000000000E+00 -0.12257843706E+03  0.12257843706E+03  0.00000000000E+00 0.  1.
         -6    2    1    2    0  503 -0.88672042058E+02  0.37945999941E+02 -0.26353757115E+01  0.19669869446E+03  0.17140828814E+03 0.  0.
        -24    2    3    3    0    0  0.13185698879E+02  0.24670936468E+02  0.29190144991E+02  0.89059573010E+02  0.79353797761E+02 0.  0.
          6    2    1    2  501    0  0.88672042058E+02 -0.37945999941E+02  0.40323413664E+03  0.44905694058E+03  0.17248691828E+03 0.  0.
         24    2    5    5    0    0  0.83243771346E+02  0.33778773182E+02  0.20308439375E+03  0.23632255507E+03  0.80836551524E+02 0.  0.
          5    1    5    5  501    0  0.54282707114E+01 -0.71724773122E+02  0.20014974289E+03  0.21273438552E+03  0.47000000000E+01 0. -1.
        -11    1    6    6    0    0  0.36809944986E+02  0.15846129380E+02  0.16717567451E+02  0.43422907867E+02  0.00000000000E+00 0.  1.
         12    1    6    6    0    0  0.46433826360E+02  0.17932643802E+02  0.18636682630E+03  0.19289964720E+03  0.00000000000E+00 0. -1.
         -5    1    3    3    0  503 -0.10185774094E+03  0.13275063473E+02 -0.31825520703E+02  0.10763912145E+03  0.47000000000E+01 0.  1.
         13    1    4    4    0    0  0.40885639721E+02 -0.75332568593E+01  0.16473997280E+02  0.44718878348E+02  0.00000000000E+00 0. -1.
        -14    1    4    4    0    0 -0.27699940842E+02  0.32204193327E+02  0.12716147711E+02  0.44340694662E+02  0.00000000000E+00 0.  1.
</event>
<event>
12    1  0.8494789E-002  0.1850427E+03  0.7818608E-02  0.1163152E+00
         21   -1    0    0  503  502  0.00000000000E+00  0.00000000000E+00  0.25408381942E+03  0.25408381942E+03  0.00000000000E+00 0.  1.
         21   -1    0    0  501  503 -0.00000000000E+00 -0.00000000000E+00 -0.26537724613E+03  0.26537724613E+03  0.00000000000E+00 0. -1.
          6    2    1    2  501    0  0.28758618141E+02 -0.58847640196E+02 -0.18816577686E+03  0.26348330516E+03  0.17241516651E+03 0.  0.
         24    2    3    3    0    0  0.46794935124E+02 -0.86818729981E+01 -0.15249986684E+02  0.82475367707E+02  0.65608561274E+02 0.  0.
         -6    2    1    2    0  502 -0.28758618141E+02  0.58847640196E+02  0.17687235015E+03  0.25597776039E+03  0.17306265540E+03 0.  0.
        -24    2    5    5    0    0 -0.19762697615E+02 -0.36203561987E+02  0.68437176093E+02  0.11142349863E+03  0.77654921653E+02 0.  0.
          5    1    3    3  501    0 -0.18036316983E+02 -0.50165767198E+02 -0.17291579018E+03  0.18100793745E+03  0.47000000000E+01 0. -1.
        -13    1    4    4    0    0  0.11271715928E+02  0.25927878147E+02  0.53462366960E+01  0.28773054964E+02  0.00000000000E+00 0.  1.
         14    1    4    4    0    0  0.35523219196E+02 -0.34609751145E+02 -0.20596223380E+02  0.53702312742E+02  0.00000000000E+00 0. -1.
         -5    1    5    5    0  502 -0.89959205264E+01  0.95051202183E+02  0.10843517406E+03  0.14455426177E+03  0.47000000000E+01 0.  1.
         13    1    6    6    0    0  0.42056044577E+01 -0.89355994815E+01 -0.16400431561E+02  0.19144351708E+02  0.00000000000E+00 0. -1.
        -14    1    6    6    0    0 -0.23968302072E+02 -0.27267962505E+02  0.84837607654E+02  0.92279146918E+02  0.00000000000E+00 0.  1.
</event>
<event>
12    1  0.8494789E-002  0.1757686E+03  0.7818608E-02  0.1172008E+00
         21   -1    0    0  501  502  0.00000000000E+00  0.00000000000E+00  0.20507355984E+03  0.20507355984E+03  0.00000000000E+00 0.  1.
         21   -1    0    0  502  503 -0.00000000000E+00 -0.00000000000E+00 -0.15615596611E+03  0.15615596611E+03  0.00000000000E+00 0.  1.
         -6    2    1    2    0  503  0.19598233945E+02  0.29166803731E+02 -0.99436515052E+01  0.17586707771E+03  0.17203360021E+03 0.  0.
        -24    2    3    3    0    0  0.39229019807E+02  0.27007559417E+02 -0.68055304577E+02  0.11431153927E+03  0.78532027025E+02 0.  0.
          6    2    1    2  501    0 -0.19598233945E+02 -0.29166803731E+02  0.58861245233E+02  0.18536244824E+03  0.17222020152E+03 0.  0.
         24    2    5    5    0    0 -0.64717529545E+02 -0.19930389264E+02 -0.12992205658E+02  0.99886892713E+02  0.72270428816E+02 0.  0.
          5    1    5    5  501    0  0.45119295600E+02 -0.92364144661E+01  0.71853450891E+02  0.85475555527E+02  0.47000000000E+01 0. -1.
        -13    1    6    6    0    0 -0.23300345848E+02  0.10211063216E+02 -0.35715233152E+02  0.43849171118E+02  0.00000000000E+00 0.  1.
         14    1    6    6    0    0 -0.41417183697E+02 -0.30141452481E+02  0.22723027494E+02  0.56037721595E+02  0.00000000000E+00 0. -1.
         -5    1    3    3    0  503 -0.19630785862E+02  0.21592443136E+01  0.58111653072E+02  0.61555538438E+02  0.47000000000E+01 0.  1.
         11    1    4    4    0    0 -0.12170902781E+02 -0.90950365938E+01 -0.44843986435E+02  0.47348006130E+02  0.00000000000E+00 0. -1.
        -12    1    4    4    0    0  0.51399922588E+02  0.36102596011E+02 -0.23211318142E+02  0.66963533140E+02  0.00000000000E+00 0.  1.
</event>
<event>
12    1  0.8494789E-002  0.1742382E+03  0.7818608E-02  0.1173601E+00
         21   -1    0    0  503  502  0.00000000000E+00  0.00000000000E+00  0.65747174003E+02  0.65747174003E+02  0.00000000000E+00 0. -1.
         21   -1    0    0  501  503 -0.00000000000E+00 -0.00000000000E+00 -0.46220015660E+03  0.46220015660E+03  0.00000000000E+00 0. -1.
          6    2    1    2  501    0  0.88352323825E+01 -0.23996145478E+02 -0.18286009957E+03  0.25230105627E+03  0.17194223056E+03 0.  0.
         24    2    3    3    0    0  0.50074261714E+01  0.11248405741E+02 -0.16645020183E+02  0.82282312866E+02  0.79634925536E+02 0.  0.
         -6    2    1    2    0  502 -0.88352323825E+01  0.23996145478E+02 -0.21359288303E+03  0.27564627434E+03  0.17235159572E+03 0.  0.
        -24    2    5    5    0    0  0.55492011520E+02 -0.11877571454E+02 -0.10527337999E+03  0.14457330759E+03  0.81231254371E+02 0.  0.
          5    1    3    3  501    0  0.38278062111E+01 -0.35244551219E+02 -0.16621507939E+03  0.17001874340E+03  0.47000000000E+01 0. -1.
        -11    1    4    4    0    0  0.31515394074E+02  0.91354235959E+01 -0.36511026160E+02  0.49089011593E+02  0.00000000000E+00 0.  1.
         12    1    4    4    0    0 -0.26507967903E+02  0.21129821447E+01  0.19866005977E+02  0.33193301273E+02  0.00000000000E+00 0. -1.
         -5    1    5    5    0  502 -0.64327243902E+02  0.35873716932E+02 -0.10831950304E+03  0.13107296675E+03  0.47000000000E+01 0.  1.
         13    1    6    6    0    0  0.45941208938E+02 -0.35658402181E+02 -0.30788467951E+02  0.65803085669E+02  0.00000000000E+00 0. -1.
        -14    1    6    6    0    0  0.95508025820E+01  0.23780830727E+02 -0.74484912038E+02  0.78770221920E+02  0.00000000000E+00 0.  1.
</event>
<event>
12    1  0.8494789E-002  0.2402273E+03  0.7818608E-02  0.1119908E+00
         21   -1    0    0  503  502  0.00000000000E+00  0.00000000000E+00  0.21242268640E+03  0.21242268640E+03  0.00000000000E+00 0. -1.
         21   -1    0    0  501  503 -0.00000000000E+00 -0.00000000000E+00 -0.58919739441E+03  0.58919739441E+03  0.00000000000E+00 0. -1.
          6    2    1    2  501    0  0.97798581291E+02 -0.13425519844E+03 -0.48374388371E+03  0.54010861634E+03  0.17355158199E+03 0.  0.
         24    2    3    3    0    0  0.23517204372E+02 -0.74445031744E+01 -0.99167225024E+02  0.12838058500E+03  0.77710723559E+02 0.  0.
         -6    2    1    2    0  502 -0.97798581291E+02  0.13425519844E+03  0.10696917570E+03  0.26151146446E+03  0.17133832229E+03 0.  0.
        -24    2    5    5    0    0 -0.31994767357E+02  0.55394164416E-01  0.12643963203E+02  0.84709131029E+02  0.77408648531E+02 0.  0.
          5    1    3    3  501    0  0.74281376919E+02 -0.12681069527E+03 -0.38457665868E+03  0.41172803134E+03  0.47000000000E+01 0. -1.
        -11    1    4    4    0    0 -0.27286451958E+02 -0.72924707931E+01 -0.21172346969E+02  0.35298709139E+02  0.00000000000E+00 0.  1.
         12    1    4    4    0    0  0.50803656330E+02 -0.15203238129E+00 -0.77994878055E+02  0.93081875857E+02  0.00000000000E+00 0. -1.
         -5    1    5    5    0  502 -0.65803813933E+02  0.13419980428E+03  0.94325212494E+02  0.17680233343E+03  0.47000000000E+01 0.  1.
         11    1    6    6    0    0 -0.56209968848E+02 -0.10706796208E+01  0.19518230978E+02  0.59511917237E+02  0.00000000000E+00 0. -1.
        -12    1    6    6    0    0  0.24215201491E+02  0.11260737852E+01 -0.68742677743E+01  0.25197213791E+02  0.00000000000E+00 0.  1.
</event>
<event>
12    1  0.8494789E-002  0.1726749E+03  0.7818608E-02  0.1175166E+00
         21   -1    0    0  501  502  0.00000000000E+00  0.00000000000E+00  0.30149597169E+03  0.30149597169E+03  0.00000000000E+00 0. -1.
         21   -1    0    0  502  503 -0.00000000000E+00 -0.00000000000E+00 -0.98718598143E+02  0.98718598143E+02  0.00000000000E+00 0. -1.
         -6    2    1    2    0  503 -0.10565576188E+02 -0.86074815238E+01  0.10117477935E+03  0.20013233663E+03  0.17213627175E+03 0.  0.
        -24    2    3    3    0    0  0.26508969743E+02 -0.23206632245E+02 -0.42523160799E+01  0.87328880977E+02  0.79793345610E+02 0.  0.
          6    2    1    2  501    0  0.10565576188E+02  0.86074815238E+01  0.10160259420E+03  0.20008223320E+03  0.17182576278E+03 0.  0.
         24    2    5    5    0    0  0.17893697621E+02 -0.35690574039E+02  0.12090576556E+03  0.15098313428E+03  0.81140009855E+02 0.  0.
          5    1    5    5  501    0 -0.73281214326E+01  0.44298055563E+02 -0.19303171365E+02  0.49099098924E+02  0.47000000000E+01 0. -1.
        -11    1    6    6    0    0 -0.17565494321E+02 -0.47420229720E+02  0.51562540695E+02  0.72221329123E+02  0.00000000000E+00 0.  1.
         12    1    6    6    0    0  0.35459191942E+02  0.11729655681E+02  0.69343224870E+02  0.78761805153E+02  0.00000000000E+00 0. -1.
         -5    1    3    3    0  503 -0.37074545932E+02  0.14599150721E+02  0.10542709543E+03  0.11280345566E+03  0.47000000000E+01 0.  1.
         13    1    4    4    0    0  0.29361206376E+02 -0.50771538919E+02 -0.86019966418E+01  0.59277516398E+02  0.00000000000E+00 0. -1.
        -14    1    4    4    0    0 -0.28522366328E+01  0.27564906674E+02  0.43496805619E+01  0.28051364579E+02  0.00000000000E+00 0.  1.
</event>
<event>
12    1  0.8494789E-002  0.1749749E+03  0.7818608E-02  0.1173256E+00
         21   -1    0    0  501  502  0.00000000000E+00  0.00000000000E+00  0.37151350218E+03  0.37151350218E+03  0.00000000000E+00 0.  1.
         21   -1    0    0  502  503 -0.00000000000E+00 -0.00000000000E+00 -0.11581456066E+03  0.11581456066E+03  0.00000000000E+00 0.  1.
         -6    2    1    2    0  503  0.14261523788E+02  0.28837878555E+02 -0.43054772770E+01  0.17502784578E+03  0.17199184679E+03 0.  0.
        -24    2    3    3    0    0  0.27315171135E+02  0.52205419324E+02  0.52565491765E+02  0.11199740241E+03  0.79427720867E+02 0.  0.
          6    2    1    2  501    0 -0.14261523788E+02 -0.28837878555E+02  0.26000441880E+03  0.31230021705E+03  0.16998268582E+03 0.  0.
         24    2    5    5    0    0 -0.26348250783E+02 -0.50694809190E+02  0.26809497246E+03  0.28562885704E+03  0.80279111353E+02 0.  0.
          5    1    5    5  501    0  0.12086726995E+02  0.21856930635E+02 -0.80905536632E+01  0.26671360011E+02  0.47000000000E+01 0. -1.
        -11    1    6    6    0    0  0.24991975976E+02 -0.36563362892E+02  0.14214813239E+03  0.14888777623E+03  0.00000000000E+00 0.  1.
         12    1    6    6    0    0 -0.51340226758E+02 -0.14131446298E+02  0.12594684007E+03  0.13674108081E+03  0.00000000000E+00 0. -1.
         -5    1    3    3    0  503 -0.13053647347E+02 -0.23367540770E+02 -0.56870969042E+02  0.63030443362E+02  0.47000000000E+01 0.  1.
         11    1    4    4    0    0  0.24936633033E+02  0.15737226323E+02  0.66610793098E+02  0.72845684268E+02  0.00000000000E+00 0. -1.
        -12    1    4    4    0    0  0.23785381020E+01  0.36468193001E+02 -0.14045301333E+02  0.39151718146E+02  0.00000000000E+00 0.  1.
</event>
<event>
12    1  0.8494789E-002  0.1883030E+03  0.7818608E-02  0.1160067E+00
         21   -1    0    0  503  502  0.00000000000E+00  0.00000000000E+00  0.15431673060E+03  0.15431673060E+03  0.00000000000E+00 0. -1.
         21   -1    0    0  501  503 -0.00000000000E+00 -0.00000000000E+00 -0.36972057188E+03  0.36972057188E+03  0.00000000000E+00 0. -1.
          6    2    1    2  501    0  0.70349005287E+02 -0.34241817885E+02 -0.26905807770E+03  0.32823947684E+03  0.17096028879E+03 0.  0.
         24    2    3    3    0    0 -0.97380956563E+00  0.36860485997E+02 -0.12753065301E+03  0.15447358987E+03  0.78983408236E+02 0.  0.
         -6    2    1    2    0  502 -0.70349005287E+02  0.34241817885E+02  0.53654236422E+02  0.19579782565E+03  0.17127909039E+03 0.  0.
        -24    2    5    5    0    0 -0.86042837529E+02  0.30469561236E+02 -0.17178541848E+02  0.12299742202E+03  0.80631876275E+02 0.  0.
          5    1    3    3  501    0  0.71322814852E+02 -0.71102303882E+02 -0.14152742469E+03  0.17376588697E+03  0.47000000000E+01 0. -1.
        -11    1    4    4    0    0 -0.24849286173E+02  0.16870059396E+02 -0.81816185881E+01  0.31129163337E+02  0.00000000000E+00 0.  1.
         12    1    4    4    0    0  0.23875476607E+02  0.19990426601E+02 -0.11934903442E+03  0.12334442653E+03  0.00000000000E+00 0. -1.
         -5    1    5    5    0  502  0.15693832242E+02  0.37722566494E+01  0.70832778270E+02  0.72800403626E+02  0.47000000000E+01 0.  1.
         11    1    6    6    0    0 -0.41522907263E+02  0.14766399771E+02  0.32278019419E+02  0.54626632034E+02  0.00000000000E+00 0. -1.
        -12    1    6    6    0    0 -0.44519930266E+02  0.15703161465E+02 -0.49456561267E+02  0.68370789986E+02  0.00000000000E+00 0.  1.
</event>
<event>
12    1  0.8494789E-002  0.2044400E+03  0.7818608E-02  0.1146181E+00
         21   -1    0    0  501  502  0.00000000000E+00  0.00000000000E+00  0.15385869694E+03  0.15385869694E+03  0.00000000000E+00 0. -1.
         21   -1    0    0  502  503 -0.00000000000E+00 -0.00000000000E+00 -0.45746239305E+03  0.45746239305E+03  0.00000000000E+00 0. -1.
         -6    2    1    2    0  503  0.11132004979E+03  0.10329238669E+01 -0.34720910725E+03  0.40292663118E+03  0.17147152982E+03 0.  0.
        -24    2    3    3    0    0  0.13334891356E+03 -0.20583580221E+02 -0.19894709189E+03  0.25141339979E+03  0.73641942519E+02 0.  0.
          6    2    1    2  501    0 -0.11132004979E+03 -0.10329238669E+01  0.43605411139E+02  0.20839445882E+03  0.17068567066E+03 0.  0.
         24    2    5    5    0    0 -0.37402215410E+02 -0.56713055388E+02 -0.26530563457E+01  0.10482776968E+03  0.79790514589E+02 0.  0.
          5    1    5    5  501    0 -0.73917834380E+02  0.55680131521E+02  0.46258467484E+02  0.10356668914E+03  0.47000000000E+01 0. -1.
        -11    1    6    6    0    0 -0.48443130357E+01 -0.78930259123E+01 -0.36110512398E+02  0.37279167540E+02  0.00000000000E+00 0.  1.
         12    1    6    6    0    0 -0.32557902374E+02 -0.48820029475E+02  0.33457456053E+02  0.67548602136E+02  0.00000000000E+00 0. -1.
         -5    1    3    3    0  503 -0.22028863773E+02  0.21616504088E+02 -0.14826201536E+03  0.15151323139E+03  0.47000000000E+01 0.  1.
         11    1    4    4    0    0  0.49699133044E+02 -0.12013328984E+02 -0.13910905202E+03  0.14820813828E+03  0.00000000000E+00 0. -1.
        -12    1    4    4    0    0  0.83649780520E+02 -0.85702512368E+01 -0.59838039869E+02  0.10320526151E+03  0.00000000000E+00 0.  1.
</event>
<event>
12    1  0.8494789E-002  0.1742315E+03  0.7818608E-02  0.1173894E+00
         21   -1    0    0  503  502  0.00000000000E+00  0.00000000000E+00  0.18744705466E+03  0.18744705466E+03  0.00000000000E+00 0.  1.
         21   -1    0    0  501  503 -0.00000000000E+00 -0.00000000000E+00 -0.18569405373E+03  0.18569405373E+03  0.00000000000E+00 0.  1.
          6    2    1    2  501    0  0.61165797775E+01 -0.11792172135E+02 -0.67808918496E+02  0.18553650057E+03  0.17218965051E+03 0.  0.
         24    2    3    3    0    0  0.16345954249E+02  0.40493161433E+01 -0.11292182260E+03  0.13641566009E+03  0.74661282573E+02 0.  0.
         -6    2    1    2    0  502 -0.61165797775E+01  0.11792172135E+02  0.69561919431E+02  0.18760460782E+03  0.17372438047E+03 0.  0.
        -24    2    5    5    0    0 -0.51941999792E+02  0.55093741550E+02  0.48029007309E+02  0.12081575143E+03  0.80971405763E+02 0.  0.
          5    1    3    3  501    0 -0.10229374471E+02 -0.15841488278E+02  0.45112904106E+02  0.49120840483E+02  0.47000000000E+01 0. -1.
        -13    1    4    4    0    0 -0.16708690886E+02 -0.22978295696E+02 -0.21883540567E+02  0.35861842841E+02  0.00000000000E+00 0.  1.
         14    1    4    4    0    0  0.33054645135E+02  0.27027611839E+02 -0.91038282034E+02  0.10055381724E+03  0.00000000000E+00 0. -1.
         -5    1    5    5    0  502  0.45825420014E+02 -0.43301569415E+02  0.21532912122E+02  0.66788856389E+02  0.47000000000E+01 0.  1.
         13    1    6    6    0    0 -0.24673952795E+02 -0.16855377782E+02  0.28811513073E+02  0.41509167569E+02  0.00000000000E+00 0. -1.
        -14    1    6    6    0    0 -0.27268046997E+02  0.71949119332E+02  0.19217494236E+02  0.79306583866E+02  0.00000000000E+00 0.  1.
</event>
<event>
12    1  0.8494789E-002  0.2214719E+03  0.7818608E-02  0.1133118E+00
         21   -1    0    0  501  502  0.00000000000E+00  0.00000000000E+00  0.46799853435E+03  0.46799853435E+03  0.00000000000E+00 0. -1.
         21   -1    0    0  502  503 -0.00000000000E+00 -0.00000000000E+00 -0.11851211947E+03  0.11851211947E+03  0.00000000000E+00 0.  1.
         -6    2    1    2    0  503 -0.16834518798E+02  0.13742636984E+03  0.71421368984E+02  0.23102510147E+03  0.17059360308E+03 0.  0.
        -24    2    3    3    0    0  0.24769206380E+02  0.11645218211E+03  0.99969475241E+02  0.17618104190E+03  0.82892938433E+02 0.  0.
          6    2    1    2  501    0  0.16834518798E+02 -0.13742636984E+03  0.27806504589E+03  0.35548555235E+03  0.17285948060E+03 0.  0.
         24    2    5    5    0    0 -0.43892494893E+02 -0.40547178231E+02  0.63354696987E+02  0.11218332901E+03  0.70715322996E+02 0.  0.
          5    1    5    5  501    0  0.60727013691E+02 -0.96879191609E+02  0.21471034890E+03  0.24330222334E+03  0.47000000000E+01 0. -1.
        -13    1    6    6    0    0 -0.12864087901E+02 -0.25452575714E+02 -0.10719475670E+02  0.30466793836E+02  0.00000000000E+00 0.  1.
         14    1    6    6    0    0 -0.31028406992E+02 -0.15094602517E+02  0.74074172657E+02  0.81716535172E+02  0.00000000000E+00 0. -1.
         -5    1    3    3    0  503 -0.41603725178E+02  0.20974187735E+02 -0.28548106256E+02  0.54844059574E+02  0.47000000000E+01 0.  1.
         11    1    4    4    0    0  0.99557277829E+01  0.89207269802E+02  0.11145942765E+03  0.14310925028E+03  0.00000000000E+00 0. -1.
        -12    1    4    4    0    0  0.14813478597E+02  0.27244912303E+02 -0.11489952414E+02  0.33071791621E+02  0.00000000000E+00 0.  1.
</event>
<event>
12    1  0.8494789E-002  0.2154250E+03  0.7818608E-02  0.1137424E+00
         21   -1    0    0  501  502  0.00000000000E+00  0.00000000000E+00  0.58969857517E+03  0.58969857517E+03  0.00000000000E+00 0. -1.
         21   -1    0    0  502  503 -0.00000000000E+00 -0.00000000000E+00 -0.10595304118E+03  0.10595304118E+03  0.00000000000E+00 0. -1.
         -6    2    1    2    0  503  0.11752499927E+03  0.50874486685E+02  0.64767812045E+02  0.22453565317E+03  0.17268772747E+03 0.  0.
        -24    2    3    3    0    0  0.10098867644E+02  0.12404049552E+02  0.63642904262E+02  0.11032661803E+03  0.88688758087E+02 0.  0.
          6    2    1    2  501    0 -0.11752499927E+03 -0.50874486685E+02  0.41897772195E+03  0.47111596319E+03  0.17322696220E+03 0.  0.
         24    2    5    5    0    0 -0.10888919035E+02 -0.64135169577E+02  0.15996588127E+03  0.19065861718E+03  0.80806785609E+02 0.  0.
          5    1    5    5  501    0 -0.10663608023E+03  0.13260682891E+02  0.25901184067E+03  0.28045734600E+03  0.47000000000E+01 0. -1.
        -13    1    6    6    0    0  0.36640570088E+01 -0.77969825088E+02  0.96640558210E+02  0.12422606985E+03  0.00000000000E+00 0.  1.
         14    1    6    6    0    0 -0.14552976044E+02  0.13834655512E+02  0.63325323062E+02  0.66432547337E+02  0.00000000000E+00 0. -1.
         -5    1    3    3    0  503  0.10742613162E+03  0.38470437134E+02  0.11249077826E+01  0.11420903513E+03  0.47000000000E+01 0.  1.
         11    1    4    4    0    0  0.45788640699E+02 -0.66319228669E+01  0.48784809121E+02  0.67234958310E+02  0.00000000000E+00 0. -1.
        -12    1    4    4    0    0 -0.35689773055E+02  0.19035972418E+02  0.14858095141E+02  0.43091659725E+02  0.00000000000E+00 0.  1.
</event>
<event>
12    1  0.8494789E-002  0.3035312E+03  0.7818608E-02  0.1083587E+00
         21   -1    0    0  501  502  0.00000000000E+00  0.00000000000E+00  0.47036171874E+03  0.47036171874E+03  0.00000000000E+00 0. -1.
         21   -1    0    0  502  503 -0.00000000000E+00 -0.00000000000E+00 -0.20474990535E+03  0.20474990535E+03  0.00000000000E+00 0.  1.
         -6    2    1    2    0  503 -0.10880969700E+03  0.22412901594E+03  0.60678371573E+02  0.30953680738E+03  0.17337186739E+03 0.  0.
        -24    2    3    3    0    0 -0.75911954539E+02  0.62179328925E+02 -0.16660887244E+02  0.12701718231E+03  0.78910618112E+02 0.  0.
          6    2    1    2  501    0  0.10880969700E+03 -0.22412901594E+03  0.20493344181E+03  0.36557481671E+03  0.17197053553E+03 0.  0.
         24    2    5    5    0    0  0.98776776697E+02 -0.18307969960E+03  0.84986215020E+02  0.23831471661E+03  0.79348720140E+02 0.  0.
          5    1    5    5  501    0  0.10032920306E+02 -0.41049316334E+02  0.11994722679E+03  0.12726010010E+03  0.47000000000E+01 0. -1.
        -11    1    6    6    0    0  0.75468433667E+01 -0.19986883869E+02 -0.15255684399E+02  0.26251976651E+02  0.00000000000E+00 0.  1.
         12    1    6    6    0    0  0.91229933330E+02 -0.16309281573E+03  0.10024189942E+03  0.21206273996E+03  0.00000000000E+00 0. -1.
         -5    1    3    3    0  503 -0.32897742464E+02  0.16194968701E+03  0.77339258817E+02  0.18251962507E+03  0.47000000000E+01 0.  1.
         11    1    4    4    0    0 -0.62737155509E+02  0.65245784972E+02  0.15769832391E+02  0.91878456406E+02  0.00000000000E+00 0. -1.
        -12    1    4    4    0    0 -0.13174799030E+02 -0.30664560466E+01 -0.32430719635E+02  0.35138725904E+02  0.00000000000E+00 0.  1.
</event>
<event>
12    1  0.8494789E-002  0.2264988E+03  0.7818608E-02  0.1129440E+00
         21   -1    0    0  503  502  0.00000000000E+00  0.00000000000E+00  0.32730851016E+03  0.32730851016E+03  0.00000000000E+00 0.  1.
         21   -1    0    0  501  503 -0.00000000000E+00 -0.00000000000E+00 -0.50192778887E+03  0.50192778887E+03  0.00000000000E+00 0.  1.
          6    2    1    2  501    0 -0.10242456618E+03 -0.99467058528E+02 -0.43163994121E+03  0.48665593072E+03  0.17359858460E+03 0.  0.
         24    2    3    3    0    0 -0.13955261897E+03 -0.91517344898E+02 -0.37698381785E+03  0.41993957537E+03  0.79887985100E+02 0.  0.
         -6    2    1    2    0  502  0.10242456618E+03  0.99467058528E+02  0.25702066250E+03  0.34258036831E+03  0.17583287608E+03 0.  0.
        -24    2    5    5    0    0 -0.32773991973E+01  0.26994980421E+02  0.46523984924E+02  0.96092947009E+02  0.79560687392E+02 0.  0.
          5    1    3    3  501    0  0.37128052795E+02 -0.79497136306E+01 -0.54656123362E+02  0.66716355357E+02  0.47000000000E+01 0. -1.
        -11    1    4    4    0    0 -0.48364639369E+02 -0.54814456423E+02 -0.24305045073E+03  0.25380560391E+03  0.00000000000E+00 0.  1.
         12    1    4    4    0    0 -0.91187979603E+02 -0.36702888475E+02 -0.13393336711E+03  0.16613397146E+03  0.00000000000E+00 0. -1.
         -5    1    5    5    0  502  0.10570196537E+03  0.72472078107E+02  0.21049667757E+03  0.24648742130E+03  0.47000000000E+01 0.  1.
         11    1    6    6    0    0 -0.13113772283E+02 -0.23718688827E+02  0.81448041272E+00  0.27114767222E+02  0.00000000000E+00 0. -1.
        -12    1    6    6    0    0  0.98363730853E+01  0.50713669248E+02  0.45709504512E+02  0.68978179787E+02  0.00000000000E+00 0.  1.
</event>
<event>
12    1  0.8494789E-002  0.1815764E+03  0.7818608E-02  0.1166623E+00
         21   -1    0    0  501  502  0.00000000000E+00  0.00000000000E+00  0.82042511580E+02  0.82042511580E+02  0.00000000000E+00 0.  1.
         21   -1    0    0  502  503 -0.00000000000E+00 -0.00000000000E+00 -0.41675975829E+03  0.41675975829E+03  0.00000000000E+00 0.  1.
         -6    2    1    2    0  503 -0.15404723580E+02 -0.52032459706E+02 -0.21980504320E+03  0.28510393253E+03  0.17327813756E+03 0.  0.
        -24    2    3    3    0    0 -0.27600244434E+02 -0.25859078430E+02 -0.23570158699E+03  0.25180878693E+03  0.80137142678E+02 0.  0.
          6    2    1    2  501    0  0.15404723580E+02  0.52032459706E+02 -0.11491220351E+03  0.21369833734E+03  0.17180652634E+03 0.  0.
         24    2    5    5    0    0  0.66429303226E+02  0.64794664955E+02 -0.69002844472E+02  0.14372590807E+03  0.85349535271E+02 0.  0.
          5    1    5    5  501    0 -0.51024579646E+02 -0.12762205248E+02 -0.45909359034E+02  0.69972429269E+02  0.47000000000E+01 0. -1.
        -13    1    6    6    0    0  0.24840966471E+02  0.42306615967E+02 -0.81225946024E+02  0.94892453215E+02  0.00000000000E+00 0.  1.
         14    1    6    6    0    0  0.41588336755E+02  0.22488048988E+02  0.12223101551E+02  0.48833454853E+02  0.00000000000E+00 0. -1.
         -5    1    3    3    0  503  0.12195520854E+02 -0.26173381276E+02  0.15896543784E+02  0.33295145602E+02  0.47000000000E+01 0.  1.
         11    1    4    4    0    0 -0.30699273971E+02  0.19332712731E+02 -0.15572243768E+03  0.15989270402E+03  0.00000000000E+00 0. -1.
        -12    1    4    4    0    0  0.30990295367E+01 -0.45191791162E+02 -0.79979149312E+02  0.91916082908E+02  0.00000000000E+00 0.  1.
</event>
<event>
12    1  0.8494789E-002  0.1811073E+03  0.7818608E-02  0.1166822E+00
         21   -1    0    0  503  502  0.00000000000E+00  0.00000000000E+00  0.26158639186E+02  0.26158639186E+02  0.00000000000E+00 0. -1.
         21   -1    0    0  501  503 -0.00000000000E+00 -0.00000000000E+00 -0.13135581666E+04  0.13135581666E+04  0.00000000000E+00 0.  1.
          6    2    1    2  501    0 -0.40447760256E+02  0.39751394134E+02 -0.79003296364E+03  0.81052571887E+03  0.17199901934E+03 0.  0.
         24    2    3    3    0    0  0.34603282527E+02  0.66187694348E+01 -0.54956042985E+03  0.55640063283E+03  0.79522342072E+02 0.  0.
         -6    2    1    2    0  502  0.40447760256E+02 -0.39751394134E+02 -0.49736656377E+03  0.52919108692E+03  0.17162025834E+03 0.  0.
        -24    2    5    5    0    0  0.62334205294E+02  0.20697155562E+01 -0.16682947602E+03  0.19526762552E+03  0.80047077628E+02 0.  0.
          5    1    3    3  501    0 -0.75051042782E+02  0.33132624700E+02 -0.24047253380E+03  0.25412508604E+03  0.47000000000E+01 0. -1.
        -11    1    4    4    0    0 -0.14811044559E+01 -0.18015421896E+02 -0.40448955272E+03  0.40489325428E+03  0.00000000000E+00 0.  1.
         12    1    4    4    0    0  0.36084386982E+02  0.24634191330E+02 -0.14507087713E+03  0.15150737855E+03  0.00000000000E+00 0. -1.
         -5    1    5    5    0  502 -0.21886445038E+02 -0.41821109690E+02 -0.33053708775E+03  0.33392346140E+03  0.47000000000E+01 0.  1.
         11    1    6    6    0    0  0.67259343773E+02  0.26915184343E+02 -0.14387592657E+03  0.16108547023E+03  0.00000000000E+00 0. -1.
        -12    1    6    6    0    0 -0.49251384786E+01 -0.24845468787E+02 -0.22953549453E+02  0.34182155297E+02  0.00000000000E+00 0.  1.
</event>
<event>
12    1  0.8494789E-002  0.2301086E+03  0.7818608E-02  0.1127171E+00
         21   -1    0    0  501  502  0.00000000000E+00  0.00000000000E+00  0.15969852848E+03  0.15969852848E+03  0.00000000000E+00 0. -1.
         21   -1    0    0  502  503 -0.00000000000E+00 -0.00000000000E+00 -0.12410889406E+04  0.12410889406E+04  0.00000000000E+00 0. -1.
         -6    2    1    2    0  503  0.61985048876E+02 -0.13537640125E+03 -0.11408247654E+04  0.11631271927E+04  0.17092338801E+03 0.  0.
        -24    2    3    3    0    0  0.10392717227E+03 -0.70223210294E+02 -0.79897765320E+03  0.81257674244E+03  0.78635333246E+02 0.  0.
          6    2    1    2  501    0 -0.61985048876E+02  0.13537640125E+03  0.59434353308E+02  0.23766027644E+03  0.17544528590E+03 0.  0.
         24    2    5    5    0    0 -0.59798371242E+02  0.43603597982E+02 -0.27625117248E+02  0.11105668094E+03  0.78059722773E+02 0.  0.
          5    1    5    5  501    0 -0.21866776338E+01  0.91772803266E+02  0.87059470556E+02  0.12660359549E+03  0.47000000000E+01 0. -1.
        -11    1    6    6    0    0 -0.50920311299E+02  0.52664404609E+02 -0.47622919985E+02  0.87374825456E+02  0.00000000000E+00 0.  1.
         12    1    6    6    0    0 -0.88780599423E+01 -0.90608066270E+01  0.19997802737E+02  0.23681855489E+02  0.00000000000E+00 0. -1.
         -5    1    3    3    0  503 -0.41942123399E+02 -0.65153190955E+02 -0.34184711225E+03  0.35055045023E+03  0.47000000000E+01 0.  1.
         11    1    4    4    0    0  0.14806514638E+02 -0.48639225385E+02 -0.18788873021E+03  0.19464629989E+03  0.00000000000E+00 0. -1.
        -12    1    4    4    0    0  0.89120657636E+02 -0.21583984909E+02 -0.61108892299E+03  0.61793044254E+03  0.00000000000E+00 0.  1.
</event>
<event>
12    1  0.8494789E-002  0.1760500E+03  0.7818608E-02  0.1172063E+00
         21   -1    0    0  503  502  0.00000000000E+00  0.00000000000E+00  0.69548110470E+03  0.69548110470E+03  0.00000000000E+00 0.  1.
         21   -1    0    0  501  503 -0.00000000000E+00 -0.00000000000E+00 -0.10064338561E+03  0.10064338561E+03  0.00000000000E+00 0.  1.
          6    2    1    2  501    0  0.18673738053E+02  0.31652420603E+02 -0.13032575916E+01  0.17453164302E+03  0.17061363284E+03 0.  0.
         24    2    3    3    0    0  0.54377058621E+02 -0.96566209420E+01  0.37331896901E+02  0.10747995269E+03  0.84309874105E+02 0.  0.
         -6    2    1    2    0  502 -0.18673738053E+02 -0.31652420603E+02  0.59614097668E+03  0.62159284730E+03  0.17217148285E+03 0.  0.
        -24    2    5    5    0    0  0.21076527476E+02 -0.78363242706E+02  0.35221310088E+03  0.37002797872E+03  0.79256663964E+02 0.  0.
          5    1    3    3  501    0 -0.35703320568E+02  0.41309041545E+02 -0.38635154492E+02  0.67051690326E+02  0.47000000000E+01 0. -1.
        -11    1    4    4    0    0  0.21411551904E+02  0.11216427385E+02 -0.24467663636E+02  0.34393740158E+02  0.00000000000E+00 0.  1.
         12    1    4    4    0    0  0.32965506717E+02 -0.20873048327E+02  0.61799560537E+02  0.73086212531E+02  0.00000000000E+00 0. -1.
         -5    1    5    5    0  502 -0.39750265529E+02  0.46710822102E+02  0.24392787580E+03  0.25156486858E+03  0.47000000000E+01 0.  1.
         13    1    6    6    0    0 -0.12090249928E+02 -0.70451630350E+02  0.29399002683E+03  0.30255535400E+03  0.00000000000E+00 0. -1.
        -14    1    6    6    0    0  0.33166777404E+02 -0.79116123557E+01  0.58223074059E+02  0.67472624718E+02  0.00000000000E+00 0.  1.
</event>
<event>
12    1  0.8494789E-002  0.2349495E+03  0.7818608E-02  0.1123423E+00
         21   -1    0    0  501  502  0.00000000000E+00  0.00000000000E+00  0.59753338972E+02  0.59753338972E+02  0.00000000000E+00 0. -1.
         21   -1    0    0  502  503 -0.00000000000E+00 -0.00000000000E+00 -0.12690291473E+04  0.12690291473E+04  0.00000000000E+00 0.  1.
         -6    2    1    2    0  503  0.62978210037E+02  0.14838651445E+03 -0.25440949191E+03  0.34543568429E+03  0.16916503715E+03 0.  0.
        -24    2    3    3    0    0  0.10212224301E+03  0.10400107476E+03 -0.13941555709E+03  0.21602155206E+03  0.77352681440E+02 0.  0.
          6    2    1    2  501    0 -0.62978210037E+02 -0.14838651445E+03 -0.95486631639E+03  0.98334680196E+03  0.17092816659E+03 0.  0.
         24    2    5    5    0    0  0.29133670483E+01 -0.10546638149E+03 -0.78516185914E+03  0.79624915218E+03  0.80012011322E+02 0.  0.
          5    1    5    5  501    0 -0.65891577085E+02 -0.42920132965E+02 -0.16970445725E+03  0.18709764978E+03  0.47000000000E+01 0. -1.
        -13    1    6    6    0    0  0.41030774834E+02 -0.44719061518E+02 -0.36428290552E+03  0.36930387786E+03  0.00000000000E+00 0.  1.
         14    1    6    6    0    0 -0.38117407785E+02 -0.60747319972E+02 -0.42087895362E+03  0.42694527431E+03  0.00000000000E+00 0. -1.
         -5    1    3    3    0  503 -0.39144032976E+02  0.44385439691E+02 -0.11499393482E+03  0.12941413223E+03  0.47000000000E+01 0.  1.
         11    1    4    4    0    0  0.52386789471E+02  0.39593009787E+02 -0.11258703682E+03  0.13033734305E+03  0.00000000000E+00 0. -1.
        -12    1    4    4    0    0  0.49735453542E+02  0.64408064977E+02 -0.26828520273E+02  0.85684209007E+02  0.00000000000E+00 0.  1.
</event>
<event>
12    1  0.8494789E-002  0.1909194E+03  0.7818608E-02  0.1157832E+00
         21   -1    0    0  501  502  0.00000000000E+00  0.00000000000E+00  0.13678603079E+04  0.13678603079E+04  0.00000000000E+00 0. -1.
         21   -1    0    0  502  503 -0.00000000000E+00 -0.00000000000E+00 -0.90393216408E+02  0.90393216408E+02  0.00000000000E+00 0. -1.
         -6    2    1    2    0  503  0.58487370872E+02  0.58782481484E+02  0.26283867469E+02  0.19272015295E+03  0.17197111089E+03 0.  0.
        -24    2    3    3    0    0 -0.18423041860E+02 -0.78569382410E+01  0.35185113613E+02  0.90458987146E+02  0.80893115811E+02 0.  0.
          6    2    1    2  501    0 -0.58487370872E+02 -0.58782481484E+02  0.12511832240E+04  0.12655333713E+04  0.17099444807E+03 0.  0.
         24    2    5    5    0    0  0.21642275669E+01 -0.42860653290E+02  0.10276242331E+04  0.10332989350E+04  0.99264319611E+02 0.  0.
          5    1    5    5  501    0 -0.60651598439E+02 -0.15921828195E+02  0.22355899086E+03  0.23223443630E+03  0.47000000000E+01 0. -1.
        -13    1    6    6    0    0  0.28297848419E+02 -0.27961983881E+02  0.15081246421E+03  0.15597127982E+03  0.00000000000E+00 0.  1.
         14    1    6    6    0    0 -0.26133620852E+02 -0.14898669409E+02  0.87681176890E+03  0.87732765519E+03  0.00000000000E+00 0. -1.
         -5    1    3    3    0  503  0.76910412732E+02  0.66639419725E+02 -0.89012461443E+01  0.10226116580E+03  0.47000000000E+01 0.  1.
         11    1    4    4    0    0 -0.23649471547E+02  0.33491503544E+02  0.23125111486E+02  0.47071744129E+02  0.00000000000E+00 0. -1.
        -12    1    4    4    0    0  0.52264296876E+01 -0.41348441785E+02  0.12060002127E+02  0.43387243017E+02  0.00000000000E+00 0.  1.
</event>
<event>
12    1  0.8494789E-002  0.1808527E+03  0.7818608E-02  0.1167205E+00
         21   -1    0    0  501  502  0.00000000000E+00  0.00000000000E+00  0.57613381624E+03  0.57613381624E+03  0.00000000000E+00 0. -1.
         21   -1    0    0  502  503 -0.00000000000E+00 -0.00000000000E+00 -0.13113346212E+03  0.13113346212E+03  0.00000000000E+00 0. -1.
         -6    2    1    2    0  503  0.27744488845E+02 -0.41990102194E+02 -0.44570266909E+02  0.18536011884E+03  0.17273951378E+03 0.  0.
        -24    2    3    3    0    0 -0.44978440356E+02  0.28181442695E+01 -0.39733161542E+01  0.90667955529E+02  0.78574098052E+02 0.  0.
          6    2    1    2  501    0 -0.27744488845E+02  0.41990102194E+02  0.48957062103E+03  0.52190715951E+03  0.17370885074E+03 0.  0.
         24    2    5    5    0    0 -0.53504367901E+02 -0.23835406566E+02  0.38399212767E+03  0.39476362946E+03  0.70409694239E+02 0.  0.
          5    1    5    5  501    0  0.25759879056E+02  0.65825508760E+02  0.10557849336E+03  0.12714353005E+03  0.47000000000E+01 0. -1.
        -13    1    6    6    0    0 -0.14634799975E+02  0.57408451518E+01  0.12527156831E+02  0.20101351487E+02  0.00000000000E+00 0.  1.
         14    1    6    6    0    0 -0.38869567926E+02 -0.29576251718E+02  0.37146497084E+03  0.37466227798E+03  0.00000000000E+00 0. -1.
         -5    1    3    3    0  503  0.72722929200E+02 -0.44808246463E+02 -0.40596950755E+02  0.94692163315E+02  0.47000000000E+01 0.  1.
         11    1    4    4    0    0 -0.46094652050E+02  0.45010953836E+01  0.30938934080E+02  0.55697346878E+02  0.00000000000E+00 0. -1.
        -12    1    4    4    0    0  0.11162116944E+01 -0.16829511141E+01 -0.34912250234E+02  0.34970608651E+02  0.00000000000E+00 0.  1.
</event>
<event>
12    1  0.8494789E-002  0.2560333E+03  0.7818608E-02  0.1109621E+00
         21   -1    0    0  501  502  0.00000000000E+00  0.00000000000E+00  0.49768876676E+03  0.49768876676E+03  0.00000000000E+00 0. -1.
         21   -1    0    0  502  503 -0.00000000000E+00 -0.00000000000E+00 -0.15516207254E+03  0.15516207254E+03  0.00000000000E+00 0. -1.
         -6    2    1    2    0  503 -0.17785307382E+03  0.67102007639E+02  0.43860751178E+02  0.25976296047E+03  0.17151861369E+03 0.  0.
        -24    2    3    3    0    0 -0.18842324695E+03  0.64453382521E+02  0.74269406101E+02  0.22712065556E+03  0.80064280373E+02 0.  0.
          6    2    1    2  501    0  0.17785307382E+03 -0.67102007639E+02  0.29866594304E+03  0.39308787884E+03  0.17082839244E+03 0.  0.
         24    2    5    5    0    0  0.38539013175E+02 -0.22430291920E+02  0.18476175916E+03  0.20761490835E+03  0.83538428207E+02 0.  0.
          5    1    5    5  501    0  0.13931406064E+03 -0.44671715719E+02  0.11390418387E+03  0.18547297049E+03  0.47000000000E+01 0. -1.
        -11    1    6    6    0    0 -0.17276347823E+02  0.11493794458E+02  0.14667217122E+02  0.25410760777E+02  0.00000000000E+00 0.  1.
         12    1    6    6    0    0  0.55815360999E+02 -0.33924086378E+02  0.17009454204E+03  0.18220414757E+03  0.00000000000E+00 0. -1.
         -5    1    3    3    0  503  0.10570173133E+02  0.26486251183E+01 -0.30408654923E+02  0.32642304902E+02  0.47000000000E+01 0.  1.
         13    1    4    4    0    0 -0.79988315807E+02 -0.74140502504E+01  0.69118586707E+01  0.80627988918E+02  0.00000000000E+00 0. -1.
        -14    1    4    4    0    0 -0.10843493114E+03  0.71867432771E+02  0.67357547430E+02  0.14649266665E+03  0.00000000000E+00 0.  1.
</event>
<event>
12    1  0.8494789E-002  0.1742526E+03  0.7818608E-02  0.1173560E+00
         21   -1    0    0  501  502  0.00000000000E+00  0.00000000000E+00  0.44587036011E+02  0.44587036011E+02  0.00000000000E+00 0. -1.
         21   -1    0    0  502  503 -0.00000000000E+00 -0.00000000000E+00 -0.83339459401E+03  0.83339459401E+03  0.00000000000E+00 0. -1.
         -6    2    1    2    0  503  0.26496100245E+02 -0.24988266862E+01 -0.58256490437E+03  0.60798160963E+03  0.17190544604E+03 0.  0.
        -24    2    3    3    0    0  0.56019881954E+02 -0.36863155672E+02 -0.52921251750E+03  0.53783085783E+03  0.68549424019E+02 0.  0.
          6    2    1    2  501    0 -0.26496100245E+02  0.24988266862E+01 -0.20624265363E+03  0.27000002039E+03  0.17220827905E+03 0.  0.
         24    2    5    5    0    0  0.45491267488E+02  0.15415116262E+02 -0.14835170430E+03  0.17660588962E+03  0.82911584537E+02 0.  0.
          5    1    5    5  501    0 -0.71987367733E+02 -0.12916289576E+02 -0.57890949321E+02  0.93394130773E+02  0.47000000000E+01 0. -1.
        -13    1    6    6    0    0  0.57947871418E+01  0.20930834312E+02 -0.13124503850E+03  0.13302984445E+03  0.00000000000E+00 0.  1.
         14    1    6    6    0    0  0.39696480346E+02 -0.55157180500E+01 -0.17106665801E+02  0.43576045166E+02  0.00000000000E+00 0. -1.
         -5    1    3    3    0  503 -0.29523781709E+02  0.34364328986E+02 -0.53352386867E+02  0.70150751796E+02  0.47000000000E+01 0.  1.
         11    1    4    4    0    0  0.67152284986E+02 -0.22193836436E+02 -0.31567194256E+03  0.32349771418E+03  0.00000000000E+00 0. -1.
        -12    1    4    4    0    0 -0.11132403032E+02 -0.14669319237E+02 -0.21354057494E+03  0.21433314366E+03  0.00000000000E+00 0.  1.
</event>
<event>
12    1  0.8494789E-002  0.1797297E+03  0.7818608E-02  0.1168204E+00
         21   -1    0    0  501  502  0.00000000000E+00  0.00000000000E+00  0.63188732587E+02  0.63188732587E+02  0.00000000000E+00 0. -1.
         21   -1    0    0  502  503 -0.00000000000E+00 -0.00000000000E+00 -0.13397913281E+04  0.13397913281E+04  0.00000000000E+00 0. -1.
         -6    2    1    2    0  503 -0.39746478060E+02 -0.27720996559E+02 -0.11901131920E+04  0.12035228530E+04  0.17248075792E+03 0.  0.
        -24    2    3    3    0    0  0.64450218179E+01 -0.18458714400E+02 -0.10757013547E+04  0.10797020025E+04  0.90778560791E+02 0.  0.
          6    2    1    2  501    0  0.39746478060E+02  0.27720996559E+02 -0.86489403494E+02  0.19945720763E+03  0.17307375477E+03 0.  0.
         24    2    5    5    0    0  0.73051737483E+01 -0.38200244255E+01 -0.11927082136E+03  0.14338595307E+03  0.79158351178E+02 0.  0.
          5    1    5    5  501    0  0.32441304311E+02  0.31541020984E+02  0.32781417863E+02  0.56071254554E+02  0.47000000000E+01 0. -1.
        -13    1    6    6    0    0  0.14824072838E+02  0.22174308719E+02 -0.11232542073E+03  0.11544892050E+03  0.00000000000E+00 0.  1.
         14    1    6    6    0    0 -0.75188990893E+01 -0.25994333145E+02 -0.69454006300E+01  0.27937032575E+02  0.00000000000E+00 0. -1.
         -5    1    3    3    0  503 -0.46191499877E+02 -0.92622821584E+01 -0.11441183725E+03  0.12382085057E+03  0.47000000000E+01 0.  1.
         13    1    4    4    0    0 -0.89276275013E+01  0.26337812404E+02 -0.75603232356E+03  0.75654362541E+03  0.00000000000E+00 0. -1.
        -14    1    4    4    0    0  0.15372649319E+02 -0.44796526804E+02 -0.31966903117E+03  0.32315837704E+03  0.00000000000E+00 0.  1.
</event>
<event>
12    1  0.8494789E-002  0.1992376E+03  0.7818608E-02  0.1150465E+00
         21   -1    0    0  503  502  0.00000000000E+00  0.00000000000E+00  0.30579540490E+03  0.30579540490E+03  0.00000000000E+00 0.  1.
         21   -1    0    0  501  503 -0.00000000000E+00 -0.00000000000E+00 -0.16253017019E+03  0.16253017019E+03  0.00000000000E+00 0.  1.
          6    2    1    2  501    0 -0.47577750071E+02 -0.87812580870E+02 -0.33775594536E+02  0.20208022238E+03  0.17239760390E+03 0.  0.
         24    2    3    3    0    0 -0.77471264753E+02 -0.54860045948E+02 -0.71420108142E+02  0.14361064754E+03  0.80695506287E+02 0.  0.
         -6    2    1    2    0  502  0.47577750071E+02  0.87812580870E+02  0.17704082925E+03  0.26624535271E+03  0.17195476429E+03 0.  0.
        -24    2    5    5    0    0  0.92932040552E+02  0.43366778741E+02  0.90155850457E+02  0.15852566774E+03  0.80531163537E+02 0.  0.
          5    1    3    3  501    0  0.29893514682E+02 -0.32952534922E+02  0.37644513607E+02  0.58469574845E+02  0.47000000000E+01 0. -1.
        -13    1    4    4    0    0 -0.93687747982E+01 -0.55320204555E+02 -0.26703624948E+02  0.62138414517E+02  0.00000000000E+00 0.  1.
         14    1    4    4    0    0 -0.68102489955E+02  0.46015860724E+00 -0.44716483195E+02  0.81472233020E+02  0.00000000000E+00 0. -1.
         -5    1    5    5    0  502 -0.45354290482E+02  0.44445802129E+02  0.86884978789E+02  0.10771968498E+03  0.47000000000E+01 0.  1.
         13    1    6    6    0    0 -0.12899018594E+02  0.12802775023E+02  0.38285836185E+01  0.18572931419E+02  0.00000000000E+00 0. -1.
        -14    1    6    6    0    0  0.10583105915E+03  0.30564003718E+02  0.86327266838E+02  0.13995273632E+03  0.00000000000E+00 0.  1.
</event>
<event>
12    1  0.8494789E-002  0.1956161E+03  0.7818608E-02  0.1153820E+00
         21   -1    0    0  501  502  0.00000000000E+00  0.00000000000E+00  0.32173893742E+02  0.32173893742E+02  0.00000000000E+00 0.  1.
         21   -1    0    0  502  503 -0.00000000000E+00 -0.00000000000E+00 -0.11841263296E+04  0.11841263296E+04  0.00000000000E+00 0. -1.
         -6    2    1    2    0  503  0.76743949978E+02  0.47304035184E+02 -0.60884085114E+03  0.63903436968E+03  0.17190240839E+03 0.  0.
        -24    2    3    3    0    0  0.46759396655E+02  0.84451448326E+02 -0.27894508948E+03  0.30566924357E+03  0.79402992525E+02 0.  0.
          6    2    1    2  501    0 -0.76743949978E+02 -0.47304035184E+02 -0.54311158475E+03  0.57726585370E+03  0.17360405166E+03 0.  0.
         24    2    5    5    0    0 -0.74814795985E+02  0.76541176147E+01 -0.21058458914E+03  0.24018958191E+03  0.87688806921E+02 0.  0.
          5    1    5    5  501    0 -0.19291539938E+01 -0.54958152799E+02 -0.33252699561E+03  0.33707627179E+03  0.47000000000E+01 0. -1.
        -13    1    6    6    0    0  0.74897708537E+01  0.27517541585E+02 -0.34153838286E+02  0.44494903438E+02  0.00000000000E+00 0.  1.
         14    1    6    6    0    0 -0.82304566838E+02 -0.19863423971E+02 -0.17643075086E+03  0.19569467847E+03  0.00000000000E+00 0. -1.
         -5    1    3    3    0  503  0.29984553324E+02 -0.37147413141E+02 -0.32989576166E+03  0.33336512610E+03  0.47000000000E+01 0.  1.
         11    1    4    4    0    0  0.90226459416E+01  0.85256776990E+02 -0.17046386103E+03  0.19080894654E+03  0.00000000000E+00 0. -1.
        -12    1    4    4    0    0  0.37736750713E+02 -0.80532866406E+00 -0.10848122845E+03  0.11486029703E+03  0.00000000000E+00 0.  1.
</event>
<event>
12    1  0.8494789E-002  0.2485501E+03  0.7818608E-02  0.1115833E+00
         21   -1    0    0  501  502  0.00000000000E+00  0.00000000000E+00  0.12137086349E+03  0.12137086349E+03  0.00000000000E+00 0.  1.
         21   -1    0    0  502  503 -0.00000000000E+00 -0.00000000000E+00 -0.71344710232E+03  0.71344710232E+03  0.00000000000E+00 0. -1.
         -6    2    1    2    0  503 -0.97756550517E+02 -0.13491886101E+03 -0.57810375699E+02  0.24556661558E+03  0.17088440807E+03 0.  0.
        -24    2    3    3    0    0 -0.74107362343E+02 -0.14667530098E+03  0.75973785716E+01  0.17487176215E+03  0.59303186806E+02 0.  0.
          6    2    1    2  501    0  0.97756550517E+02  0.13491886101E+03 -0.53426586313E+03  0.58925135023E+03  0.18443887610E+03 0.  0.
         24    2    5    5    0    0 -0.49424565047E+00  0.10457885966E+03 -0.22106029939E+03  0.25956430198E+03  0.86999935219E+02 0.  0.
          5    1    5    5  501    0  0.98250796168E+02  0.30340001356E+02 -0.31320556374E+03  0.32968704825E+03  0.47000000000E+01 0. -1.
        -13    1    6    6    0    0 -0.11432669794E+02 -0.11089348037E+01  0.27519926625E+01  0.11811398674E+02  0.00000000000E+00 0.  1.
         14    1    6    6    0    0  0.10938424144E+02  0.10568779446E+03 -0.22381229205E+03  0.24775290330E+03  0.00000000000E+00 0. -1.
         -5    1    3    3    0  503 -0.23649188174E+02  0.11756439969E+02 -0.65407754270E+02  0.70694853425E+02  0.47000000000E+01 0.  1.
         11    1    4    4    0    0  0.46224138312E+01 -0.40054317376E+01 -0.92101931157E+01  0.11056122750E+02  0.00000000000E+00 0. -1.
        -12    1    4    4    0    0 -0.78729776174E+02 -0.14266986924E+03  0.16807571687E+02  0.16381563940E+03  0.00000000000E+00 0.  1.
</event>
<event>
12    1  0.8494789E-002  0.1832897E+03  0.7818608E-02  0.1165650E+00
         21   -1    0    0  501  502  0.00000000000E+00  0.00000000000E+00  0.17788580658E+03  0.17788580658E+03  0.00000000000E+00 0. -1.
         21   -1    0    0  502  503 -0.00000000000E+00 -0.00000000000E+00 -0.18601486733E+03  0.18601486733E+03  0.00000000000E+00 0. -1.
         -6    2    1    2    0  503 -0.23568430493E+02  0.45499589380E+02 -0.19861579107E+02  0.18023587876E+03  0.17165315644E+03 0.  0.
        -24    2    3    3    0    0  0.69635908743E+01 -0.26168077197E+02 -0.48139329207E+02  0.97228771158E+02  0.80017367255E+02 0.  0.
          6    2    1    2  501    0  0.23568430493E+02 -0.45499589380E+02  0.11732518360E+02  0.18366479515E+03  0.17598130991E+03 0.  0.
         24    2    5    5    0    0  0.48713551223E+02 -0.35521782730E+02 -0.52652940237E+02  0.11366900241E+03  0.80706275295E+02 0.  0.
          5    1    5    5  501    0 -0.25145120730E+02 -0.99778066497E+01  0.64385458597E+02  0.69995792736E+02  0.47000000000E+01 0. -1.
        -13    1    6    6    0    0  0.35346298836E+02  0.18562179792E+02 -0.40049504131E+02  0.56549784626E+02  0.00000000000E+00 0.  1.
         14    1    6    6    0    0  0.13367252387E+02 -0.54083962522E+02 -0.12603436105E+02  0.57119217783E+02  0.00000000000E+00 0. -1.
         -5    1    3    3    0  503 -0.30532021367E+02  0.71667666577E+02  0.28277750100E+02  0.83007107600E+02  0.47000000000E+01 0.  1.
         11    1    4    4    0    0 -0.10325609949E+01  0.26781216174E+02 -0.25877256743E+01  0.26925750614E+02  0.00000000000E+00 0. -1.
        -12    1    4    4    0    0  0.79961518692E+01 -0.52949293371E+02 -0.45551603533E+02  0.70303020544E+02  0.00000000000E+00 0.  1.
</event>
<event>
12    1  0.8494789E-002  0.1871072E+03  0.7818608E-02  0.1161527E+00
         21   -1    0    0  501  502  0.00000000000E+00  0.00000000000E+00  0.26028263627E+03  0.26028263627E+03  0.00000000000E+00 0. -1.
         21   -1    0    0  502  503 -0.00000000000E+00 -0.00000000000E+00 -0.16095876576E+03  0.16095876576E+03  0.00000000000E+00 0. -1.
         -6    2    1    2    0  503  0.62030350051E+02 -0.38772327935E+02 -0.38058539653E+02  0.18911417837E+03  0.17019007691E+03 0.  0.
        -24    2    3    3    0    0  0.22244815924E+02 -0.29716558549E+02 -0.88169681161E+02  0.12432133781E+03  0.79397711996E+02 0.  0.
          6    2    1    2  501    0 -0.62030350051E+02  0.38772327935E+02  0.13738241016E+03  0.23212722366E+03  0.17221516658E+03 0.  0.
         24    2    5    5    0    0 -0.15773357411E+01  0.71258438821E+02  0.12290588327E+03  0.16183089253E+03  0.77479858950E+02 0.  0.
          5    1    5    5  501    0 -0.60453014309E+02 -0.32486110886E+02  0.14476526892E+02  0.70296331131E+02  0.47000000000E+01 0. -1.
        -13    1    6    6    0    0  0.27214474113E+02  0.34438306636E+01  0.55792647424E+02  0.62171593815E+02  0.00000000000E+00 0.  1.
         14    1    6    6    0    0 -0.28791809855E+02  0.67814608158E+02  0.67113235843E+02  0.99659298711E+02  0.00000000000E+00 0. -1.
         -5    1    3    3    0  503  0.39785534126E+02 -0.90557693860E+01  0.50111141508E+02  0.64792840562E+02  0.47000000000E+01 0.  1.
         11    1    4    4    0    0  0.29127710080E+02 -0.30841236425E+01  0.26663742221E+01  0.29411645052E+02  0.00000000000E+00 0. -1.
        -12    1    4    4    0    0 -0.68828941557E+01 -0.26632434907E+02 -0.90836055383E+02  0.94909692754E+02  0.00000000000E+00 0.  1.
</event>
<event>
12    1  0.8494789E-002  0.2687756E+03  0.7818608E-02  0.1102310E+00
         21   -1    0    0  503  502  0.00000000000E+00  0.00000000000E+00  0.12892663347E+03  0.12892663347E+03  0.00000000000E+00 0.  1.
         21   -1    0    0  501  503 -0.00000000000E+00 -0.00000000000E+00 -0.65877213386E+03  0.65877213386E+03  0.00000000000E+00 0.  1.
          6    2    1    2  501    0 -0.11922058633E+03  0.16539631478E+03 -0.41983064824E+03  0.49727909369E+03  0.17163692691E+03 0.  0.
         24    2    3    3    0    0 -0.81261012001E+02  0.11920043156E+03 -0.40254732170E+03  0.43486281148E+03  0.79052031225E+02 0.  0.
         -6    2    1    2    0  502  0.11922058633E+03 -0.16539631478E+03 -0.11001485216E+03  0.29041967363E+03  0.17513089388E+03 0.  0.
        -24    2    5    5    0    0  0.99236603819E+02 -0.18829796969E+03 -0.12102877082E+03  0.25775100732E+03  0.80520739434E+02 0.  0.
          5    1    3    3  501    0 -0.37959574326E+02  0.46195883222E+02 -0.17283326535E+02  0.62416282217E+02  0.47000000000E+01 0. -1.
        -13    1    4    4    0    0 -0.90477478495E+02  0.11753389712E+03 -0.33111218911E+03  0.36281630733E+03  0.00000000000E+00 0.  1.
         14    1    4    4    0    0  0.92164664938E+01  0.16665344445E+01 -0.71435132590E+02  0.72046504147E+02  0.00000000000E+00 0. -1.
         -5    1    5    5    0  502  0.19983982508E+02  0.22901654908E+02  0.11013918668E+02  0.32668666315E+02  0.47000000000E+01 0.  1.
         11    1    6    6    0    0  0.26981167707E+02 -0.13013267183E+03 -0.54695825344E+02  0.14371544453E+03  0.00000000000E+00 0. -1.
        -12    1    6    6    0    0  0.72255436112E+02 -0.58165297864E+02 -0.66332945479E+02  0.11403556278E+03  0.00000000000E+00 0.  1.
</event>
<event>
12    1  0.8494789E-002  0.1766697E+03  0.7818608E-02  0.1171621E+00
         21   -1    0    0  503  502  0.00000000000E+00  0.00000000000E+00  0.12036311290E+03  0.12036311290E+03  0.00000000000E+00 0. -1.
         21   -1    0    0  501  503 -0.00000000000E+00 -0.00000000000E+00 -0.31258697986E+03  0.31258697986E+03  0.00000000000E+00 0.  1.
          6    2    1    2  501    0  0.39657571255E+02  0.81402296822E+00 -0.18766665529E+03  0.25622158575E+03  0.16987448868E+03 0.  0.
         24    2    3    3    0    0  0.77052460813E+01  0.30965206167E+02 -0.19263328044E+03  0.21176034085E+03  0.81955148804E+02 0.  0.
         -6    2    1    2    0  502 -0.39657571255E+02 -0.81402296822E+00 -0.45572116741E+01  0.17672850702E+03  0.17215926180E+03 0.  0.
        -24    2    5    5    0    0 -0.73472478465E+01  0.50354045468E+02  0.39082782228E+02  0.10197111746E+03  0.79253599181E+02 0.  0.
          5    1    3    3  501    0  0.31952325174E+02 -0.30151183199E+02  0.49666251515E+01  0.44461244896E+02  0.47000000000E+01 0. -1.
        -13    1    4    4    0    0  0.35494432668E+02  0.44582234072E+02 -0.12674093945E+03  0.13896293059E+03  0.00000000000E+00 0.  1.
         14    1    4    4    0    0 -0.27789186587E+02 -0.13617027905E+02 -0.65892340989E+02  0.72797410264E+02  0.00000000000E+00 0. -1.
         -5    1    5    5    0  502 -0.32310323409E+02 -0.51168068436E+02 -0.43639993902E+02  0.74757389561E+02  0.47000000000E+01 0.  1.
         11    1    6    6    0    0 -0.16151955316E+02  0.13584376287E+02  0.56522135914E+02  0.60333844465E+02  0.00000000000E+00 0. -1.
        -12    1    6    6    0    0  0.88047074700E+01  0.36769669181E+02 -0.17439353687E+02  0.41637272993E+02  0.00000000000E+00 0.  1.
</event>
<event>
12    1  0.8494789E-002  0.2335794E+03  0.7818608E-02  0.1124667E+00
         21   -1    0    0  501  502  0.00000000000E+00  0.00000000000E+00  0.15124416028E+03  0.15124416028E+03  0.00000000000E+00 0. -1.
         21   -1    0    0  502  503 -0.00000000000E+00 -0.00000000000E+00 -0.40673698861E+03  0.40673698861E+03  0.00000000000E+00 0.  1.
         -6    2    1    2    0  503  0.14583614654E+03 -0.67295236023E+02 -0.22544347045E+03  0.32247678194E+03  0.16543786173E+03 0.  0.
        -24    2    3    3    0    0  0.85736278499E+02 -0.18013714241E+02 -0.21288331923E+03  0.24360657257E+03  0.79684698905E+02 0.  0.
          6    2    1    2  501    0 -0.14583614654E+03  0.67295236023E+02 -0.30049357888E+02  0.23550436695E+03  0.16959514296E+03 0.  0.
         24    2    5    5    0    0 -0.17250854496E+03  0.74380418704E+02 -0.36996810570E+02  0.20666041178E+03  0.77769640817E+02 0.  0.
          5    1    5    5  501    0  0.26672398423E+02 -0.70851826814E+01  0.69474526821E+01  0.28843955174E+02  0.47000000000E+01 0.  1.
        -13    1    6    6    0    0 -0.74202900271E+02  0.16206055561E+02 -0.51132651304E+02  0.91560115087E+02  0.00000000000E+00 0.  1.
         14    1    6    6    0    0 -0.98305644689E+02  0.58174363143E+02  0.14135840734E+02  0.11510029669E+03  0.00000000000E+00 0. -1.
         -5    1    3    3    0  503  0.60099868038E+02 -0.49281521782E+02 -0.12560151215E+02  0.78870209368E+02  0.47000000000E+01 0.  1.
         13    1    4    4    0    0  0.79449718510E+01  0.23482975345E+02 -0.21202652153E+02  0.32620931426E+02  0.00000000000E+00 0. -1.
        -14    1    4    4    0    0  0.77791306648E+02 -0.41496689585E+02 -0.19168066708E+03  0.21098564114E+03  0.00000000000E+00 0.  1.
</event>
<event>
12    1  0.8494789E-002  0.2215817E+03  0.7818608E-02  0.1132726E+00
         21   -1    0    0  503  502  0.00000000000E+00  0.00000000000E+00  0.10673256399E+03  0.10673256399E+03  0.00000000000E+00 0.  1.
         21   -1    0    0  501  503 -0.00000000000E+00 -0.00000000000E+00 -0.48032946659E+03  0.48032946659E+03  0.00000000000E+00 0.  1.
          6    2    1    2  501    0 -0.13881111629E+03  0.17102321861E+02 -0.12612264712E+03  0.25488440460E+03  0.17175017372E+03 0.  0.
         24    2    3    3    0    0 -0.44692142649E+02 -0.20274567292E+02  0.24598238618E+01  0.91143893769E+02  0.76764008132E+02 0.  0.
         -6    2    1    2    0  502  0.13881111629E+03 -0.17102321861E+02 -0.24747425548E+03  0.33217762597E+03  0.17186463468E+03 0.  0.
        -24    2    5    5    0    0  0.62138315233E+02 -0.23339683527E+01 -0.22999660601E+03  0.25202539008E+03  0.82168977357E+02 0.  0.
          5    1    3    3  501    0 -0.94118973643E+02  0.37376889153E+02 -0.12858247099E+03  0.16374051083E+03  0.47000000000E+01 0. -1.
        -13    1    4    4    0    0 -0.51701848333E+02 -0.41980219674E+02  0.94990107330E+01  0.67272960169E+02  0.00000000000E+00 0.  1.
         14    1    4    4    0    0  0.70097056843E+01  0.21705652383E+02 -0.70391868712E+01  0.23870933600E+02  0.00000000000E+00 0. -1.
         -5    1    5    5    0  502  0.76672801059E+02 -0.14768353509E+02 -0.17477649466E+02  0.80152235892E+02  0.47000000000E+01 0.  1.
         11    1    6    6    0    0  0.29050820869E+02  0.28991623961E+02 -0.42541141058E+02  0.59111869667E+02  0.00000000000E+00 0. -1.
        -12    1    6    6    0    0  0.33087494364E+02 -0.31325592313E+02 -0.18745546495E+03  0.19291352041E+03  0.00000000000E+00 0.  1.
</event>
<event>
12    1  0.8494789E-002  0.2937320E+03  0.7818608E-02  0.1088478E+00
         21   -1    0    0  503  502  0.00000000000E+00  0.00000000000E+00  0.40417395799E+03  0.40417395799E+03  0.00000000000E+00 0. -1.
         21   -1    0    0  501  503 -0.00000000000E+00 -0.00000000000E+00 -0.47598556001E+03  0.47598556001E+03  0.00000000000E+00 0.  1.
          6    2    1    2  501    0 -0.11341275565E+03 -0.20922169907E+03 -0.36295739976E+03  0.46692244377E+03  0.17216945706E+03 0.  0.
         24    2    3    3    0    0  0.41440052151E+01 -0.92770319475E+02 -0.12024208646E+03  0.17313114174E+03  0.83022454369E+02 0.  0.
         -6    2    1    2    0  502  0.11341275565E+03  0.20922169907E+03  0.29114579774E+03  0.41323707423E+03  0.17135586207E+03 0.  0.
        -24    2    5    5    0    0  0.12137802643E+03  0.16331419973E+03  0.15458450053E+03  0.26886941188E+03  0.83607653426E+02 0.  0.
          5    1    3    3  501    0 -0.11755676087E+03 -0.11645137960E+03 -0.24271531330E+03  0.29379130203E+03  0.47000000000E+01 0. -1.
        -11    1    4    4    0    0 -0.30621069773E+02 -0.78059000872E+02 -0.99281850637E+02  0.12995285067E+03  0.00000000000E+00 0.  1.
         12    1    4    4    0    0  0.34765074989E+02 -0.14711318603E+02 -0.20960235819E+02  0.43178291068E+02  0.00000000000E+00 0. -1.
         -5    1    5    5    0  502 -0.79652707737E+01  0.45907499349E+02  0.13656129721E+03  0.14436766234E+03  0.47000000000E+01 0.  1.
         13    1    6    6    0    0  0.73337128833E+02  0.32342024320E+02  0.63560873237E+02  0.10229528635E+03  0.00000000000E+00 0. -1.
        -14    1    6    6    0    0  0.48040897594E+02  0.13097217541E+03  0.91023627293E+02  0.16657412554E+03  0.00000000000E+00 0.  1.
</event>
<event>
12    1  0.8494789E-002  0.2330083E+03  0.7818608E-02  0.1126840E+00
         21   -1    0    0  501  502  0.00000000000E+00  0.00000000000E+00  0.14333576001E+03  0.14333576001E+03  0.00000000000E+00 0.  1.
         21   -1    0    0  502  503 -0.00000000000E+00 -0.00000000000E+00 -0.40957872576E+03  0.40957872576E+03  0.00000000000E+00 0.  1.
         -6    2    1    2    0  503  0.75838819489E+01 -0.13679836515E+03 -0.23440198644E+03  0.33051041787E+03  0.18847158168E+03 0.  0.
        -24    2    3    3    0    0 -0.33428834726E+02 -0.12697695689E+03 -0.24238242733E+03  0.28733310408E+03  0.81058232436E+02 0.  0.
          6    2    1    2  501    0 -0.75838819489E+01  0.13679836515E+03 -0.31840979318E+02  0.22240406790E+03  0.17227423917E+03 0.  0.
         24    2    5    5    0    0 -0.29497298470E+02  0.68576255254E+02 -0.79655609166E+02  0.13613250289E+03  0.81328032495E+02 0.  0.
          5    1    5    5  501    0  0.21913416521E+02  0.68222109893E+02  0.47814629848E+02  0.86271565010E+02  0.47000000000E+01 0. -1.
        -11    1    6    6    0    0 -0.54508578927E+02  0.27690478858E+02 -0.34089976203E+02  0.70000530523E+02  0.00000000000E+00 0.  1.
         12    1    6    6    0    0  0.25011280457E+02  0.40885776396E+02 -0.45565632963E+02  0.66131972366E+02  0.00000000000E+00 0. -1.
         -5    1    3    3    0  503  0.41012716675E+02 -0.98214082575E+01  0.79804408984E+01  0.43177313791E+02  0.47000000000E+01 0.  1.
         11    1    4    4    0    0 -0.41787362625E+02 -0.76156827187E+02 -0.84202633635E+02  0.12097987235E+03  0.00000000000E+00 0. -1.
        -12    1    4    4    0    0  0.83585278986E+01 -0.50820129702E+02 -0.15817979370E+03  0.16635323173E+03  0.00000000000E+00 0.  1.
</event>
<event>
12    1  0.8494789E-002  0.2298514E+03  0.7818608E-02  0.1126793E+00
         21   -1    0    0  501  502  0.00000000000E+00  0.00000000000E+00  0.32042031176E+03  0.32042031176E+03  0.00000000000E+00 0.  1.
         21   -1    0    0  502  503 -0.00000000000E+00 -0.00000000000E+00 -0.16474589392E+03  0.16474589392E+03  0.00000000000E+00 0. -1.
         -6    2    1    2    0  503  0.14859846733E+03  0.29250587087E+02  0.73097070161E+02  0.24093131293E+03  0.17253293757E+03 0.  0.
        -24    2    3    3    0    0  0.35325242804E+02  0.64414439896E+02  0.14623495254E+02  0.10861136394E+03  0.78647879295E+02 0.  0.
          6    2    1    2  501    0 -0.14859846733E+03 -0.29250587087E+02  0.82577347672E+02  0.24423489275E+03  0.17290044289E+03 0.  0.
         24    2    5    5    0    0 -0.15541141179E+03  0.20193211519E+02  0.82537838324E+02  0.19410309651E+03  0.79391716297E+02 0.  0.
          5    1    5    5  501    0  0.68129444605E+01 -0.49443798606E+02  0.39509348287E-01  0.50131796235E+02  0.47000000000E+01 0. -1.
        -11    1    6    6    0    0 -0.15414107499E+01  0.21321456118E+02  0.14670649954E+02  0.25926982242E+02  0.00000000000E+00 0.  1.
         12    1    6    6    0    0 -0.15387000104E+03 -0.11282445987E+01  0.67867188370E+02  0.16817611427E+03  0.00000000000E+00 0. -1.
         -5    1    3    3    0  503  0.11327322452E+03 -0.35163852810E+02  0.58473574906E+02  0.13231994899E+03  0.47000000000E+01 0.  1.
         11    1    4    4    0    0 -0.22569321368E+02  0.27278860175E+02  0.18058833601E+02  0.39744583914E+02  0.00000000000E+00 0. -1.
        -12    1    4    4    0    0  0.57894564172E+02  0.37135579721E+02 -0.34353383466E+01  0.68866780028E+02  0.00000000000E+00 0.  1.
</event>
<event>
12    1  0.8494789E-002  0.1763097E+03  0.7818608E-02  0.1173161E+00
         21   -1    0    0  501  502  0.00000000000E+00  0.00000000000E+00  0.19135269710E+03  0.19135269710E+03  0.00000000000E+00 0. -1.
         21   -1    0    0  502  503 -0.00000000000E+00 -0.00000000000E+00 -0.21101147218E+03  0.21101147218E+03  0.00000000000E+00 0. -1.
         -6    2    1    2    0  503  0.27382232154E+02  0.25979942694E+02 -0.11220163916E+03  0.20324290317E+03  0.16520812874E+03 0.  0.
        -24    2    3    3    0    0  0.52481543063E+02  0.85710776745E+01 -0.13315522767E+03  0.16590409145E+03  0.83463028765E+02 0.  0.
          6    2    1    2  501    0 -0.27382232154E+02 -0.25979942694E+02  0.92542864082E+02  0.19912126610E+03  0.17222181296E+03 0.  0.
         24    2    5    5    0    0 -0.14444002900E+01 -0.72415134406E+02  0.31621970227E+02  0.11811235634E+03  0.87775519006E+02 0.  0.
          5    1    5    5  501    0 -0.25937831864E+02  0.46435191712E+02  0.60920893855E+02  0.81008909752E+02  0.47000000000E+01 0. -1.
        -13    1    6    6    0    0  0.91487978296E+01  0.38537984480E+00 -0.24128210286E+02  0.25807354590E+02  0.00000000000E+00 0.  1.
         14    1    6    6    0    0 -0.10593198120E+02 -0.72800514250E+02  0.55750180513E+02  0.92305001754E+02  0.00000000000E+00 0. -1.
         -5    1    3    3    0  503 -0.25099310909E+02  0.17408865019E+02  0.20953588508E+02  0.37338811721E+02  0.47000000000E+01 0.  1.
         13    1    4    4    0    0 -0.88304830766E+01  0.23135883596E+02 -0.79075570286E+02  0.82862490653E+02  0.00000000000E+00 0. -1.
        -14    1    4    4    0    0  0.61312026140E+02 -0.14564805922E+02 -0.54079657384E+02  0.83041600801E+02  0.00000000000E+00 0.  1.
</event>
<event>
12    1  0.8494789E-002  0.4139345E+03  0.7818608E-02  0.1039061E+00
         21   -1    0    0  503  502  0.00000000000E+00  0.00000000000E+00  0.61637603613E+03  0.61637603613E+03  0.00000000000E+00 0. -1.
         21   -1    0    0  501  503 -0.00000000000E+00 -0.00000000000E+00 -0.29510446097E+03  0.29510446097E+03  0.00000000000E+00 0.  1.
          6    2    1    2  501    0 -0.37253749609E+03  0.53103490127E+02  0.27046568815E+03  0.49443968496E+03  0.17237965930E+03 0.  0.
         24    2    3    3    0    0 -0.21818454967E+03 -0.55979676250E+01  0.89671107568E+02  0.24953263407E+03  0.81177539839E+02 0.  0.
         -6    2    1    2    0  502  0.37253749609E+03 -0.53103490127E+02  0.50805887008E+02  0.41704081213E+03  0.17244603264E+03 0.  0.
        -24    2    5    5    0    0  0.36734073062E+03 -0.69412982551E+02  0.21603830955E+02  0.38286690407E+03  0.79768202960E+02 0.  0.
          5    1    3    3  501    0 -0.15435294642E+03  0.58701457752E+02  0.18079458059E+03  0.24490705090E+03  0.47000000000E+01 0. -1.
        -13    1    4    4    0    0 -0.77230539575E+02  0.36905503820E+02  0.30588995982E+02  0.90896969864E+02  0.00000000000E+00 0.  1.
         14    1    4    4    0    0 -0.14095401010E+03 -0.42503471446E+02  0.59082111586E+02  0.15863566420E+03  0.00000000000E+00 0. -1.
         -5    1    5    5    0  502  0.51967654714E+01  0.16309492424E+02  0.29202056053E+02  0.34173908062E+02  0.47000000000E+01 0.  1.
         13    1    6    6    0    0  0.32546022428E+02  0.12034842042E+01  0.24399693809E+02  0.40694434608E+02  0.00000000000E+00 0. -1.
        -14    1    6    6    0    0  0.33479470819E+03 -0.70616466755E+02 -0.27958628546E+01  0.34217246946E+03  0.00000000000E+00 0.  1.
</event>
<event>
12    1  0.8494789E-002  0.1810534E+03  0.7818608E-02  0.1166921E+00
         21   -1    0    0  501  502  0.00000000000E+00  0.00000000000E+00  0.34845284818E+03  0.34845284818E+03  0.00000000000E+00 0. -1.
         21   -1    0    0  502  503 -0.00000000000E+00 -0.00000000000E+00 -0.12036668079E+03  0.12036668079E+03  0.00000000000E+00 0. -1.
         -6    2    1    2    0  503  0.10199270872E+01 -0.51804046142E+02  0.40243146200E+01  0.18109811279E+03  0.17348092661E+03 0.  0.
        -24    2    3    3    0    0 -0.40767830972E+01 -0.36936110454E+02 -0.65741824041E+02  0.10942917900E+03  0.79195084270E+02 0.  0.
          6    2    1    2  501    0 -0.10199270872E+01  0.51804046142E+02  0.22406185276E+03  0.28772141618E+03  0.17290228460E+03 0.  0.
         24    2    5    5    0    0  0.28503964889E+02 -0.32961449553E+02  0.11376056404E+03  0.14543538823E+03  0.79442136474E+02 0.  0.
          5    1    5    5  501    0 -0.29523891976E+02  0.84765495696E+02  0.11030128872E+03  0.14228602795E+03  0.47000000000E+01 0. -1.
        -11    1    6    6    0    0  0.53045324923E+02 -0.11128360971E+02  0.50139339224E+02  0.73834952779E+02  0.00000000000E+00 0.  1.
         12    1    6    6    0    0 -0.24541360035E+02 -0.21833088583E+02  0.63621224819E+02  0.71600435452E+02  0.00000000000E+00 0. -1.
         -5    1    3    3    0  503  0.50967101843E+01 -0.14867935689E+02  0.69766138661E+02  0.71668933786E+02  0.47000000000E+01 0.  1.
         11    1    4    4    0    0  0.18644376314E+02  0.17247147248E+02 -0.69966436411E+01  0.26344446826E+02  0.00000000000E+00 0. -1.
        -12    1    4    4    0    0 -0.22721159411E+02 -0.54183257702E+02 -0.58745180400E+02  0.83084732174E+02  0.00000000000E+00 0.  1.
</event>
<event>
12    1  0.8494789E-002  0.2516335E+03  0.7818608E-02  0.1112481E+00
         21   -1    0    0  503  502  0.00000000000E+00  0.00000000000E+00  0.21584562844E+04  0.21584562844E+04  0.00000000000E+00 0.  1.
         21   -1    0    0  501  503 -0.00000000000E+00 -0.00000000000E+00 -0.34999148597E+02  0.34999148597E+02  0.00000000000E+00 0.  1.
          6    2    1    2  501    0  0.91060258979E+02  0.15852262706E+03  0.15064727982E+04  0.15271303734E+04  0.17101313327E+03 0.  0.
         24    2    3    3    0    0  0.68868125275E+02  0.17857365576E+03  0.10882603847E+04  0.11078235080E+04  0.79566895882E+02 0.  0.
         -6    2    1    2    0  502 -0.91060258979E+02 -0.15852262706E+03  0.61698433768E+03  0.66632505962E+03  0.17291043369E+03 0.  0.
        -24    2    5    5    0    0  0.89056609793E+01 -0.40099990893E+02  0.30942617247E+03  0.32189622677E+03  0.78646707073E+02 0.  0.
          5    1    3    3  501    0  0.22192133703E+02 -0.20051028696E+02  0.41821241350E+03  0.41930686538E+03  0.47000000000E+01 0. -1.
        -13    1    4    4    0    0  0.55932619546E+02  0.61855883902E+02  0.32234187456E+03  0.33295479032E+03  0.00000000000E+00 0.  1.
         14    1    4    4    0    0  0.12935505729E+02  0.11671777186E+03  0.76591851010E+03  0.77486871771E+03  0.00000000000E+00 0. -1.
         -5    1    5    5    0  502 -0.99965919958E+02 -0.11842263617E+03  0.30755816521E+03  0.34442883285E+03  0.47000000000E+01 0.  1.
         11    1    6    6    0    0  0.24481881200E+02 -0.58714751219E+02  0.24248439375E+03  0.25068997931E+03  0.00000000000E+00 0. -1.
        -12    1    6    6    0    0 -0.15576220221E+02  0.18614760326E+02  0.66941778719E+02  0.71206247453E+02  0.00000000000E+00 0.  1.
</event>
<event>
12    1  0.8494789E-002  0.2736301E+03  0.7818608E-02  0.1099315E+00
         21   -1    0    0  503  502  0.00000000000E+00  0.00000000000E+00  0.23620270362E+04  0.23620270362E+04  0.00000000000E+00 0. -1.
         21   -1    0    0  501  503 -0.00000000000E+00 -0.00000000000E+00 -0.32052037718E+02  0.32052037718E+02  0.00000000000E+00 0.  1.
          6    2    1    2  501    0  0.68505099549E+02 -0.20085878563E+03  0.10274828042E+04  0.10632941110E+04  0.17273173752E+03 0.  0.
         24    2    3    3    0    0  0.59669697796E+02 -0.16338395667E+03  0.99303420146E+03  0.10114171088E+04  0.81196382521E+02 0.  0.
         -6    2    1    2    0  502 -0.68505099549E+02  0.20085878563E+03  0.13024921942E+04  0.13307849629E+04  0.17165518025E+03 0.  0.
        -24    2    5    5    0    0  0.75023095996E+01  0.16577349680E+03  0.97278063764E+03  0.99057928347E+03  0.86069802972E+02 0.  0.
          5    1    3    3  501    0  0.88354017527E+01 -0.37474828965E+02  0.34448602765E+02  0.51877002251E+02  0.47000000000E+01 0. -1.
        -13    1    4    4    0    0 -0.83312004132E+01 -0.95526728030E+02  0.49386579620E+03  0.50308864957E+03  0.00000000000E+00 0.  1.
         14    1    4    4    0    0  0.68000898209E+02 -0.67857228638E+02  0.49916840526E+03  0.50832845921E+03  0.00000000000E+00 0. -1.
         -5    1    5    5    0  502 -0.76007409148E+02  0.35085288831E+02  0.32971155659E+03  0.34020567938E+03  0.47000000000E+01 0.  1.
         11    1    6    6    0    0 -0.23213504311E+02  0.99365646873E+02  0.38620767992E+03  0.39946059955E+03  0.00000000000E+00 0. -1.
        -12    1    6    6    0    0  0.30715813911E+02  0.66407849929E+02  0.58657295772E+03  0.59111868393E+03  0.00000000000E+00 0.  1.
</event>
<event>
12    1  0.8494789E-002  0.1963693E+03  0.7818608E-02  0.1153777E+00
         21   -1    0    0  503  502  0.00000000000E+00  0.00000000000E+00  0.15737776836E+03  0.15737776836E+03  0.00000000000E+00 0. -1.
         21   -1    0    0  501  503 -0.00000000000E+00 -0.00000000000E+00 -0.26890853127E+03  0.26890853127E+03  0.00000000000E+00 0. -1.
          6    2    1    2  501    0  0.22121100167E+02  0.95088302754E+02  0.15030241928E+02  0.19266566606E+03  0.16541772068E+03 0.  0.
         24    2    3    3    0    0 -0.95107452662E+01  0.43907799853E+02  0.67122024289E+02  0.11294326449E+03  0.78945966875E+02 0.  0.
         -6    2    1    2    0  502 -0.22121100167E+02 -0.95088302754E+02 -0.12656100485E+03  0.23362063357E+03  0.17038129031E+03 0.  0.
        -24    2    5    5    0    0 -0.16010310802E+02 -0.26105907760E+02  0.53752258531E+01  0.84539543093E+02  0.78614202416E+02 0.  0.
          5    1    3    3  501    0  0.31631845433E+02  0.51180502901E+02 -0.52091782361E+02  0.79722401571E+02  0.47000000000E+01 0. -1.
        -11    1    4    4    0    0 -0.65446722434E+01  0.37681895262E+02 -0.66754901371E+01  0.38824220969E+02  0.00000000000E+00 0.  1.
         12    1    4    4    0    0 -0.29660730229E+01  0.62259045913E+01  0.73797514426E+02  0.74119043522E+02  0.00000000000E+00 0. -1.
         -5    1    5    5    0  502 -0.61107893648E+01 -0.68982394994E+02 -0.13193623070E+03  0.14908109047E+03  0.47000000000E+01 0.  1.
         11    1    6    6    0    0  0.91139180784E+01 -0.20360651693E+02 -0.32080156447E+02  0.39073726182E+02  0.00000000000E+00 0. -1.
        -12    1    6    6    0    0 -0.25124228881E+02 -0.57452560670E+01  0.37455382300E+02  0.45465816911E+02  0.00000000000E+00 0.  1.
</event>
<event>
12    1  0.8494789E-002  0.2530350E+03  0.7818608E-02  0.1111711E+00
         21   -1    0    0  501  502  0.00000000000E+00  0.00000000000E+00  0.75483949773E+03  0.75483949773E+03  0.00000000000E+00 0.  1.
         21   -1    0    0  502  503 -0.00000000000E+00 -0.00000000000E+00 -0.12333098293E+03  0.12333098293E+03  0.00000000000E+00 0.  1.
         -6    2    1    2    0  503  0.14695376719E+03 -0.11241111656E+03  0.69143093919E+02  0.26231179424E+03  0.17261240147E+03 0.  0.
        -24    2    3    3    0    0  0.40197345637E+02 -0.10376707992E+03  0.74651180479E+02  0.15496151743E+03  0.77825700553E+02 0.  0.
          6    2    1    2  501    0 -0.14695376719E+03  0.11241111656E+03  0.56236542089E+03  0.61585868642E+03  0.16969203344E+03 0.  0.
         24    2    5    5    0    0 -0.12007660486E+03  0.98011312549E+02  0.55768244981E+03  0.58465361586E+03  0.82374312123E+02 0.  0.
          5    1    5    5  501    0 -0.26877162328E+02  0.14399804014E+02  0.46829710814E+01  0.31205070559E+02  0.47000000000E+01 0. -1.
        -11    1    6    6    0    0 -0.84354604732E+02  0.42607823270E+02  0.20329805129E+03  0.22419015055E+03  0.00000000000E+00 0.  1.
         12    1    6    6    0    0 -0.35722000129E+02  0.55403489279E+02  0.35438439851E+03  0.36046346531E+03  0.00000000000E+00 0. -1.
         -5    1    3    3    0  503  0.10675642155E+03 -0.86440366425E+01 -0.55080865602E+01  0.10735027680E+03  0.47000000000E+01 0.  1.
         13    1    4    4    0    0 -0.30999219572E+01  0.11894825643E+02  0.64879422772E+01  0.13899272938E+02  0.00000000000E+00 0. -1.
        -14    1    4    4    0    0  0.43297267594E+02 -0.11566190556E+03  0.68163238202E+02  0.14106224449E+03  0.00000000000E+00 0.  1.
</event>
<event>
12    1  0.8494789E-002  0.1776286E+03  0.7818608E-02  0.1170219E+00
         21   -1    0    0  503  502  0.00000000000E+00  0.00000000000E+00  0.28411219817E+03  0.28411219817E+03  0.00000000000E+00 0. -1.
         21   -1    0    0  501  503 -0.00000000000E+00 -0.00000000000E+00 -0.11418755061E+03  0.11418755061E+03  0.00000000000E+00 0. -1.
          6    2    1    2  501    0  0.26851508474E+01 -0.43038130206E+02  0.11936363772E+03  0.21400837150E+03  0.17231486986E+03 0.  0.
         24    2    3    3    0    0  0.87871584685E+01  0.44808932007E+02  0.97910660871E+02  0.12325231907E+03  0.59326065965E+02 0.  0.
         -6    2    1    2    0  502 -0.26851508474E+01  0.43038130206E+02  0.50561009837E+02  0.18429137728E+03  0.17189358725E+03 0.  0.
        -24    2    5    5    0    0  0.39892958054E+02 -0.12658718832E+02 -0.10865032532E+02  0.90962480198E+02  0.80027698999E+02 0.  0.
          5    1    3    3  501    0 -0.61020076211E+01 -0.87847062213E+02  0.21452976853E+02  0.90756052428E+02  0.47000000000E+01 0. -1.
        -13    1    4    4    0    0  0.20705966436E+02 -0.68785144001E+01  0.28911822060E+02  0.36220773891E+02  0.00000000000E+00 0.  1.
         14    1    4    4    0    0 -0.11918807967E+02  0.51687446407E+02  0.68998838811E+02  0.87031545181E+02  0.00000000000E+00 0. -1.
         -5    1    5    5    0  502 -0.42578108901E+02  0.55696849038E+02  0.61426042369E+02  0.93328897087E+02  0.47000000000E+01 0.  1.
         11    1    6    6    0    0 -0.13926229134E+02  0.22174902418E+02 -0.39675561357E+01  0.26484101964E+02  0.00000000000E+00 0. -1.
        -12    1    6    6    0    0  0.53819187188E+02 -0.34833621250E+02 -0.68974763962E+01  0.64478378233E+02  0.00000000000E+00 0.  1.
</event>
<event>
12    1  0.8494789E-002  0.2530071E+03  0.7818608E-02  0.1111495E+00
         21   -1    0    0  503  502  0.00000000000E+00  0.00000000000E+00  0.47729949142E+03  0.47729949142E+03  0.00000000000E+00 0. -1.
         21   -1    0    0  501  503 -0.00000000000E+00 -0.00000000000E+00 -0.13396117965E+03  0.13396117965E+03  0.00000000000E+00 0. -1.
          6    2    1    2  501    0 -0.17007884605E+03  0.74173192449E+02  0.16319738673E+03  0.30107474021E+03  0.17200039477E+03 0.  0.
         24    2    3    3    0    0 -0.15965522745E+03  0.65426502358E+02  0.72108402688E+02  0.20885516839E+03  0.93007745705E+02 0.  0.
         -6    2    1    2    0  502  0.17007884605E+03 -0.74173192449E+02  0.18014092504E+03  0.31018593087E+03  0.17127779332E+03 0.  0.
        -24    2    5    5    0    0  0.18453621951E+03 -0.35870148602E+02  0.17543447690E+03  0.26870847351E+03  0.78017332554E+02 0.  0.
          5    1    3    3  501    0 -0.10423618603E+02  0.87466900914E+01  0.91088984045E+02  0.92219571821E+02  0.47000000000E+01 0. -1.
        -11    1    4    4    0    0  0.39944810052E+01  0.16174351251E+02 -0.98118701656E+01  0.19334898837E+02  0.00000000000E+00 0.  1.
         12    1    4    4    0    0 -0.16364970845E+03  0.49252151106E+02  0.81920272853E+02  0.18952026955E+03  0.00000000000E+00 0. -1.
         -5    1    5    5    0  502 -0.14457373456E+02 -0.38303043847E+02  0.47064481368E+01  0.41477457362E+02  0.47000000000E+01 0.  1.
         11    1    6    6    0    0  0.30192858973E+02 -0.26044830105E+02  0.77994082980E+01  0.40629701918E+02  0.00000000000E+00 0. -1.
        -12    1    6    6    0    0  0.15434336054E+03 -0.98253184970E+01  0.16763506860E+03  0.22807877159E+03  0.00000000000E+00 0.  1.
</event>
<event>
12    1  0.8494789E-002  0.1852687E+03  0.7818608E-02  0.1163147E+00
         21   -1    0    0  501  502  0.00000000000E+00  0.00000000000E+00  0.22099272817E+04  0.22099272817E+04  0.00000000000E+00 0. -1.
         21   -1    0    0  502  503 -0.00000000000E+00 -0.00000000000E+00 -0.17942756980E+02  0.17942756980E+02  0.00000000000E+00 0. -1.
         -6    2    1    2    0  503 -0.63403703942E+02  0.23822118384E+02  0.67347369389E+03  0.69809892908E+03  0.17084430170E+03 0.  0.
        -24    2    3    3    0    0 -0.40210952907E+02 -0.30594631610E+02  0.57677174593E+03  0.58464213942E+03  0.81165461040E+02 0.  0.
          6    2    1    2  501    0  0.63403703942E+02 -0.23822118384E+02  0.15185108308E+04  0.15297711096E+04  0.17244414000E+03 0.  0.
         24    2    5    5    0    0  0.71708872270E+02 -0.76021520511E+02  0.97624773744E+03  0.98491782123E+03  0.77987407700E+02 0.  0.
          5    1    5    5  501    0 -0.83051683276E+01  0.52199402128E+02  0.54226309334E+03  0.54485328833E+03  0.47000000000E+01 0. -1.
        -11    1    6    6    0    0 -0.39872818608E+01  0.13758052036E+01  0.19904633205E+01  0.46640326785E+01  0.00000000000E+00 0.  1.
         12    1    6    6    0    0  0.75696154131E+02 -0.77397325715E+02  0.97425727412E+03  0.98025378855E+03  0.00000000000E+00 0. -1.
         -5    1    3    3    0  503 -0.23192751035E+02  0.54416749994E+02  0.96701947954E+02  0.11345678965E+03  0.47000000000E+01 0.  1.
         11    1    4    4    0    0 -0.61190506347E+01  0.13353945659E+02  0.18575910016E+02  0.23681956808E+02  0.00000000000E+00 0. -1.
        -12    1    4    4    0    0 -0.34091902273E+02 -0.43948577270E+02  0.55819583592E+03  0.56096018262E+03  0.00000000000E+00 0.  1.
</event>
<event>
12    1  0.8494789E-002  0.1746410E+03  0.7818608E-02  0.1173713E+00
         21   -1    0    0  503  502  0.00000000000E+00  0.00000000000E+00  0.32355073231E+02  0.32355073231E+02  0.00000000000E+00 0. -1.
         21   -1    0    0  501  503 -0.00000000000E+00 -0.00000000000E+00 -0.93744517017E+03  0.93744517017E+03  0.00000000000E+00 0. -1.
          6    2    1    2  501    0 -0.19346577035E+02  0.14859159800E+02 -0.40473225086E+03  0.43984037526E+03  0.17045901604E+03 0.  0.
         24    2    3    3    0    0  0.10795252010E+01  0.36314529745E+02 -0.10298655029E+03  0.13660759939E+03  0.82070068993E+02 0.  0.
         -6    2    1    2    0  502  0.19346577035E+02 -0.14859159800E+02 -0.50035784608E+03  0.52995986814E+03  0.17292889589E+03 0.  0.
        -24    2    5    5    0    0 -0.68985778782E+01 -0.54608727951E+02 -0.44856084453E+03  0.45943430048E+03  0.82724492540E+02 0.  0.
          5    1    3    3  501    0 -0.20426102236E+02 -0.21455369945E+02 -0.30174570057E+03  0.30323277587E+03  0.47000000000E+01 0. -1.
        -11    1    4    4    0    0  0.20889756081E+02  0.23962839634E+02 -0.10812662356E+03  0.11270300047E+03  0.00000000000E+00 0.  1.
         12    1    4    4    0    0 -0.19810230880E+02  0.12351690111E+02  0.51400732707E+01  0.23904598917E+02  0.00000000000E+00 0. -1.
         -5    1    5    5    0  502  0.26245154913E+02  0.39749568151E+02 -0.51797001558E+02  0.70525567669E+02  0.47000000000E+01 0.  1.
         13    1    6    6    0    0  0.31923844302E+02 -0.26860290706E+02 -0.11220642776E+03  0.11971169317E+03  0.00000000000E+00 0. -1.
        -14    1    6    6    0    0 -0.38822422181E+02 -0.27748437245E+02 -0.33635441677E+03  0.33972260731E+03  0.00000000000E+00 0.  1.
</event>
<event>
12    1  0.8494789E-002  0.1728560E+03  0.7818608E-02  0.1175023E+00
         21   -1    0    0  501  502  0.00000000000E+00  0.00000000000E+00  0.29229349104E+02  0.29229349104E+02  0.00000000000E+00 0.  1.
         21   -1    0    0  502  503 -0.00000000000E+00 -0.00000000000E+00 -0.13179256327E+04  0.13179256327E+04  0.00000000000E+00 0.  1.
         -6    2    1    2    0  503 -0.58161078530E-01 -0.15061060570E+02 -0.96422535789E+03  0.97951306083E+03  0.17172203296E+03 0.  0.
        -24    2    3    3    0    0  0.47045603158E+02  0.38809255259E+02 -0.59516123067E+03  0.60354604693E+03  0.79570680587E+02 0.  0.
          6    2    1    2  501    0  0.58161078530E-01  0.15061060570E+02 -0.32447092569E+03  0.36764192096E+03  0.17219861063E+03 0.  0.
         24    2    5    5    0    0  0.38805276388E+02 -0.17610089558E+02 -0.29087794115E+03  0.30665567984E+03  0.87245427398E+02 0.  0.
          5    1    5    5  501    0 -0.38747115310E+02  0.32671150128E+02 -0.33592984538E+02  0.60986241118E+02  0.47000000000E+01 0. -1.
        -13    1    6    6    0    0  0.38339545791E+02  0.12242891283E+02 -0.26215332165E+03  0.26522475980E+03  0.00000000000E+00 0.  1.
         14    1    6    6    0    0  0.46573059784E+00 -0.29852980842E+02 -0.28724619498E+02  0.41430920041E+02  0.00000000000E+00 0. -1.
         -5    1    3    3    0  503 -0.47103764237E+02 -0.53870315829E+02 -0.36906412722E+03  0.37596701389E+03  0.47000000000E+01 0.  1.
         11    1    4    4    0    0  0.90428793158E+01 -0.20540679591E+02 -0.26491424541E+03  0.26586321785E+03  0.00000000000E+00 0. -1.
        -12    1    4    4    0    0  0.38002723842E+02  0.59349934850E+02 -0.33024698526E+03  0.33768282909E+03  0.00000000000E+00 0.  1.
</event>
<event>
12    1  0.8494789E-002  0.1917106E+03  0.7818608E-02  0.1157040E+00
         21   -1    0    0  503  502  0.00000000000E+00  0.00000000000E+00  0.18336751825E+03  0.18336751825E+03  0.00000000000E+00 0.  1.
         21   -1    0    0  501  503 -0.00000000000E+00 -0.00000000000E+00 -0.20035633027E+03  0.20035633027E+03  0.00000000000E+00 0.  1.
          6    2    1    2  501    0 -0.79765344540E+02  0.32967821806E+02 -0.17573160484E+02  0.19201237825E+03  0.17061814079E+03 0.  0.
         24    2    3    3    0    0  0.20268019447E+02  0.32641989858E+02 -0.21452003274E+02  0.91793041298E+02  0.80557320413E+02 0.  0.
         -6    2    1    2    0  502  0.79765344540E+02 -0.32967821806E+02  0.58434846202E+00  0.19171147027E+03  0.17118282304E+03 0.  0.
        -24    2    5    5    0    0  0.33037535459E+02 -0.15258744222E+02  0.65655940721E+02  0.10953177880E+03  0.79763400072E+02 0.  0.
          5    1    3    3  501    0 -0.10003336399E+03  0.32583194789E+00  0.38788427899E+01  0.10021933695E+03  0.47000000000E+01 0. -1.
        -11    1    4    4    0    0 -0.11101420388E+02  0.43798783175E+02 -0.33646986471E+02  0.56335553967E+02  0.00000000000E+00 0.  1.
         12    1    4    4    0    0  0.31369439835E+02 -0.11156793317E+02  0.12194983197E+02  0.35457487331E+02  0.00000000000E+00 0. -1.
         -5    1    5    5    0  502  0.46727809082E+02 -0.17709077584E+02 -0.65071592259E+02  0.82179691467E+02  0.47000000000E+01 0.  1.
         13    1    6    6    0    0 -0.15668984420E+02 -0.29700584924E+02  0.41193533171E+02  0.53146486174E+02  0.00000000000E+00 0. -1.
        -14    1    6    6    0    0  0.48706519879E+02  0.14441840702E+02  0.24462407550E+02  0.56385292627E+02  0.00000000000E+00 0.  1.
</event>
<event>
12    1  0.8494789E-002  0.3404597E+03  0.7818608E-02  0.1066818E+00
         21   -1    0    0  503  502  0.00000000000E+00  0.00000000000E+00  0.18946736561E+03  0.18946736561E+03  0.00000000000E+00 0.  1.
         21   -1    0    0  501  503 -0.00000000000E+00 -0.00000000000E+00 -0.93930832532E+03  0.93930832532E+03  0.00000000000E+00 0.  1.
          6    2    1    2  501    0  0.52252176759E+02  0.28802988197E+03 -0.71077598883E+03  0.78810867414E+03  0.17384266760E+03 0.  0.
         24    2    3    3    0    0  0.80961498138E+02  0.21599422815E+03 -0.63292693162E+03  0.67812719269E+03  0.77792788324E+02 0.  0.
         -6    2    1    2    0  502 -0.52252176759E+02 -0.28802988197E+03 -0.39064970882E+02  0.34066701679E+03  0.16981296033E+03 0.  0.
        -24    2    5    5    0    0 -0.29950746772E+02 -0.22300867159E+03 -0.91486187868E+02  0.25409227700E+03  0.74587182720E+02 0.  0.
          5    1    3    3  501    0 -0.28709321379E+02  0.72035653814E+02 -0.77849057212E+02  0.10998148146E+03  0.47000000000E+01 0. -1.
        -11    1    4    4    0    0  0.30507226342E+02  0.14596852629E+03 -0.47873849104E+03  0.50142601082E+03  0.00000000000E+00 0.  1.
         12    1    4    4    0    0  0.50454271796E+02  0.70025701859E+02 -0.15418844058E+03  0.17670118186E+03  0.00000000000E+00 0. -1.
         -5    1    5    5    0  502 -0.22301429987E+02 -0.65021210376E+02  0.52421216986E+02  0.86574739783E+02  0.47000000000E+01 0.  1.
         13    1    6    6    0    0  0.15505118083E+02 -0.36591161216E+02 -0.37793212314E+02  0.54842033724E+02  0.00000000000E+00 0. -1.
        -14    1    6    6    0    0 -0.45455864855E+02 -0.18641751037E+03 -0.53692975554E+02  0.19925024328E+03  0.00000000000E+00 0.  1.
</event>
<event>
12    1  0.8494789E-002  0.2876481E+03  0.7818608E-02  0.1092041E+00
         21   -1    0    0  501  502  0.00000000000E+00  0.00000000000E+00  0.91691404043E+02  0.91691404043E+02  0.00000000000E+00 0.  1.
         21   -1    0    0  502  503 -0.00000000000E+00 -0.00000000000E+00 -0.12822346999E+04  0.12822346999E+04  0.00000000000E+00 0.  1.
         -6    2    1    2    0  503  0.66833030348E+02  0.21619371130E+03 -0.97194028182E+03  0.10126385286E+04  0.17193749877E+03 0.  0.
        -24    2    3    3    0    0  0.87880903816E+02  0.18275500220E+03 -0.92861521847E+03  0.95381411738E+03  0.79452516993E+02 0.  0.
          6    2    1    2  501    0 -0.66833030348E+02 -0.21619371130E+03 -0.21860301407E+03  0.36128757535E+03  0.17758113523E+03 0.  0.
         24    2    5    5    0    0 -0.33102890932E+02 -0.23322966619E+03 -0.18384240055E+03  0.30972851877E+03  0.81497536888E+02 0.  0.
          5    1    5    5  501    0 -0.33730139416E+02  0.17035954881E+02 -0.34760613517E+02  0.51559056584E+02  0.47000000000E+01 0. -1.
        -13    1    6    6    0    0 -0.34956737967E+02 -0.16210562687E+03 -0.16953766436E+03  0.23715654625E+03  0.00000000000E+00 0.  1.
         14    1    6    6    0    0  0.18538470352E+01 -0.71124039319E+02 -0.14304736195E+02  0.72571972520E+02  0.00000000000E+00 0. -1.
         -5    1    3    3    0  503 -0.21047873468E+02  0.33438709105E+02 -0.43325063349E+02  0.58824411245E+02  0.47000000000E+01 0.  1.
         13    1    4    4    0    0  0.58312964630E+02  0.13882552108E+03 -0.81055131243E+03  0.82441879966E+03  0.00000000000E+00 0. -1.
        -14    1    4    4    0    0  0.29567939186E+02  0.43929481121E+02 -0.11806390604E+03  0.12939531772E+03  0.00000000000E+00 0.  1.
</event>
<event>
12    1  0.8494789E-002  0.1830658E+03  0.7818608E-02  0.1165028E+00
         21   -1    0    0  503  502  0.00000000000E+00  0.00000000000E+00  0.23112925022E+03  0.23112925022E+03  0.00000000000E+00 0. -1.
         21   -1    0    0  501  503 -0.00000000000E+00 -0.00000000000E+00 -0.28893023888E+03  0.28893023888E+03  0.00000000000E+00 0.  1.
          6    2    1    2  501    0  0.33909247567E+02  0.51680120845E+02 -0.21279626112E+03  0.28070509508E+03  0.17231491432E+03 0.  0.
         24    2    3    3    0    0 -0.26383475848E+02  0.47488964704E+02 -0.10756369285E+03  0.15926061512E+03  0.10412831480E+03 0.  0.
         -6    2    1    2    0  502 -0.33909247567E+02 -0.51680120845E+02  0.15499527245E+03  0.23935439402E+03  0.17159929922E+03 0.  0.
        -24    2    5    5    0    0 -0.10054670456E+02  0.38188294767E+02  0.80828302266E+02  0.12032413551E+03  0.79907702286E+02 0.  0.
          5    1    3    3  501    0  0.60292723415E+02  0.41911561405E+01 -0.10523256827E+03  0.12144447996E+03  0.47000000000E+01 0. -1.
        -13    1    4    4    0    0 -0.29169105681E+02  0.79720710138E+02 -0.82018429417E+02  0.11803919313E+03  0.00000000000E+00 0.  1.
         14    1    4    4    0    0  0.27856298322E+01 -0.32231745434E+02 -0.25545263430E+02  0.41221421991E+02  0.00000000000E+00 0. -1.
         -5    1    5    5    0  502 -0.23854577111E+02 -0.89868415612E+02  0.74166970186E+02  0.11903025851E+03  0.47000000000E+01 0.  1.
         13    1    6    6    0    0 -0.28671598002E+02 -0.46266101165E+01  0.64717331016E+02  0.70935174540E+02  0.00000000000E+00 0. -1.
        -14    1    6    6    0    0  0.18616927546E+02  0.42814904883E+02  0.16110971250E+02  0.49388960973E+02  0.00000000000E+00 0.  1.
</event>
<event>
12    1  0.8494789E-002  0.1970133E+03  0.7818608E-02  0.1152299E+00
         21   -1    0    0  503  502  0.00000000000E+00  0.00000000000E+00  0.10856180135E+03  0.10856180135E+03  0.00000000000E+00 0. -1.
         21   -1    0    0  501  503 -0.00000000000E+00 -0.00000000000E+00 -0.38242088285E+03  0.38242088285E+03  0.00000000000E+00 0. -1.
          6    2    1    2  501    0 -0.84287175069E+02  0.46412269513E+02 -0.19974774273E+03  0.28055907578E+03  0.17191802591E+03 0.  0.
         24    2    3    3    0    0 -0.62321099017E+02 -0.35559853708E+02 -0.82440103672E+02  0.13569669396E+03  0.80428847318E+02 0.  0.
         -6    2    1    2    0  502  0.84287175069E+02 -0.46412269513E+02 -0.74111338770E+02  0.21042360842E+03  0.17183473980E+03 0.  0.
        -24    2    5    5    0    0  0.73126037637E+02 -0.96655742749E+02 -0.53946339705E+02  0.15494663321E+03  0.80053117287E+02 0.  0.
          5    1    3    3  501    0 -0.21966076052E+02  0.81972123221E+02 -0.11730763906E+03  0.14486238181E+03  0.47000000000E+01 0. -1.
        -11    1    4    4    0    0  0.91279548150E+01 -0.26099924740E+02 -0.48958197249E+02  0.56226601430E+02  0.00000000000E+00 0.  1.
         12    1    4    4    0    0 -0.71449053832E+02 -0.94599289679E+01 -0.33481906423E+02  0.79470092534E+02  0.00000000000E+00 0. -1.
         -5    1    5    5    0  502  0.11161137432E+02  0.50243473236E+02 -0.20164999065E+02  0.55476975213E+02  0.47000000000E+01 0.  1.
         11    1    6    6    0    0  0.81843925905E+02 -0.55085585242E+02 -0.20209038675E+02  0.10070379910E+03  0.00000000000E+00 0. -1.
        -12    1    6    6    0    0 -0.87178882687E+01 -0.41570157507E+02 -0.33737301030E+02  0.54242834106E+02  0.00000000000E+00 0.  1.
</event>
<event>
12    1  0.8494789E-002  0.1745332E+03  0.7818608E-02  0.1173255E+00
         21   -1    0    0  501  502  0.00000000000E+00  0.00000000000E+00  0.72457638724E+02  0.72457638724E+02  0.00000000000E+00 0. -1.
         21   -1    0    0  502  503 -0.00000000000E+00 -0.00000000000E+00 -0.52744341106E+03  0.52744341106E+03  0.00000000000E+00 0. -1.
         -6    2    1    2    0  503  0.21260213088E+02  0.28264008727E+02 -0.36282918308E+03  0.40253167333E+03  0.17069235804E+03 0.  0.
        -24    2    3    3    0    0  0.52005395228E+02  0.70914895593E+02 -0.28226024262E+03  0.30621029180E+03  0.79752208033E+02 0.  0.
          6    2    1    2  501    0 -0.21260213088E+02 -0.28264008727E+02 -0.92156589261E+02  0.19736937645E+03  0.17091220836E+03 0.  0.
         24    2    5    5    0    0  0.57119580711E+01 -0.62058526538E+02 -0.10971595663E+03  0.15046533789E+03  0.81965478019E+02 0.  0.
          5    1    5    5  501    0 -0.26972171160E+02  0.33794517811E+02  0.17559367368E+02  0.46904038563E+02  0.47000000000E+01 0. -1.
        -11    1    6    6    0    0 -0.37304557544E+02 -0.39422952402E+02 -0.60896674568E+02  0.81573305457E+02  0.00000000000E+00 0.  1.
         12    1    6    6    0    0  0.43016515615E+02 -0.22635574136E+02 -0.48819282060E+02  0.68892032435E+02  0.00000000000E+00 0. -1.
         -5    1    3    3    0  503 -0.30745182139E+02 -0.42650886866E+02 -0.80568940457E+02  0.96321381539E+02  0.47000000000E+01 0.  1.
         13    1    4    4    0    0 -0.92048904791E+01 -0.12245486886E+02 -0.31722971659E+02  0.35228239931E+02  0.00000000000E+00 0. -1.
        -14    1    4    4    0    0  0.61210285707E+02  0.83160382478E+02 -0.25053727096E+03  0.27098205186E+03  0.00000000000E+00 0.  1.
</event>
<event>
12    1  0.8494789E-002  0.2219367E+03  0.7818608E-02  0.1132468E+00
         21   -1    0    0  501  502  0.00000000000E+00  0.00000000000E+00  0.65603078242E+03  0.65603078242E+03  0.00000000000E+00 0.  1.
         21   -1    0    0  502  503 -0.00000000000E+00 -0.00000000000E+00 -0.10105643024E+03  0.10105643024E+03  0.00000000000E+00 0.  1.
         -6    2    1    2    0  503 -0.12628770179E+03  0.60795038151E+02  0.85383683411E+02  0.23769209682E+03  0.17193760267E+03 0.  0.
        -24    2    3    3    0    0 -0.56717823695E+02  0.49153853419E+02  0.11679087619E+03  0.16033586321E+03  0.80215132241E+02 0.  0.
          6    2    1    2  501    0  0.12628770179E+03 -0.60795038151E+02  0.46959066877E+03  0.51939511584E+03  0.17207925463E+03 0.  0.
         24    2    5    5    0    0  0.68386942345E+02  0.33643117566E+02  0.24720888562E+03  0.27090606039E+03  0.80431506173E+02 0.  0.
          5    1    5    5  501    0  0.57900759443E+02 -0.94438155717E+02  0.22238178315E+03  0.24848905544E+03  0.47000000000E+01 0. -1.
        -11    1    6    6    0    0  0.69791204728E+02 -0.62918258654E+01  0.14160645676E+03  0.15799616427E+03  0.00000000000E+00 0.  1.
         12    1    6    6    0    0 -0.14042623830E+01  0.39934943432E+02  0.10560242886E+03  0.11290989612E+03  0.00000000000E+00 0. -1.
         -5    1    3    3    0  503 -0.69569878093E+02  0.11641184732E+02 -0.31407192779E+02  0.77356233609E+02  0.47000000000E+01 0.  1.
         11    1    4    4    0    0  0.72943283586E+00  0.45151109742E+02  0.24027827308E+02  0.51151649713E+02  0.00000000000E+00 0. -1.
        -12    1    4    4    0    0 -0.57447256531E+02  0.40027436771E+01  0.92763048882E+02  0.10918421350E+03  0.00000000000E+00 0.  1.
</event>
<event>
12    1  0.8494789E-002  0.1794692E+03  0.7818608E-02  0.1168539E+00
         21   -1    0    0  501  502  0.00000000000E+00  0.00000000000E+00  0.35809600577E+03  0.35809600577E+03  0.00000000000E+00 0. -1.
         21   -1    0    0  502  503 -0.00000000000E+00 -0.00000000000E+00 -0.97773565268E+02  0.97773565268E+02  0.00000000000E+00 0. -1.
         -6    2    1    2    0  503 -0.25345908549E+02  0.40700438420E+02  0.64124558404E+02  0.19058108004E+03  0.17294579587E+03 0.  0.
        -24    2    3    3    0    0 -0.81613364107E+02  0.19555366642E+02  0.21826794932E+02  0.11693101955E+03  0.78442977952E+02 0.  0.
          6    2    1    2  501    0  0.25345908549E+02 -0.40700438420E+02  0.19619788209E+03  0.26528849100E+03  0.17200416782E+03 0.  0.
         24    2    5    5    0    0 -0.37663446922E+00 -0.81654046729E+02  0.18130653463E+03  0.21446832293E+03  0.80355938426E+02 0.  0.
          5    1    5    5  501    0  0.25722543018E+02  0.40953608309E+02  0.14891347462E+02  0.50820168064E+02  0.47000000000E+01 0. -1.
        -11    1    6    6    0    0 -0.38052401636E+02 -0.31451965686E+02  0.10208221654E+03  0.11339307893E+03  0.00000000000E+00 0.  1.
         12    1    6    6    0    0  0.37675767167E+02 -0.50202081042E+02  0.79224318091E+02  0.10107524400E+03  0.00000000000E+00 0. -1.
         -5    1    3    3    0  503  0.56267455558E+02  0.21145071777E+02  0.42297763471E+02  0.73650060490E+02  0.47000000000E+01 0.  1.
         13    1    4    4    0    0 -0.17834909977E+02  0.38748379885E+02  0.26409891737E+02  0.50169745257E+02  0.00000000000E+00 0. -1.
        -14    1    4    4    0    0 -0.63778454130E+02 -0.19193013242E+02 -0.45830968052E+01  0.66761274291E+02  0.00000000000E+00 0.  1.
</event>
<event>
12    1  0.8494789E-002  0.2474575E+03  0.7818608E-02  0.1114996E+00
         21   -1    0    0  503  502  0.00000000000E+00  0.00000000000E+00  0.53430359211E+03  0.53430359211E+03  0.00000000000E+00 0. -1.
         21   -1    0    0  501  503 -0.00000000000E+00 -0.00000000000E+00 -0.29917355053E+03  0.29917355053E+03  0.00000000000E+00 0.  1.
          6    2    1    2  501    0  0.33980722107E+02  0.17367869711E+03 -0.20990614167E+03  0.32449315788E+03  0.17296312293E+03 0.  0.
         24    2    3    3    0    0 -0.24931776361E+02  0.13295124405E+03 -0.19623154736E+03  0.25142817011E+03  0.80072952845E+02 0.  0.
         -6    2    1    2    0  502 -0.33980722107E+02 -0.17367869711E+03  0.44503618325E+03  0.50898398476E+03  0.17230354910E+03 0.  0.
        -24    2    5    5    0    0 -0.50510108182E+02 -0.68892112757E+02  0.12413403276E+03  0.17096959298E+03  0.80770968819E+02 0.  0.
          5    1    3    3  501    0  0.58912498468E+02  0.40727453064E+02 -0.13674594313E+02  0.73064987774E+02  0.47000000000E+01 0. -1.
        -11    1    4    4    0    0 -0.48848342951E+02  0.48330676007E+02 -0.96490316894E+02  0.11845841509E+03  0.00000000000E+00 0.  1.
         12    1    4    4    0    0  0.23916566590E+02  0.84620568043E+02 -0.99741230466E+02  0.13296975501E+03  0.00000000000E+00 0. -1.
         -5    1    5    5    0  502  0.16529386075E+02 -0.10478658436E+03  0.32090215049E+03  0.33801439178E+03  0.47000000000E+01 0.  1.
         11    1    6    6    0    0 -0.53229425934E+02 -0.60329793840E+02  0.13482458971E+03  0.15700549608E+03  0.00000000000E+00 0. -1.
        -12    1    6    6    0    0  0.27193177516E+01 -0.85623189171E+01 -0.10690556945E+02  0.13964096894E+02  0.00000000000E+00 0.  1.
</event>
<event>
12    1  0.8494789E-002  0.2539974E+03  0.7818608E-02  0.1110858E+00
         21   -1    0    0  501  502  0.00000000000E+00  0.00000000000E+00  0.17000209667E+03  0.17000209667E+03  0.00000000000E+00 0. -1.
         21   -1    0    0  502  503 -0.00000000000E+00 -0.00000000000E+00 -0.55424080667E+03  0.55424080667E+03  0.00000000000E+00 0.  1.
         -6    2    1    2    0  503  0.12771522323E+03  0.13667453392E+03 -0.39584471516E+03  0.47032727147E+03  0.17182432104E+03 0.  0.
        -24    2    3    3    0    0  0.12573987433E+03  0.82626267815E+02 -0.37612112037E+03  0.41256718781E+03  0.78147112197E+02 0.  0.
          6    2    1    2  501    0 -0.12771522323E+03 -0.13667453392E+03  0.11606005154E+02  0.25391563187E+03  0.17131066016E+03 0.  0.
         24    2    5    5    0    0 -0.10055427920E+03 -0.10327203192E+03 -0.55447085979E+02  0.17409300945E+03  0.80359946193E+02 0.  0.
          5    1    5    5  501    0 -0.27160944031E+02 -0.33402502004E+02  0.67053091132E+02  0.79822622427E+02  0.47000000000E+01 0. -1.
        -13    1    6    6    0    0 -0.53222936697E+02 -0.20311437292E+01 -0.17145533438E+02  0.55953336383E+02  0.00000000000E+00 0.  1.
         14    1    6    6    0    0 -0.47331342506E+02 -0.10124088819E+03 -0.38301552541E+02  0.11813967306E+03  0.00000000000E+00 0. -1.
         -5    1    3    3    0  503  0.19753489059E+01  0.54048266105E+02 -0.19723594791E+02  0.57760083654E+02  0.47000000000E+01 0.  1.
         11    1    4    4    0    0  0.83826612247E+02  0.21922769074E+02 -0.13499267917E+03  0.16040739432E+03  0.00000000000E+00 0. -1.
        -12    1    4    4    0    0  0.41913262081E+02  0.60703498741E+02 -0.24112844120E+03  0.25215979349E+03  0.00000000000E+00 0.  1.
</event>
<event>
12    1  0.8494789E-002  0.1825772E+03  0.7818608E-02  0.1166004E+00
         21   -1    0    0  503  502  0.00000000000E+00  0.00000000000E+00  0.69194867006E+02  0.69194867006E+02  0.00000000000E+00 0. -1.
         21   -1    0    0  501  503 -0.00000000000E+00 -0.00000000000E+00 -0.47452526297E+03  0.47452526297E+03  0.00000000000E+00 0. -1.
          6    2    1    2  501    0 -0.37268096638E+02  0.37310465370E+02 -0.20920450662E+03  0.27767059847E+03  0.17479546278E+03 0.  0.
         24    2    3    3    0    0  0.15178257781E+02  0.36477104045E+02 -0.35471106331E+02  0.96130798536E+02  0.80137209922E+02 0.  0.
         -6    2    1    2    0  502  0.37268096638E+02 -0.37310465370E+02 -0.19612588934E+03  0.26604953151E+03  0.17186042852E+03 0.  0.
        -24    2    5    5    0    0  0.29386651877E+02  0.41685232867E+02 -0.51109663048E+02  0.10065837878E+03  0.70133284639E+02 0.  0.
          5    1    3    3  501    0 -0.52446354419E+02  0.83336132501E+00 -0.17373340029E+03  0.18153979993E+03  0.47000000000E+01 0. -1.
        -13    1    4    4    0    0  0.21409706752E+02  0.56902066093E+02 -0.79765652842E+01  0.61317585264E+02  0.00000000000E+00 0.  1.
         14    1    4    4    0    0 -0.62314489716E+01 -0.20424962048E+02 -0.27494541047E+02  0.34813213272E+02  0.00000000000E+00 0. -1.
         -5    1    5    5    0  502  0.78814447613E+01 -0.78995698237E+02 -0.14501622630E+03  0.16539115273E+03  0.47000000000E+01 0.  1.
         13    1    6    6    0    0  0.20166665329E+02  0.10776975740E+02  0.14829399849E+02  0.27253416235E+02  0.00000000000E+00 0. -1.
        -14    1    6    6    0    0  0.92199865482E+01  0.30908257126E+02 -0.65939062898E+02  0.73404962546E+02  0.00000000000E+00 0.  1.
</event>
<event>
12    1  0.8494789E-002  0.1810710E+03  0.7818608E-02  0.1167417E+00
         21   -1    0    0  503  502  0.00000000000E+00  0.00000000000E+00  0.24259621177E+03  0.24259621177E+03  0.00000000000E+00 0.  1.
         21   -1    0    0  501  503 -0.00000000000E+00 -0.00000000000E+00 -0.26339275247E+03  0.26339275247E+03  0.00000000000E+00 0.  1.
          6    2    1    2  501    0  0.30414455318E+02  0.45579952608E+02 -0.18825272692E+03  0.25935507785E+03  0.16977454475E+03 0.  0.
         24    2    3    3    0    0  0.69725996952E+02  0.74442931832E+02 -0.13693329274E+03  0.18840267691E+03  0.79632764962E+02 0.  0.
         -6    2    1    2    0  502 -0.30414455318E+02 -0.45579952608E+02  0.16745618622E+03  0.24663388638E+03  0.17258078814E+03 0.  0.
        -24    2    5    5    0    0 -0.70067839839E+02 -0.81241138583E+02  0.10967623491E+03  0.16786381680E+03  0.68115781632E+02 0.  0.
          5    1    3    3  501    0 -0.39311541634E+02 -0.28862979224E+02 -0.51319434174E+02  0.70952400941E+02  0.47000000000E+01 0. -1.
        -13    1    4    4    0    0 -0.71364531184E+01  0.46621475194E+02 -0.42311678514E+02  0.63362205225E+02  0.00000000000E+00 0.  1.
         14    1    4    4    0    0  0.76862450071E+02  0.27821456638E+02 -0.94621614229E+02  0.12504047169E+03  0.00000000000E+00 0. -1.
         -5    1    5    5    0  502  0.39653384521E+02  0.35661185975E+02  0.57779951308E+02  0.78770069584E+02  0.47000000000E+01 0.  1.
         11    1    6    6    0    0 -0.36056184969E+02 -0.14393498702E+02  0.50773187564E+01  0.39153549586E+02  0.00000000000E+00 0. -1.
        -12    1    6    6    0    0 -0.34011654870E+02 -0.66847639881E+02  0.10459891616E+03  0.12871026721E+03  0.00000000000E+00 0.  1.
</event>
<event>
12    1  0.8494789E-002  0.1845305E+03  0.7818608E-02  0.1164177E+00
         21   -1    0    0  503  502  0.00000000000E+00  0.00000000000E+00  0.58331917145E+03  0.58331917145E+03  0.00000000000E+00 0. -1.
         21   -1    0    0  501  503 -0.00000000000E+00 -0.00000000000E+00 -0.14597539346E+03  0.14597539346E+03  0.00000000000E+00 0. -1.
          6    2    1    2  501    0  0.52032512472E+01 -0.57900870278E+02 -0.65962051061E+02  0.19322716520E+03  0.17206440825E+03 0.  0.
         24    2    3    3    0    0  0.27734525974E+02 -0.97346641067E+02 -0.25976796611E+02  0.13252677189E+03  0.81504471333E+02 0.  0.
         -6    2    1    2    0  502 -0.52032512472E+01  0.57900870278E+02  0.50330582905E+03  0.53606739971E+03  0.17513399121E+03 0.  0.
        -24    2    5    5    0    0  0.63366755784E+02  0.22151632266E+02  0.28400694205E+03  0.30348634778E+03  0.83294535246E+02 0.  0.
          5    1    3    3  501    0 -0.22531274727E+02  0.39445770790E+02 -0.39985254450E+02  0.60700393306E+02  0.47000000000E+01 0. -1.
        -13    1    4    4    0    0  0.54415354056E+02 -0.79722017267E+02 -0.27954453259E+02  0.10048921460E+03  0.00000000000E+00 0.  1.
         14    1    4    4    0    0 -0.26680828082E+02 -0.17624623801E+02  0.19776566485E+01  0.32037557289E+02  0.00000000000E+00 0. -1.
         -5    1    5    5    0  502 -0.68570007031E+02  0.35749238012E+02  0.21929888699E+03  0.23258105194E+03  0.47000000000E+01 0.  1.
         11    1    6    6    0    0 -0.43246922752E+01  0.32081176176E+02  0.14481783991E+03  0.14839175039E+03  0.00000000000E+00 0. -1.
        -12    1    6    6    0    0  0.67691448059E+02 -0.99295439102E+01  0.13918910214E+03  0.15509459739E+03  0.00000000000E+00 0.  1.
</event>
<event>
12    1  0.8494789E-002  0.2342515E+03  0.7818608E-02  0.1123734E+00
         21   -1    0    0  503  502  0.00000000000E+00  0.00000000000E+00  0.16027231132E+03  0.16027231132E+03  0.00000000000E+00 0.  1.
         21   -1    0    0  501  503 -0.00000000000E+00 -0.00000000000E+00 -0.37307332750E+03  0.37307332750E+03  0.00000000000E+00 0. -1.
          6    2    1    2  501    0 -0.14268183403E+03  0.70357442205E+02 -0.18349933708E+03  0.29756641368E+03  0.17194617881E+03 0.  0.
         24    2    3    3    0    0 -0.53413709581E+02  0.63375472890E+02 -0.29640349852E+02  0.11948715075E+03  0.80803180129E+02 0.  0.
         -6    2    1    2    0  502  0.14268183403E+03 -0.70357442205E+02 -0.29301679105E+02  0.23577922514E+03  0.17153710727E+03 0.  0.
        -24    2    5    5    0    0  0.99373009253E+02  0.26736940209E+02 -0.12676208661E+01  0.12572936452E+03  0.72224700069E+02 0.  0.
          5    1    3    3  501    0 -0.89268124453E+02  0.69819693151E+01 -0.15385898722E+03  0.17807926294E+03  0.47000000000E+01 0. -1.
        -11    1    4    4    0    0 -0.39042294495E+01  0.12779285128E+02  0.26142847055E+02  0.29359863557E+02  0.00000000000E+00 0.  1.
         12    1    4    4    0    0 -0.49509480132E+02  0.50596187762E+02 -0.55783196907E+02  0.90127287189E+02  0.00000000000E+00 0. -1.
         -5    1    5    5    0  502  0.43308824781E+02 -0.97094382414E+02 -0.28034058239E+02  0.11004986062E+03  0.47000000000E+01 0.  1.
         13    1    6    6    0    0  0.95119592747E+02  0.40894295478E+01 -0.18458096013E+02  0.96980212759E+02  0.00000000000E+00 0. -1.
        -14    1    6    6    0    0  0.42534165058E+01  0.22647510662E+02  0.17190475147E+02  0.28749151760E+02  0.00000000000E+00 0.  1.
</event>
<event>
12    1  0.8494789E-002  0.3438620E+03  0.7818608E-02  0.1065262E+00
         21   -1    0    0  503  502  0.00000000000E+00  0.00000000000E+00  0.14139438431E+03  0.14139438431E+03  0.00000000000E+00 0.  1.
         21   -1    0    0  501  503 -0.00000000000E+00 -0.00000000000E+00 -0.91162657431E+03  0.91162657431E+03  0.00000000000E+00 0. -1.
          6    2    1    2  501    0 -0.88198433259E+02  0.28240774232E+03 -0.53831675910E+03  0.63826099172E+03  0.17337549962E+03 0.  0.
         24    2    3    3    0    0 -0.88478852442E+02  0.30061051849E+03 -0.51900937261E+03  0.61131131884E+03  0.78330125218E+02 0.  0.
         -6    2    1    2    0  502  0.88198433259E+02 -0.28240774232E+03 -0.23191543090E+03  0.41475996690E+03  0.17523688683E+03 0.  0.
        -24    2    5    5    0    0  0.52981259350E+02 -0.18963418216E+03 -0.67924113126E+02  0.22302466732E+03  0.79738197889E+02 0.  0.
          5    1    3    3  501    0  0.28041918312E+00 -0.18202776178E+02 -0.19307386490E+02  0.26949672884E+02  0.47000000000E+01 0. -1.
        -13    1    4    4    0    0  0.58017322769E+01  0.24952621833E+02 -0.83498608146E+02  0.87340202634E+02  0.00000000000E+00 0.  1.
         14    1    4    4    0    0 -0.94280584719E+02  0.27565789666E+03 -0.43551076447E+03  0.52397111620E+03  0.00000000000E+00 0. -1.
         -5    1    5    5    0  502  0.35217173909E+02 -0.92773560157E+02 -0.16399131777E+03  0.19173529959E+03  0.47000000000E+01 0.  1.
         11    1    6    6    0    0  0.10895900127E+02 -0.57006287521E+02 -0.60266763518E+02  0.83669111633E+02  0.00000000000E+00 0. -1.
        -12    1    6    6    0    0  0.42085359223E+02 -0.13262789464E+03 -0.76573496076E+01  0.13935555568E+03  0.00000000000E+00 0.  1.
</event>
<event>
12    1  0.8494789E-002  0.1875760E+03  0.7818608E-02  0.1160818E+00
         21   -1    0    0  503  502  0.00000000000E+00  0.00000000000E+00  0.33399608313E+03  0.33399608313E+03  0.00000000000E+00 0. -1.
         21   -1    0    0  501  503 -0.00000000000E+00 -0.00000000000E+00 -0.10815579925E+03  0.10815579925E+03  0.00000000000E+00 0. -1.
          6    2    1    2  501    0  0.72124970284E+02 -0.15542777200E+02  0.75190461992E+02  0.20208507890E+03  0.17245632572E+03 0.  0.
         24    2    3    3    0    0  0.46506641817E+02 -0.24680765625E+02 -0.25399025561E+02  0.97777185665E+02  0.78378948782E+02 0.  0.
         -6    2    1    2    0  502 -0.72124970284E+02  0.15542777200E+02  0.15064982189E+03  0.24006680347E+03  0.17173558756E+03 0.  0.
        -24    2    5    5    0    0 -0.78436607129E+02 -0.24895572713E+02  0.36894053191E+02  0.11908101168E+03  0.77762621508E+02 0.  0.
          5    1    3    3  501    0  0.25618328468E+02  0.91379884252E+01  0.10058948755E+03  0.10430789324E+03  0.47000000000E+01 0. -1.
        -11    1    4    4    0    0  0.15897157090E+02 -0.22011056726E+02  0.26194579556E+02  0.37727473012E+02  0.00000000000E+00 0.  1.
         12    1    4    4    0    0  0.30609484726E+02 -0.26697088991E+01 -0.51593605116E+02  0.60049712653E+02  0.00000000000E+00 0. -1.
         -5    1    5    5    0  502  0.63116368443E+01  0.40438349913E+02  0.11375576870E+03  0.12098579179E+03  0.47000000000E+01 0.  1.
         11    1    6    6    0    0 -0.22986388337E+02 -0.40023197852E+02 -0.71031741931E+01  0.46697810427E+02  0.00000000000E+00 0. -1.
        -12    1    6    6    0    0 -0.55450218792E+02  0.15127625139E+02  0.43997227384E+02  0.72383201255E+02  0.00000000000E+00 0.  1.
</event>
<event>
12    1  0.8494789E-002  0.1810007E+03  0.7818608E-02  0.1166888E+00
         21   -1    0    0  503  502  0.00000000000E+00  0.00000000000E+00  0.15358665661E+03  0.15358665661E+03  0.00000000000E+00 0. -1.
         21   -1    0    0  501  503 -0.00000000000E+00 -0.00000000000E+00 -0.69349267258E+03  0.69349267258E+03  0.00000000000E+00 0. -1.
          6    2    1    2  501    0  0.45845582761E+02 -0.32745154707E+02 -0.62242903157E+03  0.64815397867E+03  0.17178945867E+03 0.  0.
         24    2    3    3    0    0 -0.18907888487E+02  0.31992101410E+01 -0.16300109824E+03  0.18277120576E+03  0.80425197753E+02 0.  0.
         -6    2    1    2    0  502 -0.45845582761E+02  0.32745154707E+02  0.82523015598E+02  0.19892535052E+03  0.17200925661E+03 0.  0.
        -24    2    5    5    0    0 -0.60004867656E+01  0.31321451799E+02  0.11725766718E+03  0.14583820871E+03  0.80637357494E+02 0.  0.
          5    1    3    3  501    0  0.64753471248E+02 -0.35944364848E+02 -0.45942793333E+03  0.46538277291E+03  0.47000000000E+01 0. -1.
        -11    1    4    4    0    0 -0.10378866393E+01  0.40185930104E+02 -0.63886335361E+02  0.75481454893E+02  0.00000000000E+00 0.  1.
         12    1    4    4    0    0 -0.17870001847E+02 -0.36986719963E+02 -0.99114762882E+02  0.10728975087E+03  0.00000000000E+00 0. -1.
         -5    1    5    5    0  502 -0.39845095996E+02  0.14237029075E+01 -0.34734651580E+02  0.53087141807E+02  0.47000000000E+01 0.  1.
         13    1    6    6    0    0 -0.34788740730E+02 -0.53837329696E+01  0.27457352539E+02  0.44644677966E+02  0.00000000000E+00 0. -1.
        -14    1    6    6    0    0  0.28788253964E+02  0.36705184769E+02  0.89800314639E+02  0.10119353074E+03  0.00000000000E+00 0.  1.
</event>
<event>
12    1  0.8494789E-002  0.2537188E+03  0.7818608E-02  0.1110999E+00
         21   -1    0    0  501  502  0.00000000000E+00  0.00000000000E+00  0.44554052582E+03  0.44554052582E+03  0.00000000000E+00 0.  1.
         21   -1    0    0  502  503 -0.00000000000E+00 -0.00000000000E+00 -0.15472101957E+03  0.15472101957E+03  0.00000000000E+00 0. -1.
         -6    2    1    2    0  503  0.10257659250E+03 -0.15960855556E+03  0.22296354857E+03  0.33776615826E+03  0.16845291727E+03 0.  0.
        -24    2    3    3    0    0  0.23531409023E+02 -0.13171373096E+03  0.89499616090E+02  0.18009252843E+03  0.80752110692E+02 0.  0.
          6    2    1    2  501    0 -0.10257659250E+03  0.15960855556E+03  0.67855957678E+02  0.26249538714E+03  0.16823361417E+03 0.  0.
         24    2    5    5    0    0 -0.12733815291E+03  0.10589309603E+03  0.83060767261E+02  0.20124376103E+03  0.78559578167E+02 0.  0.
          5    1    5    5  501    0  0.24761560406E+02  0.53715459530E+02 -0.15204809583E+02  0.61251626107E+02  0.47000000000E+01 0. -1.
        -13    1    6    6    0    0 -0.21056074480E+02  0.42847372655E+02  0.58056068123E+02  0.75164903126E+02  0.00000000000E+00 0.  1.
         14    1    6    6    0    0 -0.10628207843E+03  0.63045723377E+02  0.25004699137E+02  0.12607885790E+03  0.00000000000E+00 0. -1.
         -5    1    3    3    0  503  0.79045183480E+02 -0.27894824598E+02  0.13346393248E+03  0.15767362983E+03  0.47000000000E+01 0.  1.
         11    1    4    4    0    0 -0.26979870067E+02 -0.48828996121E+02  0.51282742725E+02  0.75776671558E+02  0.00000000000E+00 0. -1.
        -12    1    4    4    0    0  0.50511279090E+02 -0.82884734843E+02  0.38216873365E+02  0.10431585687E+03  0.00000000000E+00 0.  1.
</event>
<event>
12    1  0.8494789E-002  0.2075789E+03  0.7818608E-02  0.1143522E+00
         21   -1    0    0  503  502  0.00000000000E+00  0.00000000000E+00  0.53954326091E+03  0.53954326091E+03  0.00000000000E+00 0.  1.
         21   -1    0    0  501  503 -0.00000000000E+00 -0.00000000000E+00 -0.21827548296E+03  0.21827548296E+03  0.00000000000E+00 0.  1.
          6    2    1    2  501    0  0.46238651108E+02  0.10750578638E+03 -0.14113235874E+03  0.25101264615E+03  0.17144532331E+03 0.  0.
         24    2    3    3    0    0  0.43597090099E+02  0.11351493084E+03 -0.16824422133E+03  0.22272429599E+03  0.80707175797E+02 0.  0.
         -6    2    1    2    0  502 -0.46238651108E+02 -0.10750578638E+03  0.46240013669E+03  0.50680609771E+03  0.17129806567E+03 0.  0.
        -24    2    5    5    0    0  0.33527002334E+02 -0.17612297286E+02  0.18219305652E+03  0.20187742305E+03  0.78268328162E+02 0.  0.
          5    1    3    3  501    0  0.26415610083E+01 -0.60091444595E+01  0.27111862592E+02  0.28288350162E+02  0.47000000000E+01 0. -1.
        -13    1    4    4    0    0  0.14173807274E+02  0.25999903160E+02 -0.10916835535E+03  0.11311331304E+03  0.00000000000E+00 0.  1.
         14    1    4    4    0    0  0.29423282825E+02  0.87515027680E+02 -0.59075865977E+02  0.10961098295E+03  0.00000000000E+00 0. -1.
         -5    1    5    5    0  502 -0.79765653441E+02 -0.89893489095E+02  0.28020708017E+03  0.30492867466E+03  0.47000000000E+01 0.  1.
         13    1    6    6    0    0 -0.23180966279E+02 -0.16884246299E+00  0.26203655341E+02  0.34985958021E+02  0.00000000000E+00 0. -1.
        -14    1    6    6    0    0  0.56707968613E+02 -0.17443454823E+02  0.15598940118E+03  0.16689146503E+03  0.00000000000E+00 0.  1.
</event>
<event>
12    1  0.8494789E-002  0.1966869E+03  0.7818608E-02  0.1152707E+00
         21   -1    0    0  501  502  0.00000000000E+00  0.00000000000E+00  0.47096023292E+02  0.47096023292E+02  0.00000000000E+00 0.  1.
         21   -1    0    0  502  503 -0.00000000000E+00 -0.00000000000E+00 -0.10242642997E+04  0.10242642997E+04  0.00000000000E+00 0.  1.
         -6    2    1    2    0  503 -0.27637481145E+01  0.93688785269E+02 -0.72791987407E+03  0.75385365675E+03  0.17217074650E+03 0.  0.
        -24    2    3    3    0    0 -0.27603360443E+02  0.62797554077E+02 -0.69247386312E+03  0.70047028671E+03  0.80206565521E+02 0.  0.
          6    2    1    2  501    0  0.27637481145E+01 -0.93688785269E+02 -0.24924840230E+03  0.31750666619E+03  0.17291758222E+03 0.  0.
         24    2    5    5    0    0  0.16454445538E+02 -0.12015505671E+03 -0.24784095424E+03  0.28730783129E+03  0.80079116433E+02 0.  0.
          5    1    5    5  501    0 -0.13690697423E+02  0.26466271438E+02 -0.14074480554E+01  0.30198834908E+02  0.47000000000E+01 0. -1.
        -11    1    6    6    0    0 -0.18688066100E+02 -0.98835250337E+02 -0.14422316538E+03  0.17583507032E+03  0.00000000000E+00 0.  1.
         12    1    6    6    0    0  0.35142511637E+02 -0.21319806371E+02 -0.10361778886E+03  0.11147276096E+03  0.00000000000E+00 0. -1.
         -5    1    3    3    0  503  0.24839612329E+02  0.30891231193E+02 -0.35446010944E+02  0.53383370042E+02  0.47000000000E+01 0.  1.
         11    1    4    4    0    0 -0.46353342671E+02  0.58514152624E+02 -0.37178806882E+03  0.37920826277E+03  0.00000000000E+00 0. -1.
        -12    1    4    4    0    0  0.18749982228E+02  0.42834014527E+01 -0.32068579430E+03  0.32126202394E+03  0.00000000000E+00 0.  1.
</event>
<event>
12    1  0.8494789E-002  0.1779349E+03  0.7818608E-02  0.1169822E+00
         21   -1    0    0  503  502  0.00000000000E+00  0.00000000000E+00  0.36570984686E+03  0.36570984686E+03  0.00000000000E+00 0.  1.
         21   -1    0    0  501  503 -0.00000000000E+00 -0.00000000000E+00 -0.93226057152E+02  0.93226057152E+02  0.00000000000E+00 0.  1.
          6    2    1    2  501    0  0.29410308792E+01 -0.45837777497E+02  0.19759163770E+03  0.26590091581E+03  0.17190430545E+03 0.  0.
         24    2    3    3    0    0  0.22524659686E+02 -0.72882957377E+02  0.20344967757E+03  0.23167567800E+03  0.80390065959E+02 0.  0.
         -6    2    1    2    0  502 -0.29410308792E+01  0.45837777497E+02  0.74892152000E+02  0.19303498819E+03  0.17188345100E+03 0.  0.
        -24    2    5    5    0    0  0.61445704715E+02  0.49891162551E+02  0.45643494717E+02  0.12204445640E+03  0.80912409434E+02 0.  0.
          5    1    3    3  501    0 -0.19583628806E+02  0.27045179880E+02 -0.58580398687E+01  0.34225237809E+02  0.47000000000E+01 0. -1.
        -13    1    4    4    0    0  0.45893387545E+02 -0.30173597411E+02  0.66031425987E+02  0.85888289184E+02  0.00000000000E+00 0.  1.
         14    1    4    4    0    0 -0.23368727860E+02 -0.42709359966E+02  0.13741825158E+03  0.14578738882E+03  0.00000000000E+00 0. -1.
         -5    1    5    5    0  502 -0.64386735594E+02 -0.40533850534E+01  0.29248657283E+02  0.70990531789E+02  0.47000000000E+01 0.  1.
         11    1    6    6    0    0  0.21440955591E+02  0.63784153002E+02  0.12906938529E+02  0.68518040055E+02  0.00000000000E+00 0. -1.
        -12    1    6    6    0    0  0.40004749124E+02 -0.13892990451E+02  0.32736556188E+02  0.53526416349E+02  0.00000000000E+00 0.  1.
</event>
<event>
12    1  0.8494789E-002  0.1993422E+03  0.7818608E-02  0.1150428E+00
         21   -1    0    0  501  502  0.00000000000E+00  0.00000000000E+00  0.31233570787E+03  0.31233570787E+03  0.00000000000E+00 0.  1.
         21   -1    0    0  502  503 -0.00000000000E+00 -0.00000000000E+00 -0.13648557250E+03  0.13648557250E+03  0.00000000000E+00 0.  1.
         -6    2    1    2    0  503  0.37224161156E+02 -0.92624352804E+02  0.28358917175E+02  0.20134930952E+03  0.17254682655E+03 0.  0.
        -24    2    3    3    0    0  0.20644421637E+02 -0.34857678461E+02 -0.49943381463E+02  0.10253020003E+03  0.79855185647E+02 0.  0.
          6    2    1    2  501    0 -0.37224161156E+02  0.92624352804E+02  0.14749121820E+03  0.24747197086E+03  0.17182493418E+03 0.  0.
         24    2    5    5    0    0 -0.78995456829E+02  0.76600056286E+02  0.60735479045E+02  0.14974650080E+03  0.81408631392E+02 0.  0.
          5    1    5    5  501    0  0.41771295673E+02  0.16024296518E+02  0.86755739155E+02  0.97725470054E+02  0.47000000000E+01 0. -1.
        -13    1    6    6    0    0 -0.15932221139E+02  0.70944252628E+02  0.40746268121E+02  0.83349751153E+02  0.00000000000E+00 0.  1.
         14    1    6    6    0    0 -0.63063235690E+02  0.56558036580E+01  0.19989210924E+02  0.66396749650E+02  0.00000000000E+00 0. -1.
         -5    1    3    3    0  503  0.16579739519E+02 -0.57766674343E+02  0.78302298638E+02  0.98819109484E+02  0.47000000000E+01 0.  1.
         11    1    4    4    0    0  0.94128369537E+01 -0.30595377309E+02  0.15800464615E+02  0.35697805174E+02  0.00000000000E+00 0. -1.
        -12    1    4    4    0    0  0.11231584683E+02 -0.42623011518E+01 -0.65743846078E+02  0.66832394860E+02  0.00000000000E+00 0.  1.
</event>
<event>
12    1  0.8494789E-002  0.2349266E+03  0.7818608E-02  0.1123285E+00
         21   -1    0    0  501  502  0.00000000000E+00  0.00000000000E+00  0.43263842659E+03  0.43263842659E+03  0.00000000000E+00 0.  1.
         21   -1    0    0  502  503 -0.00000000000E+00 -0.00000000000E+00 -0.35156239131E+03  0.35156239131E+03  0.00000000000E+00 0. -1.
         -6    2    1    2    0  503  0.15834903185E+03 -0.24808320397E+02 -0.27257471900E+03  0.35984371091E+03  0.17175753315E+03 0.  0.
        -24    2    3    3    0    0  0.14842644698E+03 -0.87265782759E+01 -0.12367809064E+03  0.20967921425E+03  0.81009502233E+02 0.  0.
          6    2    1    2  501    0 -0.15834903185E+03  0.24808320397E+02  0.35365075428E+03  0.42435710700E+03  0.17123150881E+03 0.  0.
         24    2    5    5    0    0 -0.88414591798E+02  0.70612267888E+01  0.32452944693E+03  0.34640888201E+03  0.82539388446E+02 0.  0.
          5    1    5    5  501    0 -0.69934440051E+02  0.17747093609E+02  0.29121307350E+02  0.77948224987E+02  0.47000000000E+01 0. -1.
        -11    1    6    6    0    0 -0.61662425828E+02  0.43763837323E+02  0.19495285623E+03  0.20910319072E+03  0.00000000000E+00 0.  1.
         12    1    6    6    0    0 -0.26752165970E+02 -0.36702610534E+02  0.12957659070E+03  0.13730569129E+03  0.00000000000E+00 0. -1.
         -5    1    3    3    0  503  0.99225848673E+01 -0.16081742122E+02 -0.14889662836E+03  0.15016449666E+03  0.47000000000E+01 0.  1.
         13    1    4    4    0    0  0.14583031191E+03 -0.14306853818E+02 -0.13340960304E+03  0.19816480041E+03  0.00000000000E+00 0. -1.
        -14    1    4    4    0    0  0.25961350714E+01  0.55802755421E+01  0.97315124016E+01  0.11514413839E+02  0.00000000000E+00 0.  1.
</event>
<event>
12    1  0.8494789E-002  0.1851084E+03  0.7818608E-02  0.1163153E+00
         21   -1    0    0  501  502  0.00000000000E+00  0.00000000000E+00  0.29779721653E+02  0.29779721653E+02  0.00000000000E+00 0. -1.
         21   -1    0    0  502  503 -0.00000000000E+00 -0.00000000000E+00 -0.13911200556E+04  0.13911200556E+04  0.00000000000E+00 0. -1.
         -6    2    1    2    0  503  0.68108094413E+02  0.53883272462E+01 -0.38328549780E+03  0.42564410371E+03  0.17203890142E+03 0.  0.
        -24    2    3    3    0    0  0.57503165149E+02 -0.60630091407E+02 -0.21162536126E+03  0.24136119999E+03  0.80543859762E+02 0.  0.
          6    2    1    2  501    0 -0.68108094413E+02 -0.53883272462E+01 -0.97805483611E+03  0.99525567351E+03  0.17109893809E+03 0.  0.
         24    2    5    5    0    0 -0.53024845556E+02  0.49821547071E+02 -0.38444763115E+03  0.39887723795E+03  0.77519346354E+02 0.  0.
          5    1    5    5  501    0 -0.15083248857E+02 -0.55209874317E+02 -0.59360720495E+03  0.59637843555E+03  0.47000000000E+01 0. -1.
        -11    1    6    6    0    0 -0.41825832719E+02  0.53922207816E+01 -0.74894691444E+02  0.85951679065E+02  0.00000000000E+00 0.  1.
         12    1    6    6    0    0 -0.11199012838E+02  0.44429326289E+02 -0.30955293971E+03  0.31292555889E+03  0.00000000000E+00 0. -1.
         -5    1    3    3    0  503  0.10604929264E+02  0.66018418653E+02 -0.17166013655E+03  0.18428290372E+03  0.47000000000E+01 0.  1.
         13    1    4    4    0    0  0.47251344137E+02 -0.70754768133E+02 -0.21033908921E+03  0.22689526038E+03  0.00000000000E+00 0. -1.
        -14    1    4    4    0    0  0.10251821012E+02  0.10124676726E+02 -0.12862720532E+01  0.14465939605E+02  0.00000000000E+00 0.  1.
</event>
<event>
12    1  0.8494789E-002  0.2924224E+03  0.7818608E-02  0.1089269E+00
         21   -1    0    0  503  502  0.00000000000E+00  0.00000000000E+00  0.71898176588E+03  0.71898176588E+03  0.00000000000E+00 0.  1.
         21   -1    0    0  501  503 -0.00000000000E+00 -0.00000000000E+00 -0.17507499882E+03  0.17507499882E+03  0.00000000000E+00 0. -1.
          6    2    1    2  501    0  0.18645611429E+03  0.14261586096E+03  0.17118631419E+02  0.29154818216E+03  0.17205269142E+03 0.  0.
         24    2    3    3    0    0  0.17937268363E+03  0.10079724642E+03  0.62357481220E+02  0.22935802986E+03  0.79887457564E+02 0.  0.
         -6    2    1    2    0  502 -0.18645611429E+03 -0.14261586096E+03  0.52678813564E+03  0.60250858255E+03  0.17437226224E+03 0.  0.
        -24    2    5    5    0    0 -0.86065730850E+02 -0.11438138500E+03  0.19551002762E+03  0.25517201728E+03  0.79988600683E+02 0.  0.
          5    1    3    3  501    0  0.70834306595E+01  0.41818614544E+02 -0.45238849801E+02  0.62190152304E+02  0.47000000000E+01 0. -1.
        -11    1    4    4    0    0 -0.71420398523E+01  0.12288884308E+02  0.27696379911E+01  0.14480894495E+02  0.00000000000E+00 0.  1.
         12    1    4    4    0    0  0.18651472348E+03  0.88508362113E+02  0.59587843229E+02  0.21487713536E+03  0.00000000000E+00 0. -1.
         -5    1    5    5    0  502 -0.10039038344E+03 -0.28234475960E+02  0.33127810802E+03  0.34733656527E+03  0.47000000000E+01 0.  1.
         13    1    6    6    0    0 -0.37532552168E+01 -0.70404813203E+02  0.78777730833E+02  0.10572064851E+03  0.00000000000E+00 0. -1.
        -14    1    6    6    0    0 -0.82312475633E+02 -0.43976571801E+02  0.11673229679E+03  0.14945136876E+03  0.00000000000E+00 0.  1.
</event>
<event>
12    1  0.8494789E-002  0.1859185E+03  0.7818608E-02  0.1162412E+00
         21   -1    0    0  503  502  0.00000000000E+00  0.00000000000E+00  0.15743037647E+04  0.15743037647E+04  0.00000000000E+00 0. -1.
         21   -1    0    0  501  503 -0.00000000000E+00 -0.00000000000E+00 -0.37941247140E+02  0.37941247140E+02  0.00000000000E+00 0. -1.
          6    2    1    2  501    0  0.43229559959E+02  0.54417370054E+02  0.24202921699E+03  0.30462718242E+03  0.17143375797E+03 0.  0.
         24    2    3    3    0    0  0.72124908969E+00 -0.45729526456E+01  0.39153879447E+02  0.89064413718E+02  0.79862453124E+02 0.  0.
         -6    2    1    2    0  502 -0.43229559959E+02 -0.54417370054E+02  0.12943333006E+04  0.13076178294E+04  0.17244027908E+03 0.  0.
        -24    2    5    5    0    0 -0.83177863855E+02 -0.82382932306E+01  0.10303548736E+04  0.10366287632E+04  0.77340808014E+02 0.  0.
          5    1    3    3  501    0  0.42508310870E+02  0.58990322699E+02  0.20287533755E+03  0.21556276870E+03  0.47000000000E+01 0. -1.
        -13    1    4    4    0    0 -0.17709823503E+02 -0.22259715116E+02  0.52895041803E+02  0.60058456631E+02  0.00000000000E+00 0.  1.
         14    1    4    4    0    0  0.18431072593E+02  0.17686762470E+02 -0.13741162356E+02  0.29005957087E+02  0.00000000000E+00 0. -1.
         -5    1    5    5    0  502  0.39948303896E+02 -0.46179076823E+02  0.26397842697E+03  0.27098906625E+03  0.47000000000E+01 0.  1.
         11    1    6    6    0    0 -0.76007601971E+01 -0.29154105925E+01  0.57172770869E+03  0.57178566269E+03  0.00000000000E+00 0. -1.
        -12    1    6    6    0    0 -0.75577103658E+02 -0.53228826380E+01  0.45862716493E+03  0.46484310050E+03  0.00000000000E+00 0.  1.
</event>
<event>
12    1  0.8494789E-002  0.2098692E+03  0.7818608E-02  0.1142724E+00
         21   -1    0    0  503  502  0.00000000000E+00  0.00000000000E+00  0.50933614473E+03  0.50933614473E+03  0.00000000000E+00 0. -1.
         21   -1    0    0  501  503 -0.00000000000E+00 -0.00000000000E+00 -0.12378259607E+03  0.12378259607E+03  0.00000000000E+00 0.  1.
          6    2    1    2  501    0  0.10945187187E+03  0.13114435163E+02  0.15724956827E+02  0.21045746957E+03  0.17858715397E+03 0.  0.
         24    2    3    3    0    0  0.11764681853E+03 -0.27573601386E+02  0.52762089365E+02  0.15463173486E+03  0.80784020375E+02 0.  0.
         -6    2    1    2    0  502 -0.10945187187E+03 -0.13114435163E+02  0.36982859183E+03  0.42266127123E+03  0.17238811500E+03 0.  0.
        -24    2    5    5    0    0 -0.61044976843E+02 -0.53105305878E+02  0.12266498177E+03  0.16760355743E+03  0.80607642325E+02 0.  0.
          5    1    3    3  501    0 -0.81949466623E+01  0.40688036549E+02 -0.37037132537E+02  0.55825734707E+02  0.47000000000E+01 0. -1.
        -13    1    4    4    0    0  0.12602308085E+02 -0.51066099102E+00 -0.20262488393E+02  0.23867286809E+02  0.00000000000E+00 0.  1.
         14    1    4    4    0    0  0.10504451045E+03 -0.27062940395E+02  0.73024577758E+02  0.13076444805E+03  0.00000000000E+00 0. -1.
         -5    1    5    5    0  502 -0.48406895025E+02  0.39990870715E+02  0.24716361006E+03  0.25505771380E+03  0.47000000000E+01 0.  1.
         11    1    6    6    0    0 -0.21500374977E+02 -0.94547683112E-01  0.92406177182E+02  0.94874531065E+02  0.00000000000E+00 0. -1.
        -12    1    6    6    0    0 -0.39544601866E+02 -0.53010758195E+02  0.30258804586E+02  0.72729026366E+02  0.00000000000E+00 0.  1.
</event>
<event>
12    1  0.8494789E-002  0.3199392E+03  0.7818608E-02  0.1075743E+00
         21   -1    0    0  501  502  0.00000000000E+00  0.00000000000E+00  0.46856305262E+03  0.46856305262E+03  0.00000000000E+00 0. -1.
         21   -1    0    0  502  503 -0.00000000000E+00 -0.00000000000E+00 -0.31680488875E+03  0.31680488875E+03  0.00000000000E+00 0.  1.
         -6    2    1    2    0  503 -0.22184701282E+03 -0.15329232997E+03 -0.14330026169E+03  0.35056536042E+03  0.17218150714E+03 0.  0.
        -24    2    3    3    0    0 -0.58649416314E+02 -0.86197588263E+01 -0.64152730632E+02  0.11850926802E+03  0.80092568215E+02 0.  0.
          6    2    1    2  501    0  0.22184701282E+03  0.15329232997E+03  0.29505842556E+03  0.43480258095E+03  0.17111158459E+03 0.  0.
         24    2    5    5    0    0  0.22417687542E+03  0.12560241444E+03  0.30288708804E+03  0.40555300595E+03  0.81862167981E+02 0.  0.
          5    1    5    5  501    0 -0.23298625950E+01  0.27689915526E+02 -0.78286624782E+01  0.29249575001E+02  0.47000000000E+01 0. -1.
        -13    1    6    6    0    0  0.21266494353E+03  0.13439796432E+03  0.26698507522E+03  0.36683814062E+03  0.00000000000E+00 0.  1.
         14    1    6    6    0    0  0.11511931893E+02 -0.87955498754E+01  0.35902012818E+02  0.38714865335E+02  0.00000000000E+00 0. -1.
         -5    1    3    3    0  503 -0.16319759651E+03 -0.14467257114E+03 -0.79147531057E+02  0.23205609240E+03  0.47000000000E+01 0.  1.
         11    1    4    4    0    0  0.78106913465E+01  0.25806400342E+01  0.13424535540E+02  0.15744356347E+02  0.00000000000E+00 0. -1.
        -12    1    4    4    0    0 -0.66460107660E+02 -0.11200398860E+02 -0.77577266172E+02  0.10276491167E+03  0.00000000000E+00 0.  1.
</event>
<event>
12    1  0.8494789E-002  0.2975185E+03  0.7818608E-02  0.1086515E+00
         21   -1    0    0  501  502  0.00000000000E+00  0.00000000000E+00  0.95400517304E+03  0.95400517304E+03  0.00000000000E+00 0. -1.
         21   -1    0    0  502  503 -0.00000000000E+00 -0.00000000000E+00 -0.15308409668E+03  0.15308409668E+03  0.00000000000E+00 0.  1.
         -6    2    1    2    0  503  0.50693281866E+02  0.23684683076E+03  0.52769125673E+02  0.30195040130E+03  0.17240427534E+03 0.  0.
        -24    2    3    3    0    0  0.12677234490E+02  0.24497526357E+03  0.48364628787E+02  0.26254506067E+03  0.80107300072E+02 0.  0.
          6    2    1    2  501    0 -0.50693281866E+02 -0.23684683076E+03  0.74815195069E+03  0.80513886842E+03  0.17277449481E+03 0.  0.
         24    2    5    5    0    0 -0.99265098268E+02 -0.17378930607E+03  0.49804674538E+03  0.54263138950E+03  0.79636559737E+02 0.  0.
          5    1    5    5  501    0  0.48571816402E+02 -0.63057524689E+02  0.25010520530E+03  0.26250747892E+03  0.47000000000E+01 0. -1.
        -11    1    6    6    0    0 -0.65536625960E+02 -0.46210772910E+02  0.23565485525E+03  0.24892508045E+03  0.00000000000E+00 0.  1.
         12    1    6    6    0    0 -0.33728472308E+02 -0.12757853316E+03  0.26239189014E+03  0.29370630905E+03  0.00000000000E+00 0. -1.
         -5    1    3    3    0  503  0.38016047376E+02 -0.81284328109E+01  0.44044968863E+01  0.39405340639E+02  0.47000000000E+01 0.  1.
         13    1    4    4    0    0  0.40795339211E+02  0.71585008033E+02  0.14842329858E+02  0.83719578546E+02  0.00000000000E+00 0. -1.
        -14    1    4    4    0    0 -0.28118104721E+02  0.17339025554E+03  0.33522298928E+02  0.17882548212E+03  0.00000000000E+00 0.  1.
</event>
<event>
12    1  0.8494789E-002  0.1726447E+03  0.7818608E-02  0.1175302E+00
         21   -1    0    0  503  502  0.00000000000E+00  0.00000000000E+00  0.56836314496E+03  0.56836314496E+03  0.00000000000E+00 0. -1.
         21   -1    0    0  501  503 -0.00000000000E+00 -0.00000000000E+00 -0.19462190512E+03  0.19462190512E+03  0.00000000000E+00 0. -1.
          6    2    1    2  501    0 -0.80744246717E+01 -0.88333617234E+01 -0.13934386445E+03  0.22186236901E+03  0.17222942144E+03 0.  0.
         24    2    3    3    0    0 -0.41793727048E+02 -0.34119889583E+02 -0.26292268000E+02  0.10111820433E+03  0.81380129050E+02 0.  0.
         -6    2    1    2    0  502  0.80744246717E+01  0.88333617234E+01  0.51308510430E+03  0.54112268107E+03  0.17150570576E+03 0.  0.
        -24    2    5    5    0    0 -0.62825828906E+02  0.17228030741E+02  0.30318089299E+03  0.31935887801E+03  0.76338386595E+02 0.  0.
          5    1    3    3  501    0  0.33719302376E+02  0.25286527860E+02 -0.11305159645E+03  0.12074416468E+03  0.47000000000E+01 0. -1.
        -13    1    4    4    0    0  0.12484029051E+01  0.20687845447E+02  0.94729069160E+01  0.22787747245E+02  0.00000000000E+00 0.  1.
         14    1    4    4    0    0 -0.43042129953E+02 -0.54807735030E+02 -0.35765174916E+02  0.78330457083E+02  0.00000000000E+00 0. -1.
         -5    1    5    5    0  502  0.70900253578E+02 -0.83946690172E+01  0.20990421131E+03  0.22176380307E+03  0.47000000000E+01 0.  1.
         11    1    6    6    0    0 -0.40770391478E+02 -0.23234963335E+02  0.92802193947E+02  0.10399199750E+03  0.00000000000E+00 0. -1.
        -12    1    6    6    0    0 -0.22055437429E+02  0.40462994075E+02  0.21037869904E+03  0.21536688051E+03  0.00000000000E+00 0.  1.
</event>
<event>
12    1  0.8494789E-002  0.1896281E+03  0.7818608E-02  0.1159153E+00
         21   -1    0    0  503  502  0.00000000000E+00  0.00000000000E+00  0.17087595313E+04  0.17087595313E+04  0.00000000000E+00 0. -1.
         21   -1    0    0  501  503 -0.00000000000E+00 -0.00000000000E+00 -0.25176924222E+02  0.25176924222E+02  0.00000000000E+00 0. -1.
          6    2    1    2  501    0  0.20459795256E+02 -0.74239698174E+02  0.48034012504E+03  0.51584315954E+03  0.17157328903E+03 0.  0.
         24    2    3    3    0    0 -0.41938299851E+02 -0.90310680938E-01  0.24422442151E+03  0.26057003248E+03  0.80575086838E+02 0.  0.
         -6    2    1    2    0  502 -0.20459795256E+02  0.74239698174E+02  0.12032424820E+04  0.12180932960E+04  0.17328782745E+03 0.  0.
        -24    2    5    5    0    0 -0.27343334483E+02  0.53391108343E+02  0.11850858351E+04  0.11892176897E+04  0.78816296400E+02 0.  0.
          5    1    3    3  501    0  0.62398095107E+02 -0.74149387493E+02  0.23611570354E+03  0.25527312705E+03  0.47000000000E+01 0. -1.
        -11    1    4    4    0    0 -0.12165839402E+02 -0.85582959849E+01  0.22191965210E+03  0.22241758939E+03  0.00000000000E+00 0.  1.
         12    1    4    4    0    0 -0.29772460449E+02  0.84679853040E+01  0.22304769401E+02  0.38152443098E+02  0.00000000000E+00 0. -1.
         -5    1    5    5    0  502  0.68835392263E+01  0.20848589831E+02  0.18156646961E+02  0.28875606298E+02  0.47000000000E+01 0.  1.
         13    1    6    6    0    0 -0.15442633918E+02  0.61019226165E+02  0.49483264599E+03  0.49881977552E+03  0.00000000000E+00 0. -1.
        -14    1    6    6    0    0 -0.11900700565E+02 -0.76281178229E+01  0.69025318907E+03  0.69039791416E+03  0.00000000000E+00 0.  1.
</event>
<event>
12    1  0.8494789E-002  0.1726518E+03  0.7818608E-02  0.1175113E+00
         21   -1    0    0  503  502  0.00000000000E+00  0.00000000000E+00  0.25171896222E+03  0.25171896222E+03  0.00000000000E+00 0. -1.
         21   -1    0    0  501  503 -0.00000000000E+00 -0.00000000000E+00 -0.41400240931E+03  0.41400240931E+03  0.00000000000E+00 0. -1.
          6    2    1    2  501    0 -0.16431874961E+01 -0.16775013638E+02 -0.36240130407E+03  0.40142662177E+03  0.17182702442E+03 0.  0.
         24    2    3    3    0    0  0.31116004728E+02 -0.29289142615E+02 -0.34513239437E+03  0.36205565097E+03  0.10070682763E+03 0.  0.
         -6    2    1    2    0  502  0.16431874961E+01  0.16775013638E+02  0.20011785698E+03  0.26429474977E+03  0.17181518246E+03 0.  0.
        -24    2    5    5    0    0 -0.27012491447E+02  0.23296949825E+02  0.46845262781E+02  0.10815935429E+03  0.90727860719E+02 0.  0.
          5    1    3    3  501    0 -0.32759192224E+02  0.12514128976E+02 -0.17268909710E+02  0.39370970800E+02  0.47000000000E+01 0. -1.
        -13    1    4    4    0    0 -0.15981121536E+02  0.14338783099E+02 -0.22342204968E+03  0.22445135159E+03  0.00000000000E+00 0.  1.
         14    1    4    4    0    0  0.47097126264E+02 -0.43627925713E+02 -0.12171034468E+03  0.13760429938E+03  0.00000000000E+00 0. -1.
         -5    1    5    5    0  502  0.28655678943E+02 -0.65219361863E+01  0.15327259420E+03  0.15613539548E+03  0.47000000000E+01 0.  1.
         11    1    6    6    0    0 -0.69909581169E+01  0.11739449892E+02  0.72412461378E+02  0.73690248622E+02  0.00000000000E+00 0. -1.
        -12    1    6    6    0    0 -0.20021533330E+02  0.11557499932E+02 -0.25567198598E+02  0.34469105670E+02  0.00000000000E+00 0.  1.
</event>
<event>
12    1  0.8494789E-002  0.2224235E+03  0.7818608E-02  0.1132116E+00
         21   -1    0    0  501  502  0.00000000000E+00  0.00000000000E+00  0.20648437971E+03  0.20648437971E+03  0.00000000000E+00 0.  1.
         21   -1    0    0  502  503 -0.00000000000E+00 -0.00000000000E+00 -0.53294011924E+03  0.53294011924E+03  0.00000000000E+00 0. -1.
         -6    2    1    2    0  503 -0.46134606789E+02  0.13149402211E+03 -0.43762065230E+03  0.49090124473E+03  0.17335834841E+03 0.  0.
        -24    2    3    3    0    0 -0.12666543541E+02  0.13592204208E+03 -0.22141102935E+03  0.27202134690E+03  0.79608582477E+02 0.  0.
          6    2    1    2  501    0  0.46134606789E+02 -0.13149402211E+03  0.11116491277E+03  0.24852325422E+03  0.17316780955E+03 0.  0.
         24    2    5    5    0    0  0.55279445763E+02 -0.38698706190E+02  0.11422938329E+03  0.15510976635E+03  0.80357206427E+02 0.  0.
          5    1    5    5  501    0 -0.91448389743E+01 -0.92795315922E+02 -0.30644705264E+01  0.93413487872E+02  0.47000000000E+01 0. -1.
        -11    1    6    6    0    0 -0.14416227166E+02 -0.31775317905E+02  0.37770934337E+02  0.51421220468E+02  0.00000000000E+00 0.  1.
         12    1    6    6    0    0  0.69695672929E+02 -0.69233882853E+01  0.76458448954E+02  0.10368854588E+03  0.00000000000E+00 0. -1.
         -5    1    3    3    0  503 -0.33468063248E+02 -0.44280199638E+01 -0.21620962295E+03  0.21887989783E+03  0.47000000000E+01 0.  1.
         13    1    4    4    0    0 -0.98065462239E+01  0.12133422188E+03 -0.22579907331E+03  0.25652170133E+03  0.00000000000E+00 0. -1.
        -14    1    4    4    0    0 -0.28599973167E+01  0.14587820200E+02  0.43880439617E+01  0.15499645565E+02  0.00000000000E+00 0.  1.
</event>
<event>
12    1  0.8494789E-002  0.4217423E+03  0.7818608E-02  0.1036622E+00
         21   -1    0    0  501  502  0.00000000000E+00  0.00000000000E+00  0.18124728650E+03  0.18124728650E+03  0.00000000000E+00 0.  1.
         21   -1    0    0  502  503 -0.00000000000E+00 -0.00000000000E+00 -0.17747298419E+04  0.17747298419E+04  0.00000000000E+00 0. -1.
         -6    2    1    2    0  503 -0.16793616577E+03  0.34515744035E+03 -0.14528535021E+04  0.15128284196E+04  0.17472926031E+03 0.  0.
        -24    2    3    3    0    0 -0.65745428887E+02  0.21838809753E+03 -0.10609956779E+04  0.10884605870E+04  0.83778269645E+02 0.  0.
          6    2    1    2  501    0  0.16793616577E+03 -0.34515744035E+03 -0.14062905335E+03  0.44314870877E+03  0.17107902569E+03 0.  0.
         24    2    5    5    0    0  0.13791936588E+03 -0.14852856974E+03 -0.43654928554E+02  0.22181187967E+03  0.78817952670E+02 0.  0.
          5    1    5    5  501    0  0.30016799893E+02 -0.19662887061E+03 -0.96974124796E+02  0.22133682909E+03  0.47000000000E+01 0. -1.
        -13    1    6    6    0    0  0.40601472373E+02 -0.10029557713E+03 -0.13174168646E+02  0.10900110582E+03  0.00000000000E+00 0.  1.
         14    1    6    6    0    0  0.97317893505E+02 -0.48232992613E+02 -0.30480759907E+02  0.11281077385E+03  0.00000000000E+00 0. -1.
         -5    1    3    3    0  503 -0.10219073688E+03  0.12676934282E+03 -0.39185782418E+03  0.42436783261E+03  0.47000000000E+01 0.  1.
         13    1    4    4    0    0 -0.10243808810E+02  0.13749850346E+03 -0.48698960329E+03  0.50613204580E+03  0.00000000000E+00 0. -1.
        -14    1    4    4    0    0 -0.55501620076E+02  0.80889594072E+02 -0.57400607459E+03  0.58232854123E+03  0.00000000000E+00 0.  1.
</event>
<event>
12    1  0.8494789E-002  0.2417603E+03  0.7818608E-02  0.1118691E+00
         21   -1    0    0  501  502  0.00000000000E+00  0.00000000000E+00  0.13410380007E+03  0.13410380007E+03  0.00000000000E+00 0.  1.
         21   -1    0    0  502  503 -0.00000000000E+00 -0.00000000000E+00 -0.12558757761E+04  0.12558757761E+04  0.00000000000E+00 0. -1.
         -6    2    1    2    0  503  0.15714514069E+03 -0.62748319179E+02 -0.11228803620E+04  0.11486114806E+04  0.17267333076E+03 0.  0.
        -24    2    3    3    0    0  0.18569624439E+03 -0.49108681666E+02 -0.10241291674E+04  0.10448083319E+04  0.76740739977E+02 0.  0.
          6    2    1    2  501    0 -0.15714514069E+03  0.62748319179E+02  0.11083859922E+01  0.24136809557E+03  0.17212025515E+03 0.  0.
         24    2    5    5    0    0 -0.26125191115E+02  0.64456637657E+02  0.19543926160E+02  0.10896301756E+03  0.81570769261E+02 0.  0.
          5    1    5    5  501    0 -0.13101994958E+03 -0.17083184778E+01 -0.18435540168E+02  0.13240507800E+03  0.47000000000E+01 0. -1.
        -11    1    6    6    0    0 -0.47422567086E+02  0.49700803829E+02 -0.10275469136E+02  0.69459736800E+02  0.00000000000E+00 0.  1.
         12    1    6    6    0    0  0.21297375971E+02  0.14755833828E+02  0.29819395297E+02  0.39503280763E+02  0.00000000000E+00 0. -1.
         -5    1    3    3    0  503 -0.28551103694E+02 -0.13639637513E+02 -0.98751194602E+02  0.10380314865E+03  0.47000000000E+01 0.  1.
         13    1    4    4    0    0  0.33008481340E+02  0.47905787888E+00 -0.36171350185E+03  0.36321680407E+03  0.00000000000E+00 0. -1.
        -14    1    4    4    0    0  0.15268776305E+03 -0.49587739545E+02 -0.66241566556E+03  0.68159152788E+03  0.00000000000E+00 0.  1.
</event>
<event>
12    1  0.8494789E-002  0.1771955E+03  0.7818608E-02  0.1170694E+00
         21   -1    0    0  503  502  0.00000000000E+00  0.00000000000E+00  0.23803553606E+02  0.23803553606E+02  0.00000000000E+00 0.  1.
         21   -1    0    0  501  503 -0.00000000000E+00 -0.00000000000E+00 -0.14913558112E+04  0.14913558112E+04  0.00000000000E+00 0.  1.
          6    2    1    2  501    0 -0.17922667156E+01 -0.42493754090E+02 -0.99349377749E+03  0.10090668089E+04  0.17139722141E+03 0.  0.
         24    2    3    3    0    0 -0.27230020020E+01 -0.40120390664E+02 -0.24972276327E+03  0.26527657587E+03  0.79957130533E+02 0.  0.
         -6    2    1    2    0  502  0.17922667156E+01  0.42493754090E+02 -0.47405848012E+03  0.50609255595E+03  0.17201540993E+03 0.  0.
        -24    2    5    5    0    0 -0.65390586860E+02  0.16885858566E+02 -0.29382969575E+03  0.31199514524E+03  0.80274650284E+02 0.  0.
          5    1    3    3  501    0  0.93073528637E+00 -0.23733634265E+01 -0.74377101423E+03  0.74379023301E+03  0.47000000000E+01 0. -1.
        -13    1    4    4    0    0 -0.15896460263E+02 -0.44251796294E+02 -0.24670315274E+03  0.25114411102E+03  0.00000000000E+00 0.  1.
         14    1    4    4    0    0  0.13173458261E+02  0.41314056305E+01 -0.30196105226E+01  0.14132464851E+02  0.00000000000E+00 0. -1.
         -5    1    5    5    0  502  0.67182853575E+02  0.25607895524E+02 -0.18022878437E+03  0.19409741071E+03  0.47000000000E+01 0.  1.
         11    1    6    6    0    0  0.16090158275E+02 -0.57912850905E+01 -0.84720698574E+02  0.86429329184E+02  0.00000000000E+00 0. -1.
        -12    1    6    6    0    0 -0.81480745135E+02  0.22677143657E+02 -0.20910899717E+03  0.22556581605E+03  0.00000000000E+00 0.  1.
</event>
<event>
12    1  0.8494789E-002  0.2112408E+03  0.7818608E-02  0.1140677E+00
         21   -1    0    0  501  502  0.00000000000E+00  0.00000000000E+00  0.62349238437E+03  0.62349238437E+03  0.00000000000E+00 0. -1.
         21   -1    0    0  502  503 -0.00000000000E+00 -0.00000000000E+00 -0.78876860354E+02  0.78876860354E+02  0.00000000000E+00 0.  1.
         -6    2    1    2    0  503  0.10378217273E+03  0.65577976108E+02  0.16454963065E+03  0.26776717200E+03  0.17190540168E+03 0.  0.
        -24    2    3    3    0    0  0.11462268610E+03  0.96633044759E+02  0.10913720464E+03  0.20315632944E+03  0.82977462293E+02 0.  0.
          6    2    1    2  501    0 -0.10378217273E+03 -0.65577976108E+02  0.38006589337E+03  0.43460207273E+03  0.17134079488E+03 0.  0.
         24    2    5    5    0    0 -0.40416957995E+02 -0.88288868763E+02  0.15799590388E+03  0.20250703763E+03  0.81350720995E+02 0.  0.
          5    1    5    5  501    0 -0.63365214739E+02  0.22710892655E+02  0.22206998949E+03  0.23209503510E+03  0.47000000000E+01 0. -1.
        -13    1    6    6    0    0  0.83373775037E+01 -0.67748064542E+02  0.11747840963E+03  0.13586938155E+03  0.00000000000E+00 0.  1.
         14    1    6    6    0    0 -0.48754335499E+02 -0.20540804221E+02  0.40517494246E+02  0.66637656081E+02  0.00000000000E+00 0. -1.
         -5    1    3    3    0  503 -0.10840513368E+02 -0.31055068652E+02  0.55412426011E+02  0.64610842553E+02  0.47000000000E+01 0.  1.
         13    1    4    4    0    0  0.27992349299E+02  0.40844901129E+02  0.83333928335E+02  0.96935139033E+02  0.00000000000E+00 0. -1.
        -14    1    4    4    0    0  0.86630336804E+02  0.55788143630E+02  0.25803276300E+02  0.10622119041E+03  0.00000000000E+00 0.  1.
</event>
<event>
12    1  0.8494789E-002  0.1763449E+03  0.7818608E-02  0.1176296E+00
         21   -1    0    0  503  502  0.00000000000E+00  0.00000000000E+00  0.89868381034E+02  0.89868381034E+02  0.00000000000E+00 0. -1.
         21   -1    0    0  501  503 -0.00000000000E+00 -0.00000000000E+00 -0.35497293766E+03  0.35497293766E+03  0.00000000000E+00 0. -1.
          6    2    1    2  501    0  0.25037586822E+02 -0.10836992678E+02 -0.20473065547E+03  0.25844784095E+03  0.15535869476E+03 0.  0.
         24    2    3    3    0    0  0.61716593136E+02  0.27528212353E+02 -0.12769266714E+03  0.16477724734E+03  0.79242562145E+02 0.  0.
         -6    2    1    2    0  502 -0.25037586822E+02  0.10836992678E+02 -0.60373901156E+02  0.18639347775E+03  0.17422169624E+03 0.  0.
        -24    2    5    5    0    0 -0.87715004321E+01  0.66862769022E+02 -0.16504844386E+01  0.10348387123E+03  0.78476865415E+02 0.  0.
          5    1    3    3  501    0 -0.36679006314E+02 -0.38365205030E+02 -0.77037988333E+02  0.93670593611E+02  0.47000000000E+01 0. -1.
        -13    1    4    4    0    0  0.49175094397E+02  0.97981704567E+01 -0.18499796268E+02  0.53445640750E+02  0.00000000000E+00 0.  1.
         14    1    4    4    0    0  0.12541498739E+02  0.17730041896E+02 -0.10919287087E+03  0.11133160659E+03  0.00000000000E+00 0. -1.
         -5    1    5    5    0  502 -0.16266086390E+02 -0.56025776344E+02 -0.58723416717E+02  0.82909606515E+02  0.47000000000E+01 0.  1.
         11    1    6    6    0    0  0.34202171217E+02  0.39448615246E+02 -0.46827437420E+01  0.52420509820E+02  0.00000000000E+00 0. -1.
        -12    1    6    6    0    0 -0.42973671650E+02  0.27414153776E+02  0.30322593034E+01  0.51063361413E+02  0.00000000000E+00 0.  1.
</event>
<event>
12    1  0.8494789E-002  0.2474973E+03  0.7818608E-02  0.1115045E+00
         21   -1    0    0  503  502  0.00000000000E+00  0.00000000000E+00  0.92630306256E+02  0.92630306256E+02  0.00000000000E+00 0. -1.
         21   -1    0    0  501  503 -0.00000000000E+00 -0.00000000000E+00 -0.71137311863E+03  0.71137311863E+03  0.00000000000E+00 0.  1.
          6    2    1    2  501    0  0.54070338456E+02 -0.16838586112E+03 -0.41916591309E+03  0.48678019305E+03  0.17314009912E+03 0.  0.
         24    2    3    3    0    0  0.77552824456E+02 -0.17338413947E+03 -0.41397551953E+03  0.46177139219E+03  0.76030174762E+02 0.  0.
         -6    2    1    2    0  502 -0.54070338456E+02  0.16838586112E+03 -0.19957689928E+03  0.31722323184E+03  0.17182037238E+03 0.  0.
        -24    2    5    5    0    0  0.31516862985E+02  0.50581839332E+02 -0.10317902304E+03  0.14253036666E+03  0.78212272072E+02 0.  0.
          5    1    3    3  501    0 -0.23482486000E+02  0.49982783518E+01 -0.51903935620E+01  0.25008800862E+02  0.47000000000E+01 0. -1.
        -13    1    4    4    0    0  0.77672742390E+02 -0.14657801882E+03 -0.39641742253E+03  0.42972659145E+03  0.00000000000E+00 0.  1.
         14    1    4    4    0    0 -0.11991793371E+00 -0.26806120642E+02 -0.17558096999E+02  0.32044800739E+02  0.00000000000E+00 0. -1.
         -5    1    5    5    0  502 -0.85587201441E+02  0.11780402178E+03 -0.96397876247E+02  0.17469286518E+03  0.47000000000E+01 0.  1.
         11    1    6    6    0    0  0.24273978034E+01 -0.20957175701E+02 -0.22823048682E+02  0.31080331797E+02  0.00000000000E+00 0. -1.
        -12    1    6    6    0    0  0.29089465181E+02  0.71539015033E+02 -0.80355974354E+02  0.11145003486E+03  0.00000000000E+00 0.  1.
</event>
<event>
12    1  0.8494789E-002  0.2074325E+03  0.7818608E-02  0.1143651E+00
         21   -1    0    0  501  502  0.00000000000E+00  0.00000000000E+00  0.59487269460E+02  0.59487269460E+02  0.00000000000E+00 0.  1.
         21   -1    0    0  502  503 -0.00000000000E+00 -0.00000000000E+00 -0.15559600651E+04  0.15559600651E+04  0.00000000000E+00 0. -1.
         -6    2    1    2    0  503 -0.59787920183E+02 -0.97994151804E+02 -0.13394724743E+04  0.13554389520E+04  0.17277382298E+03 0.  0.
        -24    2    3    3    0    0  0.17368427054E+02 -0.97623008379E+02 -0.92863832165E+03  0.93739585533E+03  0.80684218494E+02 0.  0.
          6    2    1    2  501    0  0.59787920183E+02  0.97994151804E+02 -0.15700032129E+03  0.26000838255E+03  0.17256247831E+03 0.  0.
         24    2    5    5    0    0 -0.17718663434E+01  0.10206682509E+03 -0.61603734158E+02  0.14630353295E+03  0.84787542700E+02 0.  0.
          5    1    5    5  501    0  0.61559786527E+02 -0.40726732897E+01 -0.95396587132E+02  0.11370484959E+03  0.47000000000E+01 0. -1.
        -11    1    6    6    0    0  0.26554931420E+02  0.97537561719E+02 -0.60041693710E+02  0.11757442457E+03  0.00000000000E+00 0.  1.
         12    1    6    6    0    0 -0.28326797763E+02  0.45292633747E+01 -0.15620404482E+01  0.28729108385E+02  0.00000000000E+00 0. -1.
         -5    1    3    3    0  503 -0.77156347237E+02 -0.37114342414E+00 -0.41083415265E+03  0.41804309664E+03  0.47000000000E+01 0.  1.
         13    1    4    4    0    0 -0.17107061345E+02 -0.45668274266E+01 -0.33922925022E+03  0.33969102382E+03  0.00000000000E+00 0. -1.
        -14    1    4    4    0    0  0.34475488399E+02 -0.93056180953E+02 -0.58940907144E+03  0.59770483151E+03  0.00000000000E+00 0.  1.
</event>
<event>
12    1  0.8494789E-002  0.1744234E+03  0.7818608E-02  0.1173689E+00
         21   -1    0    0  501  502  0.00000000000E+00  0.00000000000E+00  0.16837896239E+03  0.16837896239E+03  0.00000000000E+00 0. -1.
         21   -1    0    0  502  503 -0.00000000000E+00 -0.00000000000E+00 -0.17925984638E+03  0.17925984638E+03  0.00000000000E+00 0. -1.
         -6    2    1    2    0  503  0.72111280178E+01 -0.14033313365E+02 -0.98467463972E+01  0.17470110791E+03  0.17370833152E+03 0.  0.
        -24    2    3    3    0    0  0.36679361083E+02 -0.33210851052E+02 -0.60899611717E+02  0.11253488099E+03  0.80665981529E+02 0.  0.
          6    2    1    2  501    0 -0.72111280178E+01  0.14033313365E+02 -0.10341375982E+01  0.17293770086E+03  0.17221336965E+03 0.  0.
         24    2    5    5    0    0  0.61005384376E+02  0.19188906688E+02  0.54722224652E+01  0.10405740305E+03  0.81903155295E+02 0.  0.
          5    1    5    5  501    0 -0.68216512394E+02 -0.51555933224E+01 -0.65063600634E+01  0.68880297814E+02  0.47000000000E+01 0. -1.
        -11    1    6    6    0    0  0.28456006190E+02  0.35893732754E+02  0.34508756387E+02  0.57349442950E+02  0.00000000000E+00 0.  1.
         12    1    6    6    0    0  0.32549378186E+02 -0.16704826066E+02 -0.29036533921E+02  0.46707960096E+02  0.00000000000E+00 0. -1.
         -5    1    3    3    0  503 -0.29468233065E+02  0.19177537686E+02  0.51052865320E+02  0.62166226916E+02  0.47000000000E+01 0.  1.
         11    1    4    4    0    0  0.18370514031E+02 -0.33822359657E+02  0.96211556672E+01  0.39673598713E+02  0.00000000000E+00 0. -1.
        -12    1    4    4    0    0  0.18308847052E+02  0.61150860535E+00 -0.70520767384E+02  0.72861282281E+02  0.00000000000E+00 0.  1.
</event>
<event>
12    1  0.8494789E-002  0.2565533E+03  0.7818608E-02  0.1109577E+00
         21   -1    0    0  501  502  0.00000000000E+00  0.00000000000E+00  0.12819883999E+03  0.12819883999E+03  0.00000000000E+00 0.  1.
         21   -1    0    0  502  503 -0.00000000000E+00 -0.00000000000E+00 -0.65973409139E+03  0.65973409139E+03  0.00000000000E+00 0.  1.
         -6    2    1    2    0  503  0.95998964372E+02 -0.16373637103E+03 -0.45502958360E+03  0.52237106710E+03  0.17260999228E+03 0.  0.
        -24    2    3    3    0    0  0.29329543862E+01 -0.40069554677E+02 -0.95022289123E+02  0.13047553796E+03  0.79877776279E+02 0.  0.
          6    2    1    2  501    0 -0.95998964372E+02  0.16373637103E+03 -0.76505667794E+02  0.26556186428E+03  0.16924711577E+03 0.  0.
         24    2    5    5    0    0 -0.13573283571E+02  0.96229884649E+02 -0.15047955304E+01  0.13518418444E+03  0.93957834095E+02 0.  0.
          5    1    5    5  501    0 -0.82425680802E+02  0.67506486376E+02 -0.75000872264E+02  0.13037767983E+03  0.47000000000E+01 0. -1.
        -11    1    6    6    0    0 -0.32232764266E+02  0.10786983203E+03  0.34702292920E+01  0.11263611431E+03  0.00000000000E+00 0.  1.
         12    1    6    6    0    0  0.18659480696E+02 -0.11639947383E+02 -0.49750248224E+01  0.22548070137E+02  0.00000000000E+00 0. -1.
         -5    1    3    3    0  503  0.93066009986E+02 -0.12366681635E+03 -0.36000729448E+03  0.39189552914E+03  0.47000000000E+01 0.  1.
         13    1    4    4    0    0  0.12969411794E+02  0.21906096509E+02 -0.37505089036E+02  0.45328957744E+02  0.00000000000E+00 0. -1.
        -14    1    4    4    0    0 -0.10036457408E+02 -0.61975651187E+02 -0.57517200087E+02  0.85146580220E+02  0.00000000000E+00 0.  1.
</event>
<event>
12    1  0.8494789E-002  0.2461247E+03  0.7818608E-02  0.1115936E+00
         21   -1    0    0  503  502  0.00000000000E+00  0.00000000000E+00  0.15180953406E+03  0.15180953406E+03  0.00000000000E+00 0.  1.
         21   -1    0    0  501  503 -0.00000000000E+00 -0.00000000000E+00 -0.49128304213E+03  0.49128304213E+03  0.00000000000E+00 0.  1.
          6    2    1    2  501    0 -0.10939726221E+03  0.13656802604E+03 -0.29492114245E+02  0.24788537943E+03  0.17308607632E+03 0.  0.
         24    2    3    3    0    0 -0.48539373800E+02  0.30268891133E+02  0.41274624046E+02  0.10634665712E+03  0.79584799502E+02 0.  0.
         -6    2    1    2    0  502  0.10939726221E+03 -0.13656802604E+03 -0.30998139382E+03  0.39520719676E+03  0.17170229217E+03 0.  0.
        -24    2    5    5    0    0  0.85167216542E+02 -0.42953187330E+02 -0.87512108924E+02  0.15258505048E+03  0.80779931586E+02 0.  0.
          5    1    3    3  501    0 -0.60857888408E+02  0.10629913491E+03 -0.70766738292E+02  0.14153872231E+03  0.47000000000E+01 0. -1.
        -11    1    4    4    0    0  0.22241136400E+01  0.44418792372E+02  0.12009799040E+02  0.46067462165E+02  0.00000000000E+00 0.  1.
         12    1    4    4    0    0 -0.50763487440E+02 -0.14149901239E+02  0.29264825006E+02  0.60279194958E+02  0.00000000000E+00 0. -1.
         -5    1    5    5    0  502  0.24230045666E+02 -0.93614838713E+02 -0.22246928490E+03  0.24262214628E+03  0.47000000000E+01 0.  1.
         11    1    6    6    0    0 -0.17697319254E+01 -0.14132608462E+02  0.11057671359E+02  0.18031491034E+02  0.00000000000E+00 0. -1.
        -12    1    6    6    0    0  0.86936948467E+02 -0.28820578868E+02 -0.98569780283E+02  0.13455355945E+03  0.00000000000E+00 0.  1.
</event>
<event>
12    1  0.8494789E-002  0.2295063E+03  0.7818608E-02  0.1127682E+00
         21   -1    0    0  501  502  0.00000000000E+00  0.00000000000E+00  0.50297779683E+02  0.50297779683E+02  0.00000000000E+00 0.  1.
         21   -1    0    0  502  503 -0.00000000000E+00 -0.00000000000E+00 -0.10295841678E+04  0.10295841678E+04  0.00000000000E+00 0.  1.
         -6    2    1    2    0  503 -0.70900612999E+02  0.12742931916E+03 -0.49012899513E+03  0.53955972617E+03  0.17214278354E+03 0.  0.
        -24    2    3    3    0    0 -0.10094904466E+03  0.72058212402E+02 -0.41799464232E+03  0.44367269595E+03  0.82114825250E+02 0.  0.
          6    2    1    2  501    0  0.70900612999E+02 -0.12742931916E+03 -0.48915739299E+03  0.54032222132E+03  0.17722307815E+03 0.  0.
         24    2    5    5    0    0  0.90639810850E+02 -0.13685806730E+03 -0.48394761676E+03  0.51734899796E+03  0.80616276435E+02 0.  0.
          5    1    5    5  501    0 -0.19739197851E+02  0.94287481359E+01 -0.52097762292E+01  0.22973223360E+02  0.47000000000E+01 0. -1.
        -13    1    6    6    0    0  0.58703197454E+02 -0.74987398508E+02 -0.16165087580E+03  0.18761711269E+03  0.00000000000E+00 0.  1.
         14    1    6    6    0    0  0.31936613396E+02 -0.61870668791E+02 -0.32229674095E+03  0.32973188527E+03  0.00000000000E+00 0. -1.
         -5    1    3    3    0  503  0.30048431661E+02  0.55371106761E+02 -0.72134352809E+02  0.95887030220E+02  0.47000000000E+01 0.  1.
         11    1    4    4    0    0 -0.12496728388E+02  0.53394950570E+02 -0.11369106648E+03  0.12622538399E+03  0.00000000000E+00 0. -1.
        -12    1    4    4    0    0 -0.88452316272E+02  0.18663261831E+02 -0.30430357584E+03  0.31744731195E+03  0.00000000000E+00 0.  1.
</event>
<event>
12    1  0.8494789E-002  0.1727177E+03  0.7818608E-02  0.1175271E+00
         21   -1    0    0  503  502  0.00000000000E+00  0.00000000000E+00  0.16716488190E+03  0.16716488190E+03  0.00000000000E+00 0. -1.
         21   -1    0    0  501  503 -0.00000000000E+00 -0.00000000000E+00 -0.34758811061E+03  0.34758811061E+03  0.00000000000E+00 0. -1.
          6    2    1    2  501    0 -0.76109005976E+00  0.43881474460E+01 -0.27035268392E+03  0.32081455403E+03  0.17266027128E+03 0.  0.
         24    2    3    3    0    0  0.63193170510E+02  0.21714620137E+02 -0.13258265261E+03  0.16786676677E+03  0.78333837419E+02 0.  0.
         -6    2    1    2    0  502  0.76109005976E+00 -0.43881474460E+01  0.89929455219E+02  0.19393843848E+03  0.17177012519E+03 0.  0.
        -24    2    5    5    0    0  0.57807487758E+02 -0.38154412382E+02  0.53886713531E+02  0.11833670989E+03  0.79387241961E+02 0.  0.
          5    1    3    3  501    0 -0.63954260570E+02 -0.17326472692E+02 -0.13777003131E+03  0.15294778726E+03  0.47000000000E+01 0. -1.
        -13    1    4    4    0    0  0.41596291657E+02 -0.20403438912E+02 -0.30850143640E+02  0.55662223830E+02  0.00000000000E+00 0.  1.
         14    1    4    4    0    0  0.21596878853E+02  0.42118059049E+02 -0.10173250897E+03  0.11220454294E+03  0.00000000000E+00 0. -1.
         -5    1    5    5    0  502 -0.57046397699E+02  0.33766264936E+02  0.36042741687E+02  0.75601728594E+02  0.47000000000E+01 0.  1.
         11    1    6    6    0    0  0.49372429171E+02  0.10771309699E+02  0.88446387230E+01  0.51301905510E+02  0.00000000000E+00 0. -1.
        -12    1    6    6    0    0  0.84350585877E+01 -0.48925722081E+02  0.45042074808E+02  0.67034804375E+02  0.00000000000E+00 0.  1.
</event>
<event>
12    1  0.8494789E-002  0.2993032E+03  0.7818608E-02  0.1085591E+00
         21   -1    0    0  503  502  0.00000000000E+00  0.00000000000E+00  0.73667264639E+03  0.73667264639E+03  0.00000000000E+00 0.  1.
         21   -1    0    0  501  503 -0.00000000000E+00 -0.00000000000E+00 -0.12160047981E+03  0.12160047981E+03  0.00000000000E+00 0. -1.
          6    2    1    2  501    0  0.24388404447E+03 -0.42316540931E+02  0.30742066442E+03  0.42905697368E+03  0.16826260714E+03 0.  0.
         24    2    3    3    0    0  0.53845028225E+02 -0.82638943388E+01  0.56501735207E+02  0.11242341659E+03  0.80492232556E+02 0.  0.
         -6    2    1    2    0  502 -0.24388404447E+03  0.42316540931E+02  0.30765150216E+03  0.42921615252E+03  0.16824667015E+03 0.  0.
        -24    2    5    5    0    0 -0.17993142047E+03 -0.15462986367E+02  0.14821511585E+03  0.24791402023E+03  0.82941068493E+02 0.  0.
          5    1    3    3  501    0  0.19003901625E+03 -0.34052646592E+02  0.25091892922E+03  0.31663355709E+03  0.47000000000E+01 0. -1.
        -11    1    4    4    0    0  0.36907049831E+02 -0.44081071428E+02  0.35706910045E+02  0.67677578344E+02  0.00000000000E+00 0.  1.
         12    1    4    4    0    0  0.16937978394E+02  0.35817177089E+02  0.20794825163E+02  0.44745838245E+02  0.00000000000E+00 0. -1.
         -5    1    5    5    0  502 -0.63952624003E+02  0.57779527298E+02  0.15943638630E+03  0.18130213228E+03  0.47000000000E+01 0.  1.
         11    1    6    6    0    0 -0.12032174030E+03 -0.59709547644E+01  0.14350809547E+03  0.18737008021E+03  0.00000000000E+00 0. -1.
        -12    1    6    6    0    0 -0.59609680166E+02 -0.94920316028E+01  0.47070203801E+01  0.60543940029E+02  0.00000000000E+00 0.  1.
</event>
<event>
12    1  0.8494789E-002  0.1803844E+03  0.7818608E-02  0.1167443E+00
         21   -1    0    0  501  502  0.00000000000E+00  0.00000000000E+00  0.51921661641E+02  0.51921661641E+02  0.00000000000E+00 0. -1.
         21   -1    0    0  502  503 -0.00000000000E+00 -0.00000000000E+00 -0.90783347119E+03  0.90783347119E+03  0.00000000000E+00 0. -1.
         -6    2    1    2    0  503 -0.33260409864E+02  0.41837490099E+02 -0.69504674418E+03  0.71806093261E+03  0.17223500198E+03 0.  0.
        -24    2    3    3    0    0 -0.12500724632E+02 -0.14101724711E+02 -0.60201150846E+03  0.60743631795E+03  0.78777517644E+02 0.  0.
          6    2    1    2  501    0  0.33260409864E+02 -0.41837490099E+02 -0.16086506537E+03  0.24169420022E+03  0.17228431943E+03 0.  0.
         24    2    5    5    0    0 -0.13169268241E+02  0.35757621609E+02 -0.61437077789E+02  0.10721471820E+03  0.79173506570E+02 0.  0.
          5    1    5    5  501    0  0.46429678105E+02 -0.77595111708E+02 -0.99427987585E+02  0.13447948202E+03  0.47000000000E+01 0. -1.
        -13    1    6    6    0    0  0.24631384585E+02 -0.31063621193E+01 -0.43541909806E+02  0.50122375260E+02  0.00000000000E+00 0.  1.
         14    1    6    6    0    0 -0.37800652826E+02  0.38863983728E+02 -0.17895167983E+02  0.57092342941E+02  0.00000000000E+00 0. -1.
         -5    1    3    3    0  503 -0.20759685232E+02  0.55939214811E+02 -0.93035235719E+02  0.11062461467E+03  0.47000000000E+01 0.  1.
         13    1    4    4    0    0 -0.31083331312E+02 -0.36788341657E+02 -0.28192117687E+03  0.28600542920E+03  0.00000000000E+00 0. -1.
        -14    1    4    4    0    0  0.18582606680E+02  0.22686616946E+02 -0.32009033159E+03  0.32143088874E+03  0.00000000000E+00 0.  1.
</event>
<event>
12    1  0.8494789E-002  0.1797608E+03  0.7818608E-02  0.1168331E+00
         21   -1    0    0  501  502  0.00000000000E+00  0.00000000000E+00  0.11955966546E+02  0.11955966546E+02  0.00000000000E+00 0. -1.
         21   -1    0    0  502  503 -0.00000000000E+00 -0.00000000000E+00 -0.30083077893E+04  0.30083077893E+04  0.00000000000E+00 0.  1.
         -6    2    1    2    0  503 -0.43977843867E+02  0.24585624447E+02 -0.19981822487E+04  0.20062517930E+04  0.17255565545E+03 0.  0.
        -24    2    3    3    0    0 -0.93538709975E+02  0.14951706738E+01 -0.12477757107E+04  0.12538413260E+04  0.80138136389E+02 0.  0.
          6    2    1    2  501    0  0.43977843867E+02 -0.24585624447E+02 -0.99816957410E+03  0.10140119629E+04  0.17128706472E+03 0.  0.
         24    2    5    5    0    0  0.37880044775E+02 -0.52980723178E+01 -0.24246928936E+03  0.25802637891E+03  0.79519108209E+02 0.  0.
          5    1    5    5  501    0  0.60977990921E+01 -0.19287552129E+02 -0.75570028474E+03  0.75598558398E+03  0.47000000000E+01 0. -1.
        -11    1    6    6    0    0  0.23747324117E+02  0.26213070513E+02 -0.20086787715E+03  0.20395824215E+03  0.00000000000E+00 0.  1.
         12    1    6    6    0    0  0.14132720658E+02 -0.31511142830E+02 -0.41601412207E+02  0.54068136765E+02  0.00000000000E+00 0. -1.
         -5    1    3    3    0  503  0.49560866108E+02  0.23090453773E+02 -0.75040653801E+03  0.75241046696E+03  0.47000000000E+01 0.  1.
         13    1    4    4    0    0 -0.91708197818E+02  0.10287209483E+02 -0.70776210248E+03  0.71375304828E+03  0.00000000000E+00 0. -1.
        -14    1    4    4    0    0 -0.18305121578E+01 -0.87920388094E+01 -0.54001360820E+03  0.54008827775E+03  0.00000000000E+00 0.  1.
</event>
<event>
12    1  0.8494789E-002  0.2158748E+03  0.7818608E-02  0.1137211E+00
         21   -1    0    0  503  502  0.00000000000E+00  0.00000000000E+00  0.63131187127E+02  0.63131187127E+02  0.00000000000E+00 0. -1.
         21   -1    0    0  501  503 -0.00000000000E+00 -0.00000000000E+00 -0.81170956118E+03  0.81170956118E+03  0.00000000000E+00 0.  1.
          6    2    1    2  501    0 -0.12705658147E+03  0.27940794636E+02 -0.51020209777E+03  0.55399288786E+03  0.17227268015E+03 0.  0.
         24    2    3    3    0    0 -0.14938617062E+03 -0.81159591401E+01 -0.35687801159E+03  0.39484181043E+03  0.78460457174E+02 0.  0.
         -6    2    1    2    0  502  0.12705658147E+03 -0.27940794636E+02 -0.23837627628E+03  0.32084786045E+03  0.17086848030E+03 0.  0.
        -24    2    5    5    0    0  0.87737874132E+01  0.45935585641E+01 -0.11212947811E+03  0.14475229674E+03  0.91006194427E+02 0.  0.
          5    1    3    3  501    0  0.22329589143E+02  0.36056753776E+02 -0.15332408618E+03  0.15915107743E+03  0.47000000000E+01 0. -1.
        -13    1    4    4    0    0 -0.20754998388E+02 -0.26907743391E+02 -0.11904196677E+03  0.12379736049E+03  0.00000000000E+00 0.  1.
         14    1    4    4    0    0 -0.12863117223E+03  0.18791784251E+02 -0.23783604483E+03  0.27104444994E+03  0.00000000000E+00 0. -1.
         -5    1    5    5    0  502  0.11828279406E+03 -0.32534353200E+02 -0.12624679816E+03  0.17609556370E+03  0.47000000000E+01 0.  1.
         11    1    6    6    0    0 -0.10671220995E+02 -0.37924246466E+02 -0.27428837683E+02  0.48004838966E+02  0.00000000000E+00 0. -1.
        -12    1    6    6    0    0  0.19445008408E+02  0.42517805030E+02 -0.84700640431E+02  0.96747457776E+02  0.00000000000E+00 0.  1.
</event>
<event>
12    1  0.8494789E-002  0.1867003E+03  0.7818608E-02  0.1161484E+00
         21   -1    0    0  503  502  0.00000000000E+00  0.00000000000E+00  0.23317772738E+02  0.23317772738E+02  0.00000000000E+00 0.  1.
         21   -1    0    0  501  503 -0.00000000000E+00 -0.00000000000E+00 -0.14997270614E+04  0.14997270614E+04  0.00000000000E+00 0.  1.
          6    2    1    2  501    0 -0.53862954647E+02  0.50067399484E+02 -0.69310534405E+03  0.71781058191E+03  0.17160725854E+03 0.  0.
         24    2    3    3    0    0 -0.20617979082E+01  0.25789915516E+02 -0.61549443730E+03  0.62127924548E+03  0.80530290962E+02 0.  0.
         -6    2    1    2    0  502  0.53862954647E+02 -0.50067399484E+02 -0.78330394464E+03  0.80523425225E+03  0.17154931925E+03 0.  0.
        -24    2    5    5    0    0  0.20921206442E+02  0.72941892422E+01 -0.18453461223E+03  0.20280391265E+03  0.81151104737E+02 0.  0.
          5    1    3    3  501    0 -0.51801156739E+02  0.24277483968E+02 -0.77610906746E+02  0.96531336431E+02  0.47000000000E+01 0. -1.
        -11    1    4    4    0    0  0.87417650230E+01  0.32939639853E+02 -0.10048513312E+03  0.10610702289E+03  0.00000000000E+00 0.  1.
         12    1    4    4    0    0 -0.10803562931E+02 -0.71497243376E+01 -0.51500930419E+03  0.51517222259E+03  0.00000000000E+00 0. -1.
         -5    1    5    5    0  502  0.32941748205E+02 -0.57361588726E+02 -0.59876933241E+03  0.60243033960E+03  0.47000000000E+01 0.  1.
         13    1    6    6    0    0 -0.91325495587E+01  0.19139686647E+02 -0.16208220023E+03  0.16346366783E+03  0.00000000000E+00 0. -1.
        -14    1    6    6    0    0  0.30053756001E+02 -0.11845497405E+02 -0.22452411997E+02  0.39340244826E+02  0.00000000000E+00 0.  1.
</event>
<event>
12    1  0.8494789E-002  0.1910960E+03  0.7818608E-02  0.1159182E+00
         21   -1    0    0  503  502  0.00000000000E+00  0.00000000000E+00  0.14174392361E+03  0.14174392361E+03  0.00000000000E+00 0.  1.
         21   -1    0    0  501  503 -0.00000000000E+00 -0.00000000000E+00 -0.39109522815E+03  0.39109522815E+03  0.00000000000E+00 0.  1.
          6    2    1    2  501    0 -0.81145053208E+02 -0.77110495370E+01 -0.28756360284E+03  0.34526876752E+03  0.17284014638E+03 0.  0.
         24    2    3    3    0    0 -0.43467608064E+02 -0.44662222238E+02 -0.76547065487E+02  0.12770257512E+03  0.81020660407E+02 0.  0.
         -6    2    1    2    0  502  0.81145053208E+02  0.77110495370E+01  0.38212298305E+02  0.18757038424E+03  0.16455542944E+03 0.  0.
        -24    2    5    5    0    0  0.64715748307E+02 -0.26778316378E+02 -0.28593745725E+02  0.11046930812E+03  0.80502543029E+02 0.  0.
          5    1    3    3  501    0 -0.37677445144E+02  0.36951172701E+02 -0.21101653736E+03  0.21756619240E+03  0.47000000000E+01 0. -1.
        -13    1    4    4    0    0 -0.39775697252E+02 -0.64952995574E+02 -0.75202882509E+02  0.10703490675E+03  0.00000000000E+00 0.  1.
         14    1    4    4    0    0 -0.36919108123E+01  0.20290773336E+02 -0.13441829775E+01  0.20667668371E+02  0.00000000000E+00 0. -1.
         -5    1    5    5    0  502  0.16429304901E+02  0.34489365915E+02  0.66806044030E+02  0.77101076125E+02  0.47000000000E+01 0.  1.
         13    1    6    6    0    0  0.15180647289E+02 -0.49810631136E+02 -0.14436144305E+02  0.54036592127E+02  0.00000000000E+00 0. -1.
        -14    1    6    6    0    0  0.49535101018E+02  0.23032314759E+02 -0.14157601419E+02  0.56432715989E+02  0.00000000000E+00 0.  1.
</event>
<event>
12    1  0.8494789E-002  0.1883996E+03  0.7818608E-02  0.1159998E+00
         21   -1    0    0  503  502  0.00000000000E+00  0.00000000000E+00  0.53885823292E+03  0.53885823292E+03  0.00000000000E+00 0.  1.
         21   -1    0    0  501  503 -0.00000000000E+00 -0.00000000000E+00 -0.77337611297E+02  0.77337611297E+02  0.00000000000E+00 0.  1.
          6    2    1    2  501    0 -0.23221472119E+02  0.72751003620E+02  0.11164262813E+03  0.21899425182E+03  0.17222793217E+03 0.  0.
         24    2    3    3    0    0 -0.90536233880E+01  0.11538918098E+03  0.91023328861E+02  0.16933554052E+03  0.83622052730E+02 0.  0.
         -6    2    1    2    0  502  0.23221472119E+02 -0.72751003620E+02  0.34987799350E+03  0.39720159240E+03  0.17182127160E+03 0.  0.
        -24    2    5    5    0    0  0.64814316463E+02 -0.52193013770E+02  0.32463956290E+03  0.34417646603E+03  0.78368282248E+02 0.  0.
          5    1    3    3  501    0 -0.14167848731E+02 -0.42638177358E+02  0.20619299265E+02  0.49658711303E+02  0.47000000000E+01 0. -1.
        -13    1    4    4    0    0 -0.10585240645E+01  0.10873457499E+03  0.37826325536E+02  0.11513105217E+03  0.00000000000E+00 0.  1.
         14    1    4    4    0    0 -0.79950993235E+01  0.66546059896E+01  0.53197003325E+02  0.54204488345E+02  0.00000000000E+00 0. -1.
         -5    1    5    5    0  502 -0.41592844344E+02 -0.20557989850E+02  0.25238430595E+02  0.53025126366E+02  0.47000000000E+01 0.  1.
         13    1    6    6    0    0 -0.50500277019E+01 -0.30396103204E+01 -0.22505581943E+01  0.63092806940E+01  0.00000000000E+00 0. -1.
        -14    1    6    6    0    0  0.69864344164E+02 -0.49153403450E+02  0.32689012110E+03  0.33786718534E+03  0.00000000000E+00 0.  1.
</event>
<event>
12    1  0.8494789E-002  0.1941169E+03  0.7818608E-02  0.1154875E+00
         21   -1    0    0  501  502  0.00000000000E+00  0.00000000000E+00  0.30759663006E+02  0.30759663006E+02  0.00000000000E+00 0.  1.
         21   -1    0    0  502  503 -0.00000000000E+00 -0.00000000000E+00 -0.14391203612E+04  0.14391203612E+04  0.00000000000E+00 0.  1.
         -6    2    1    2    0  503  0.10737738200E+02  0.90935217006E+02 -0.98855053464E+03  0.10073630438E+04  0.17077362151E+03 0.  0.
        -24    2    3    3    0    0  0.62466199190E+02  0.81009849245E+02 -0.82781681115E+03  0.83815380510E+03  0.82197971157E+02 0.  0.
          6    2    1    2  501    0 -0.10737738200E+02 -0.90935217006E+02 -0.41981016354E+03  0.46251698038E+03  0.17116328756E+03 0.  0.
         24    2    5    5    0    0  0.50553916119E+02 -0.53072564371E+01 -0.16076457411E+03  0.18284659952E+03  0.70737297540E+02 0.  0.
          5    1    5    5  501    0 -0.61291654319E+02 -0.85627960569E+02 -0.25904558943E+03  0.27967038085E+03  0.47000000000E+01 0. -1.
        -13    1    6    6    0    0 -0.73894236359E+01 -0.19749905424E+02 -0.16710016978E+02  0.26905148454E+02  0.00000000000E+00 0.  1.
         14    1    6    6    0    0  0.57943339755E+02  0.14442648987E+02 -0.14405455713E+03  0.15594145107E+03  0.00000000000E+00 0. -1.
         -5    1    3    3    0  503 -0.51728460990E+02  0.99253677610E+01 -0.16073372348E+03  0.16920923871E+03  0.47000000000E+01 0.  1.
         13    1    4    4    0    0  0.21837222246E+02  0.25389294349E+02 -0.74334315844E+02  0.81529571659E+02  0.00000000000E+00 0. -1.
        -14    1    4    4    0    0  0.40628976945E+02  0.55620554896E+02 -0.75348249531E+03  0.75662423344E+03  0.00000000000E+00 0.  1.
</event>
<event>
12    1  0.8494789E-002  0.2531859E+03  0.7818608E-02  0.1111533E+00
         21   -1    0    0  501  502  0.00000000000E+00  0.00000000000E+00  0.65990455571E+02  0.65990455571E+02  0.00000000000E+00 0. -1.
         21   -1    0    0  502  503 -0.00000000000E+00 -0.00000000000E+00 -0.97845062931E+03  0.97845062931E+03  0.00000000000E+00 0.  1.
         -6    2    1    2    0  503 -0.13733464314E+02 -0.18512499069E+03 -0.39570673459E+03  0.46899585538E+03  0.17003947290E+03 0.  0.
        -24    2    3    3    0    0 -0.53996185699E+02 -0.72386023871E+02 -0.14076138901E+03  0.18730385938E+03  0.84342412722E+02 0.  0.
          6    2    1    2  501    0  0.13733464314E+02  0.18512499069E+03 -0.51675343916E+03  0.57544522951E+03  0.17217207980E+03 0.  0.
         24    2    5    5    0    0 -0.33615720964E+01  0.84427929826E+02 -0.12432169792E+03  0.16991237034E+03  0.79214604200E+02 0.  0.
          5    1    5    5  501    0  0.17095036411E+02  0.10069706087E+03 -0.39243174123E+03  0.40553285917E+03  0.47000000000E+01 0. -1.
        -13    1    6    6    0    0  0.37390989887E+02  0.43087004776E+02 -0.71091091163E+02  0.91151079796E+02  0.00000000000E+00 0.  1.
         14    1    6    6    0    0 -0.40752561983E+02  0.41340925049E+02 -0.53230606761E+02  0.78761290545E+02  0.00000000000E+00 0. -1.
         -5    1    3    3    0  503  0.40262721384E+02 -0.11273896682E+03 -0.25494534558E+03  0.28169199599E+03  0.47000000000E+01 0.  1.
         11    1    4    4    0    0  0.20843620215E+02 -0.29333312982E+02 -0.54090058131E+02  0.64966407803E+02  0.00000000000E+00 0. -1.
        -12    1    4    4    0    0 -0.74839805914E+02 -0.43052710889E+02 -0.86671330875E+02  0.12233745158E+03  0.00000000000E+00 0.  1.
</event>
<event>
12    1  0.8494789E-002  0.1738710E+03  0.7818608E-02  0.1174117E+00
         21   -1    0    0  501  502  0.00000000000E+00  0.00000000000E+00  0.54154343878E+03  0.54154343878E+03  0.00000000000E+00 0. -1.
         21   -1    0    0  502  503 -0.00000000000E+00 -0.00000000000E+00 -0.61969402007E+02  0.61969402007E+02  0.00000000000E+00 0. -1.
         -6    2    1    2    0  503  0.44870897805E+01  0.28582550277E+02  0.14298113418E+03  0.22511045948E+03  0.17144683748E+03 0.  0.
        -24    2    3    3    0    0 -0.56065568295E+02  0.22720666357E+02  0.11568127146E+03  0.15826467736E+03  0.89476113600E+02 0.  0.
          6    2    1    2  501    0 -0.44870897805E+01 -0.28582550277E+02  0.33659290259E+03  0.37840238130E+03  0.17045962556E+03 0.  0.
         24    2    5    5    0    0 -0.24227589390E+02  0.22243131845E+02  0.19203610625E+03  0.22383299670E+03  0.11018897997E+03 0.  0.
          5    1    5    5  501    0  0.19740499609E+02 -0.50825682122E+02  0.14455679634E+03  0.15456938460E+03  0.47000000000E+01 0. -1.
        -13    1    6    6    0    0 -0.45231700460E+01  0.62639034001E+02  0.14861203472E+03  0.16133705250E+03  0.00000000000E+00 0.  1.
         14    1    6    6    0    0 -0.19704419344E+02 -0.40395902156E+02  0.43424071537E+02  0.62495944201E+02  0.00000000000E+00 0. -1.
         -5    1    3    3    0  503  0.60552658076E+02  0.58618839202E+01  0.27299862724E+02  0.66845782125E+02  0.47000000000E+01 0.  1.
         13    1    4    4    0    0  0.52222314478E+00  0.34170285260E+02  0.87667109444E+02  0.94092524623E+02  0.00000000000E+00 0. -1.
        -14    1    4    4    0    0 -0.56587791440E+02 -0.11449618903E+02  0.28014162011E+02  0.64172152732E+02  0.00000000000E+00 0.  1.
</event>
<event>
12    1  0.8494789E-002  0.1806487E+03  0.7818608E-02  0.1168765E+00
         21   -1    0    0  501  502  0.00000000000E+00  0.00000000000E+00  0.10181836038E+03  0.10181836038E+03  0.00000000000E+00 0. -1.
         21   -1    0    0  502  503 -0.00000000000E+00 -0.00000000000E+00 -0.31431922534E+03  0.31431922534E+03  0.00000000000E+00 0. -1.
         -6    2    1    2    0  503  0.28371218208E+02 -0.11121482046E+02 -0.13105128703E+03  0.21797606563E+03  0.17149493278E+03 0.  0.
        -24    2    3    3    0    0 -0.11725256032E+02  0.54856052808E+02 -0.49026274688E+02  0.10523319445E+03  0.74322146403E+02 0.  0.
          6    2    1    2  501    0 -0.28371218208E+02  0.11121482046E+02 -0.81449577934E+02  0.19816152009E+03  0.17805993629E+03 0.  0.
         24    2    5    5    0    0 -0.43850224387E+01  0.61754746005E+02 -0.96476688205E+02  0.13996384788E+03  0.80307224281E+02 0.  0.
          5    1    5    5  501    0 -0.23986195770E+02 -0.50633263960E+02  0.15027110271E+02  0.58197672202E+02  0.47000000000E+01 0. -1.
        -13    1    6    6    0    0  0.28815255972E+02  0.43246091384E+01 -0.53507995934E+02  0.60927225850E+02  0.00000000000E+00 0.  1.
         14    1    6    6    0    0 -0.33200278411E+02  0.57430136867E+02 -0.42968692271E+02  0.79036622034E+02  0.00000000000E+00 0. -1.
         -5    1    3    3    0  503  0.40096474240E+02 -0.65977534853E+02 -0.82025012345E+02  0.11274287118E+03  0.47000000000E+01 0.  1.
         11    1    4    4    0    0  0.67904136196E+01  0.41629832514E+02 -0.64961240214E+02  0.77453956661E+02  0.00000000000E+00 0. -1.
        -12    1    4    4    0    0 -0.18515669651E+02  0.13226220294E+02  0.15934965526E+02  0.27779237790E+02  0.00000000000E+00 0.  1.
</event>
<event>
12    1  0.8494789E-002  0.1883642E+03  0.7818608E-02  0.1160080E+00
         21   -1    0    0  503  502  0.00000000000E+00  0.00000000000E+00  0.11401741708E+03  0.11401741708E+03  0.00000000000E+00 0. -1.
         21   -1    0    0  501  503 -0.00000000000E+00 -0.00000000000E+00 -0.32441044895E+03  0.32441044895E+03  0.00000000000E+00 0.  1.
          6    2    1    2  501    0  0.32880083593E+02  0.69304203484E+02 -0.59502119856E+02  0.19753883163E+03  0.17203754014E+03 0.  0.
         24    2    3    3    0    0 -0.29101498410E+02  0.66512646492E+01 -0.74640664483E+02  0.10799346444E+03  0.72112571968E+02 0.  0.
         -6    2    1    2    0  502 -0.32880083593E+02 -0.69304203484E+02 -0.15089091201E+03  0.24088903440E+03  0.17139220242E+03 0.  0.
        -24    2    5    5    0    0 -0.29615709054E+01 -0.81340876116E+01  0.26965273273E+01  0.72817347319E+02  0.72250678388E+02 0.  0.
          5    1    3    3  501    0  0.61981582002E+02  0.62652938835E+02  0.15138544626E+02  0.89545367192E+02  0.47000000000E+01 0. -1.
        -11    1    4    4    0    0  0.15448021997E+02  0.24774850973E+02 -0.35644019713E+02  0.46075272822E+02  0.00000000000E+00 0.  1.
         12    1    4    4    0    0 -0.44549520406E+02 -0.18123586324E+02 -0.38996644770E+02  0.61918191616E+02  0.00000000000E+00 0. -1.
         -5    1    5    5    0  502 -0.29918512687E+02 -0.61170115873E+02 -0.15358743934E+03  0.16807168709E+03  0.47000000000E+01 0.  1.
         13    1    6    6    0    0  0.31965148893E+02 -0.10474211998E+01  0.14717539003E+02  0.35206161239E+02  0.00000000000E+00 0. -1.
        -14    1    6    6    0    0 -0.34926719798E+02 -0.70866664118E+01 -0.12021011675E+02  0.37611186080E+02  0.00000000000E+00 0.  1.
</event>
<event>
12    1  0.8494789E-002  0.2282265E+03  0.7818608E-02  0.1127918E+00
         21   -1    0    0  501  502  0.00000000000E+00  0.00000000000E+00  0.12851818402E+04  0.12851818402E+04  0.00000000000E+00 0.  1.
         21   -1    0    0  502  503 -0.00000000000E+00 -0.00000000000E+00 -0.82003879011E+02  0.82003879011E+02  0.00000000000E+00 0.  1.
         -6    2    1    2    0  503  0.14981283796E+03  0.85870383444E+01  0.11538574933E+03  0.25573656286E+03  0.17195841006E+03 0.  0.
        -24    2    3    3    0    0  0.12013943012E+03  0.69763365029E+02  0.75918426502E+02  0.17697861945E+03  0.79103820956E+02 0.  0.
          6    2    1    2  501    0 -0.14981283796E+03 -0.85870383444E+01  0.10877922119E+04  0.11114491564E+04  0.17178389718E+03 0.  0.
         24    2    5    5    0    0 -0.87310160994E+02  0.55268342056E+02  0.48524099564E+03  0.50229059539E+03  0.78481618959E+02 0.  0.
          5    1    5    5  501    0 -0.62502676964E+02 -0.63855380401E+02  0.60255121622E+03  0.60915856097E+03  0.47000000000E+01 0. -1.
        -11    1    6    6    0    0 -0.85907480668E+02  0.41825642232E+02  0.47696747215E+03  0.48644367513E+03  0.00000000000E+00 0.  1.
         12    1    6    6    0    0 -0.14026803252E+01  0.13442699825E+02  0.82735234925E+01  0.15846920258E+02  0.00000000000E+00 0. -1.
         -5    1    3    3    0  503  0.29673407839E+02 -0.61176326684E+02  0.39467322829E+02  0.78757943413E+02  0.47000000000E+01 0.  1.
         13    1    4    4    0    0 -0.55593250450E+01 -0.57041043180E+01 -0.51107099037E+01  0.94637337635E+01  0.00000000000E+00 0. -1.
        -14    1    4    4    0    0  0.12569875516E+03  0.75467469347E+02  0.81029136405E+02  0.16751488568E+03  0.00000000000E+00 0.  1.
</event>
<event>
12    1  0.8494789E-002  0.2549620E+03  0.7818608E-02  0.1110441E+00
         21   -1    0    0  503  502  0.00000000000E+00  0.00000000000E+00  0.85511205545E+03  0.85511205545E+03  0.00000000000E+00 0. -1.
         21   -1    0    0  501  503 -0.00000000000E+00 -0.00000000000E+00 -0.13945077848E+03  0.13945077848E+03  0.00000000000E+00 0. -1.
          6    2    1    2  501    0  0.15917202489E+03 -0.97748355396E+02  0.21839524358E+02  0.25589561673E+03  0.17353710654E+03 0.  0.
         24    2    3    3    0    0  0.69739824959E+02 -0.11579588867E+02  0.64582265895E+02  0.12447184923E+03  0.79527618589E+02 0.  0.
         -6    2    1    2    0  502 -0.15917202489E+03  0.97748355396E+02  0.69382175262E+03  0.73866721720E+03  0.17131888066E+03 0.  0.
        -24    2    5    5    0    0 -0.10670937891E+03  0.74588505514E+02  0.26430742983E+03  0.30531591474E+03  0.80056565151E+02 0.  0.
          5    1    3    3  501    0  0.89432199930E+02 -0.86168766529E+02 -0.42742741537E+02  0.13142376750E+03  0.47000000000E+01 0. -1.
        -13    1    4    4    0    0 -0.10739468345E+02 -0.16007121526E+02  0.32365278182E+02  0.37670616556E+02  0.00000000000E+00 0.  1.
         14    1    4    4    0    0  0.80479293304E+02  0.44275326588E+01  0.32216987713E+02  0.86801232672E+02  0.00000000000E+00 0. -1.
         -5    1    5    5    0  502 -0.52462645975E+02  0.23159849882E+02  0.42951432279E+03  0.43335130246E+03  0.47000000000E+01 0.  1.
         13    1    6    6    0    0 -0.42183982959E+02  0.50190866247E+02  0.20194745104E+03  0.21232377271E+03  0.00000000000E+00 0. -1.
        -14    1    6    6    0    0 -0.64525395956E+02  0.24397639267E+02  0.62359978789E+02  0.92992142032E+02  0.00000000000E+00 0.  1.
</event>
<event>
12    1  0.8494789E-002  0.1901217E+03  0.7818608E-02  0.1159855E+00
         21   -1    0    0  501  502  0.00000000000E+00  0.00000000000E+00  0.20000827087E+03  0.20000827087E+03  0.00000000000E+00 0. -1.
         21   -1    0    0  502  503 -0.00000000000E+00 -0.00000000000E+00 -0.28976176575E+03  0.28976176575E+03  0.00000000000E+00 0. -1.
         -6    2    1    2    0  503 -0.27906824842E+02 -0.71282449522E+02 -0.19880259012E+03  0.27059435631E+03  0.16684980476E+03 0.  0.
        -24    2    3    3    0    0 -0.53510231708E+02 -0.92471755391E+02 -0.19574242026E+03  0.23689011673E+03  0.79921598284E+02 0.  0.
          6    2    1    2  501    0  0.27906824842E+02  0.71282449522E+02  0.10904909524E+03  0.21917568030E+03  0.17402958133E+03 0.  0.
         24    2    5    5    0    0 -0.43640882038E+02  0.75443172377E+02  0.68274192880E+02  0.13658591921E+03  0.79988430844E+02 0.  0.
          5    1    5    5  501    0  0.71547706880E+02 -0.41607228544E+01  0.40774902362E+02  0.82589761091E+02  0.47000000000E+01 0. -1.
        -13    1    6    6    0    0 -0.34970934444E+02 -0.66908906599E+01  0.17987374452E+02  0.39890849996E+02  0.00000000000E+00 0.  1.
         14    1    6    6    0    0 -0.86699475939E+01  0.82134063037E+02  0.50286818427E+02  0.96695069211E+02  0.00000000000E+00 0. -1.
         -5    1    3    3    0  503  0.25603406865E+02  0.21189305869E+02 -0.30601698601E+01  0.33704239583E+02  0.47000000000E+01 0.  1.
         11    1    4    4    0    0  0.15734368537E+01 -0.16902209684E+02  0.30071434990E+01  0.17239585487E+02  0.00000000000E+00 0. -1.
        -12    1    4    4    0    0 -0.55083668561E+02 -0.75569545707E+02 -0.19874956376E+03  0.21965053124E+03  0.00000000000E+00 0.  1.
</event>
<event>
12    1  0.8494789E-002  0.3414980E+03  0.7818608E-02  0.1066205E+00
         21   -1    0    0  501  502  0.00000000000E+00  0.00000000000E+00  0.98316533883E+03  0.98316533883E+03  0.00000000000E+00 0. -1.
         21   -1    0    0  502  503 -0.00000000000E+00 -0.00000000000E+00 -0.13214070067E+03  0.13214070067E+03  0.00000000000E+00 0.  1.
         -6    2    1    2    0  503 -0.25492172446E+03  0.14836813187E+03  0.60511931542E+03  0.69483112909E+03  0.17211253266E+03 0.  0.
        -24    2    3    3    0    0 -0.25694583220E+03  0.10155419841E+03  0.46155538892E+03  0.54374065166E+03  0.79284950204E+02 0.  0.
          6    2    1    2  501    0  0.25492172446E+03 -0.14836813187E+03  0.24590532274E+03  0.42047491041E+03  0.17126451581E+03 0.  0.
         24    2    5    5    0    0  0.11981174565E+03 -0.64535758009E+01  0.11847172290E+03  0.18668898276E+03  0.80129421069E+02 0.  0.
          5    1    5    5  501    0  0.13510997881E+03 -0.14191455607E+03  0.12743359984E+03  0.23378592765E+03  0.47000000000E+01 0. -1.
        -13    1    6    6    0    0  0.28012896616E+02  0.33581291756E+02  0.42542365605E+02  0.61010477822E+02  0.00000000000E+00 0.  1.
         14    1    6    6    0    0  0.91798849037E+02 -0.40034867556E+02  0.75929357298E+02  0.12567850494E+03  0.00000000000E+00 0. -1.
         -5    1    3    3    0  503  0.20241077308E+01  0.46813933457E+02  0.14356392650E+03  0.15109047743E+03  0.47000000000E+01 0.  1.
         13    1    4    4    0    0 -0.20103431014E+03  0.62993853827E+02  0.39995529703E+03  0.45204785045E+03  0.00000000000E+00 0. -1.
        -14    1    4    4    0    0 -0.55911522052E+02  0.38560344585E+02  0.61600091889E+02  0.91692801208E+02  0.00000000000E+00 0.  1.
</event>
<event>
12    1  0.8494789E-002  0.1766434E+03  0.7818608E-02  0.1171401E+00
         21   -1    0    0  501  502  0.00000000000E+00  0.00000000000E+00  0.22690179702E+02  0.22690179702E+02  0.00000000000E+00 0. -1.
         21   -1    0    0  502  503 -0.00000000000E+00 -0.00000000000E+00 -0.14962890077E+04  0.14962890077E+04  0.00000000000E+00 0. -1.
         -6    2    1    2    0  503 -0.13926039502E+01 -0.38529676488E+02 -0.96370776475E+03  0.97976300098E+03  0.17238447416E+03 0.  0.
        -24    2    3    3    0    0  0.56877240398E+02 -0.56023713060E+02 -0.61657652583E+03  0.62730931167E+03  0.83526543078E+02 0.  0.
          6    2    1    2  501    0  0.13926039502E+01  0.38529676488E+02 -0.50989106325E+03  0.53921618643E+03  0.17111026855E+03 0.  0.
         24    2    5    5    0    0  0.40132368338E+02  0.49232798627E+02 -0.17907863693E+03  0.20593810797E+03  0.79415808639E+02 0.  0.
          5    1    5    5  501    0 -0.38739764388E+02 -0.10703122139E+02 -0.33081242632E+03  0.33327807845E+03  0.47000000000E+01 0. -1.
        -13    1    6    6    0    0  0.39103309649E+02 -0.98703949971E+01 -0.94539459563E+02  0.10278230848E+03  0.00000000000E+00 0.  1.
         14    1    6    6    0    0  0.10290586893E+01  0.59103193624E+02 -0.84539177366E+02  0.10315579949E+03  0.00000000000E+00 0. -1.
         -5    1    3    3    0  503 -0.58269844348E+02  0.17494036571E+02 -0.34713123892E+03  0.35245368931E+03  0.47000000000E+01 0.  1.
         13    1    4    4    0    0  0.24522281220E+02  0.86658147662E+01 -0.35396304781E+03  0.35491728309E+03  0.00000000000E+00 0. -1.
        -14    1    4    4    0    0  0.32354959178E+02 -0.64689527826E+02 -0.26261347802E+03  0.27239202858E+03  0.00000000000E+00 0.  1.
</event>
<event>
12    1  0.8494789E-002  0.3439824E+03  0.7818608E-02  0.1065134E+00
         21   -1    0    0  501  502  0.00000000000E+00  0.00000000000E+00  0.17685876501E+03  0.17685876501E+03  0.00000000000E+00 0.  1.
         21   -1    0    0  502  503 -0.00000000000E+00 -0.00000000000E+00 -0.72629412737E+03  0.72629412737E+03  0.00000000000E+00 0. -1.
         -6    2    1    2    0  503 -0.79809300459E+02 -0.28705503574E+03 -0.40188959867E+03  0.52886202399E+03  0.17149248649E+03 0.  0.
        -24    2    3    3    0    0 -0.84935985134E+02 -0.29491641600E+03 -0.40319526953E+03  0.51828473835E+03  0.10891662240E+03 0.  0.
          6    2    1    2  501    0  0.79809300459E+02  0.28705503574E+03 -0.14754576369E+03  0.37429086839E+03  0.17191213973E+03 0.  0.
         24    2    5    5    0    0  0.17572531695E+02  0.74401968358E+02 -0.16710567421E+02  0.11692987476E+03  0.86884439245E+02 0.  0.
          5    1    5    5  501    0  0.62236768763E+02  0.21265306739E+03 -0.13083519627E+03  0.25736099362E+03  0.47000000000E+01 0. -1.
        -13    1    6    6    0    0 -0.12219998168E+02  0.83642574186E+02 -0.11658145668E+02  0.85330656462E+02  0.00000000000E+00 0.  1.
         14    1    6    6    0    0  0.29792529863E+02 -0.92406058287E+01 -0.50524217523E+01  0.31599218302E+02  0.00000000000E+00 0. -1.
         -5    1    3    3    0  503  0.51266846749E+01  0.78613802563E+01  0.13056708624E+01  0.10577285649E+02  0.47000000000E+01 0.  1.
         13    1    4    4    0    0 -0.78571000851E+02 -0.10234052664E+03 -0.20214665271E+03  0.23981295788E+03  0.00000000000E+00 0. -1.
        -14    1    4    4    0    0 -0.63649842830E+01 -0.19257588936E+03 -0.20104861682E+03  0.27847178046E+03  0.00000000000E+00 0.  1.
</event>
<event>
12    1  0.8494789E-002  0.1909735E+03  0.7818608E-02  0.1158355E+00
         21   -1    0    0  503  502  0.00000000000E+00  0.00000000000E+00  0.24888330678E+02  0.24888330678E+02  0.00000000000E+00 0.  1.
         21   -1    0    0  501  503 -0.00000000000E+00 -0.00000000000E+00 -0.16056268212E+04  0.16056268212E+04  0.00000000000E+00 0.  1.
          6    2    1    2  501    0 -0.75394933481E+02 -0.72291376534E+01 -0.10590120478E+04  0.10760935792E+04  0.17531177204E+03 0.  0.
         24    2    3    3    0    0 -0.57022103267E+02  0.64054886037E+02 -0.66212212729E+03  0.67240722581E+03  0.79819904703E+02 0.  0.
         -6    2    1    2    0  502  0.75394933481E+02  0.72291376534E+01 -0.52172644276E+03  0.55442157270E+03  0.17160461176E+03 0.  0.
        -24    2    5    5    0    0  0.12596936307E+02  0.45029846292E+01 -0.10628110381E+03  0.13422169167E+03  0.80875396839E+02 0.  0.
          5    1    3    3  501    0 -0.18372830214E+02 -0.71284023690E+02 -0.39688992049E+03  0.40368635338E+03  0.47000000000E+01 0. -1.
        -13    1    4    4    0    0 -0.40713687694E+02  0.20348349242E+02 -0.53608659857E+03  0.53801533514E+03  0.00000000000E+00 0.  1.
         14    1    4    4    0    0 -0.16308415573E+02  0.43706536794E+02 -0.12603552872E+03  0.13439189067E+03  0.00000000000E+00 0. -1.
         -5    1    5    5    0  502  0.62797997174E+02  0.27261530242E+01 -0.41544533895E+03  0.42019988103E+03  0.47000000000E+01 0.  1.
         11    1    6    6    0    0 -0.47006241470E+01 -0.18851777721E+02 -0.10318058916E+03  0.10499390159E+03  0.00000000000E+00 0. -1.
        -12    1    6    6    0    0  0.17297560454E+02  0.23354762350E+02 -0.31005146427E+01  0.29227790083E+02  0.00000000000E+00 0.  1.
</event>
<event>
12    1  0.8494789E-002  0.3765938E+03  0.7818608E-02  0.1052553E+00
         21   -1    0    0  503  502  0.00000000000E+00  0.00000000000E+00  0.35967736140E+03  0.35967736140E+03  0.00000000000E+00 0.  1.
         21   -1    0    0  501  503 -0.00000000000E+00 -0.00000000000E+00 -0.53812609469E+03  0.53812609469E+03  0.00000000000E+00 0.  1.
          6    2    1    2  501    0 -0.26461479031E+03 -0.19975041159E+03 -0.32476311994E+03  0.49728661320E+03  0.17861040680E+03 0.  0.
         24    2    3    3    0    0 -0.18034278046E+03 -0.78886573887E+02 -0.26130566092E+03  0.33679119890E+03  0.80006582368E+02 0.  0.
         -6    2    1    2    0  502  0.26461479031E+03  0.19975041159E+03  0.14631438665E+03  0.40051684289E+03  0.17054215758E+03 0.  0.
        -24    2    5    5    0    0  0.78697511816E+02  0.11606055697E+03  0.10523714350E+03  0.19248161483E+03  0.79441578690E+02 0.  0.
          5    1    3    3  501    0 -0.84272009850E+02 -0.12086383770E+03 -0.63457459018E+02  0.16049541431E+03  0.47000000000E+01 0. -1.
        -11    1    4    4    0    0 -0.17861565090E+03 -0.76556750480E+02 -0.21273131570E+03  0.28813035152E+03  0.00000000000E+00 0.  1.
         12    1    4    4    0    0 -0.17271295623E+01 -0.23298234075E+01 -0.48574345220E+02  0.48660847374E+02  0.00000000000E+00 0. -1.
         -5    1    5    5    0  502  0.18591727849E+03  0.83689854623E+02  0.41077243155E+02  0.20803522806E+03  0.47000000000E+01 0.  1.
         11    1    6    6    0    0  0.33993166065E+01  0.20350499699E+02  0.58516725851E+02  0.62047605882E+02  0.00000000000E+00 0. -1.
        -12    1    6    6    0    0  0.75298195210E+02  0.95710057268E+02  0.46720417650E+02  0.13043400894E+03  0.00000000000E+00 0.  1.
</event>
<event>
12    1  0.8494789E-002  0.1791967E+03  0.7818608E-02  0.1168643E+00
         21   -1    0    0  501  502  0.00000000000E+00  0.00000000000E+00  0.95810954424E+03  0.95810954424E+03  0.00000000000E+00 0. -1.
         21   -1    0    0  502  503 -0.00000000000E+00 -0.00000000000E+00 -0.41955755064E+02  0.41955755064E+02  0.00000000000E+00 0. -1.
         -6    2    1    2    0  503  0.88342591449E+01 -0.48050969409E+02  0.23294083201E+03  0.29374284781E+03  0.17215251850E+03 0.  0.
        -24    2    3    3    0    0  0.70753653225E+02 -0.36287760621E+02  0.17209790484E+03  0.20601408268E+03  0.80630220122E+02 0.  0.
          6    2    1    2  501    0 -0.88342591449E+01  0.48050969409E+02  0.68321295717E+03  0.70632245150E+03  0.17240800692E+03 0.  0.
         24    2    5    5    0    0  0.52136104742E+02  0.98056047001E+01  0.26140173288E+03  0.27838917150E+03  0.79720396095E+02 0.  0.
          5    1    5    5  501    0 -0.60970363886E+02  0.38245364709E+02  0.42181122429E+03  0.42793328000E+03  0.47000000000E+01 0. -1.
        -11    1    6    6    0    0  0.67242361531E+02 -0.69933983954E+01  0.22982942395E+03  0.23956628919E+03  0.00000000000E+00 0.  1.
         12    1    6    6    0    0 -0.15106256789E+02  0.16799003095E+02  0.31572308932E+02  0.38822882305E+02  0.00000000000E+00 0. -1.
         -5    1    3    3    0  503 -0.61919394081E+02 -0.11763208787E+02  0.60842927166E+02  0.87728765125E+02  0.47000000000E+01 0.  1.
         11    1    4    4    0    0  0.76796829160E+02 -0.72447983447E+01  0.88980414783E+02  0.11776142954E+03  0.00000000000E+00 0. -1.
        -12    1    4    4    0    0 -0.60431759346E+01 -0.29042962277E+02  0.83117490060E+02  0.88252653145E+02  0.00000000000E+00 0.  1.
</event>
<event>
12    1  0.8494789E-002  0.2821899E+03  0.7818608E-02  0.1094584E+00
         21   -1    0    0  503  502  0.00000000000E+00  0.00000000000E+00  0.42364446488E+03  0.42364446488E+03  0.00000000000E+00 0. -1.
         21   -1    0    0  501  503 -0.00000000000E+00 -0.00000000000E+00 -0.29270047826E+03  0.29270047826E+03  0.00000000000E+00 0.  1.
          6    2    1    2  501    0  0.12189307909E+03 -0.18723572349E+03 -0.14925193835E+03  0.31867561293E+03  0.17135596369E+03 0.  0.
         24    2    3    3    0    0  0.13286889730E+03 -0.89159582075E+02 -0.11939346806E+03  0.21546216250E+03  0.81028194537E+02 0.  0.
         -6    2    1    2    0  502 -0.12189307909E+03  0.18723572349E+03  0.28019592497E+03  0.39766933021E+03  0.17238329659E+03 0.  0.
        -24    2    5    5    0    0 -0.28295254346E+02  0.13623907172E+02  0.98944997486E+02  0.12975963596E+03  0.77853826702E+02 0.  0.
          5    1    3    3  501    0 -0.10975818211E+02 -0.98076141417E+02 -0.29858470288E+02  0.10321345043E+03  0.47000000000E+01 0. -1.
        -11    1    4    4    0    0  0.46979407099E+02 -0.36839920269E+01 -0.70493178157E+02  0.84793423420E+02  0.00000000000E+00 0.  1.
         12    1    4    4    0    0  0.85889490200E+02 -0.85475590048E+02 -0.48900289902E+02  0.13066873908E+03  0.00000000000E+00 0. -1.
         -5    1    5    5    0  502 -0.93597824742E+02  0.17361181632E+03  0.18125092748E+03  0.26790969425E+03  0.47000000000E+01 0.  1.
         11    1    6    6    0    0  0.10257290489E+02  0.32306923756E+02  0.18494539053E+02  0.38613434263E+02  0.00000000000E+00 0. -1.
        -12    1    6    6    0    0 -0.38552544835E+02 -0.18683016585E+02  0.80450458433E+02  0.91146201698E+02  0.00000000000E+00 0.  1.
</event>
<event>
12    1  0.8494789E-002  0.1788489E+03  0.7818608E-02  0.1169087E+00
         21   -1    0    0  501  502  0.00000000000E+00  0.00000000000E+00  0.10047164732E+04  0.10047164732E+04  0.00000000000E+00 0.  1.
         21   -1    0    0  502  503 -0.00000000000E+00 -0.00000000000E+00 -0.44705979572E+02  0.44705979572E+02  0.00000000000E+00 0.  1.
         -6    2    1    2    0  503 -0.36260295627E+02  0.32791210308E+02  0.19653172106E+03  0.26527529506E+03  0.17133648844E+03 0.  0.
        -24    2    3    3    0    0 -0.52788650318E+02 -0.17315074105E+02  0.55796974013E+02  0.11490180912E+03  0.83681957649E+02 0.  0.
          6    2    1    2  501    0  0.36260295627E+02 -0.32791210308E+02  0.76347877253E+03  0.78414715768E+03  0.17203736885E+03 0.  0.
         24    2    5    5    0    0 -0.30855198550E+02 -0.75613705857E+01  0.22291325039E+03  0.23882687739E+03  0.79616220460E+02 0.  0.
          5    1    5    5  501    0  0.67115494176E+02 -0.25229839722E+02  0.54056552214E+03  0.54532028029E+03  0.47000000000E+01 0. -1.
        -13    1    6    6    0    0 -0.71936570908E+01 -0.11250742426E+02  0.21215332774E+03  0.21257319300E+03  0.00000000000E+00 0.  1.
         14    1    6    6    0    0 -0.23661541459E+02  0.36893718399E+01  0.10759922646E+02  0.26253684392E+02  0.00000000000E+00 0. -1.
         -5    1    3    3    0  503  0.16528354691E+02  0.50106284413E+02  0.14073474705E+03  0.15037348594E+03  0.47000000000E+01 0.  1.
         11    1    4    4    0    0 -0.17494553830E+01 -0.34594807294E+02  0.49830928814E+02  0.60687583180E+02  0.00000000000E+00 0. -1.
        -12    1    4    4    0    0 -0.51039194935E+02  0.17279733189E+02  0.59660451991E+01  0.54214225938E+02  0.00000000000E+00 0.  1.
</event>
<event>
12    1  0.8494789E-002  0.2172712E+03  0.7818608E-02  0.1136247E+00
         21   -1    0    0  503  502  0.00000000000E+00  0.00000000000E+00  0.20126235635E+03  0.20126235635E+03  0.00000000000E+00 0.  1.
         21   -1    0    0  501  503 -0.00000000000E+00 -0.00000000000E+00 -0.29991048113E+03  0.29991048113E+03  0.00000000000E+00 0.  1.
          6    2    1    2  501    0  0.43868378011E+02 -0.12241749948E+03 -0.16773232557E+03  0.27318289183E+03  0.17200081564E+03 0.  0.
         24    2    3    3    0    0 -0.12891863590E+02 -0.13149270779E+03 -0.14114231461E+03  0.20967538743E+03  0.81154684214E+02 0.  0.
         -6    2    1    2    0  502 -0.43868378011E+02  0.12241749948E+03  0.69084200792E+02  0.22798994565E+03  0.17405835157E+03 0.  0.
        -24    2    5    5    0    0  0.41219665376E+02  0.81507825051E+02  0.48406784306E+02  0.13122620171E+03  0.80836333967E+02 0.  0.
          5    1    3    3  501    0  0.56760241600E+02  0.90752083154E+01 -0.26590010953E+02  0.63507504399E+02  0.47000000000E+01 0. -1.
        -11    1    4    4    0    0 -0.47175486143E+01 -0.28623123422E+02  0.63219566864E+01  0.29690159914E+02  0.00000000000E+00 0.  1.
         12    1    4    4    0    0 -0.81743149754E+01 -0.10286958437E+03 -0.14746427130E+03  0.17998522752E+03  0.00000000000E+00 0. -1.
         -5    1    5    5    0  502 -0.85088043387E+02  0.40909674428E+02  0.20677416486E+02  0.96763743942E+02  0.47000000000E+01 0.  1.
         11    1    6    6    0    0  0.35426474116E+02  0.22304055588E+02  0.57420464738E+02  0.71060648285E+02  0.00000000000E+00 0. -1.
        -12    1    6    6    0    0  0.57931912596E+01  0.59203769463E+02 -0.90136804318E+01  0.60165553421E+02  0.00000000000E+00 0.  1.
</event>
<event>
12    1  0.8494789E-002  0.2367080E+03  0.7818608E-02  0.1122080E+00
         21   -1    0    0  501  502  0.00000000000E+00  0.00000000000E+00  0.27265748398E+04  0.27265748398E+04  0.00000000000E+00 0.  1.
         21   -1    0    0  502  503 -0.00000000000E+00 -0.00000000000E+00 -0.26102096094E+02  0.26102096094E+02  0.00000000000E+00 0.  1.
         -6    2    1    2    0  503 -0.71386156067E+02  0.14607256084E+03  0.71426394816E+03  0.75246506654E+03  0.17203927581E+03 0.  0.
        -24    2    3    3    0    0 -0.62100462376E+02  0.47134954695E+02  0.54301661134E+03  0.55441806610E+03  0.80213343332E+02 0.  0.
          6    2    1    2  501    0  0.71386156067E+02 -0.14607256084E+03  0.19862087955E+04  0.20002118693E+04  0.17143210456E+03 0.  0.
         24    2    5    5    0    0 -0.43938000044E+01 -0.10118362666E+03  0.15344686032E+04  0.15399413951E+04  0.81044272589E+02 0.  0.
          5    1    5    5  501    0  0.75779956072E+02 -0.44888934180E+02  0.45174019226E+03  0.46027047424E+03  0.47000000000E+01 0. -1.
        -11    1    6    6    0    0 -0.56814823142E+01 -0.55330039895E+02  0.12904817188E+04  0.12916798206E+04  0.00000000000E+00 0.  1.
         12    1    6    6    0    0  0.12876823099E+01 -0.45853586760E+02  0.24398688449E+03  0.24826157444E+03  0.00000000000E+00 0. -1.
         -5    1    3    3    0  503 -0.92856936914E+01  0.98937606141E+02  0.17124733682E+03  0.19804700044E+03  0.47000000000E+01 0.  1.
         11    1    4    4    0    0 -0.46792841497E+02 -0.11166348320E+02  0.17473741865E+03  0.18123857985E+03  0.00000000000E+00 0. -1.
        -12    1    4    4    0    0 -0.15307620879E+02  0.58301303015E+02  0.36827919269E+03  0.37317948625E+03  0.00000000000E+00 0.  1.
</event>
<event>
12    1  0.8494789E-002  0.1901195E+03  0.7818608E-02  0.1160240E+00
         21   -1    0    0  501  502  0.00000000000E+00  0.00000000000E+00  0.21664874779E+03  0.21664874779E+03  0.00000000000E+00 0. -1.
         21   -1    0    0  502  503 -0.00000000000E+00 -0.00000000000E+00 -0.16309788072E+03  0.16309788072E+03  0.00000000000E+00 0. -1.
         -6    2    1    2    0  503 -0.64261716942E+02  0.54629982767E+02 -0.10441505343E+01  0.18194363409E+03  0.16120915747E+03 0.  0.
        -24    2    3    3    0    0  0.10268193909E+02  0.38173740468E+02  0.39201677418E+02  0.95529907230E+02  0.77630673032E+02 0.  0.
          6    2    1    2  501    0  0.64261716942E+02 -0.54629982767E+02  0.54595017598E+02  0.19780299442E+03  0.17038604806E+03 0.  0.
         24    2    5    5    0    0  0.99896265777E+02 -0.73792869099E+02  0.31439329438E+02  0.15094882516E+03  0.79827720339E+02 0.  0.
          5    1    5    5  501    0 -0.35634548836E+02  0.19162886332E+02  0.23155688160E+02  0.46854169264E+02  0.47000000000E+01 0. -1.
        -11    1    6    6    0    0  0.69107583421E+01 -0.34942884616E+02  0.35234539703E+02  0.50102260970E+02  0.00000000000E+00 0.  1.
         12    1    6    6    0    0  0.92985507435E+02 -0.38849984482E+02 -0.37952102652E+01  0.10084656419E+03  0.00000000000E+00 0. -1.
         -5    1    3    3    0  503 -0.74529910851E+02  0.16456242298E+02 -0.40245827953E+02  0.86413726859E+02  0.47000000000E+01 0.  1.
         13    1    4    4    0    0  0.29528344662E+02 -0.11866496584E+02  0.57698341342E+01  0.32342354051E+02  0.00000000000E+00 0. -1.
        -14    1    4    4    0    0 -0.19260150752E+02  0.50040237053E+02  0.33431843284E+02  0.63187553178E+02  0.00000000000E+00 0.  1.
</event>
<event>
12    1  0.8494789E-002  0.1988037E+03  0.7818608E-02  0.1151465E+00
         21   -1    0    0  501  502  0.00000000000E+00  0.00000000000E+00  0.87723160742E+02  0.87723160742E+02  0.00000000000E+00 0.  1.
         21   -1    0    0  502  503 -0.00000000000E+00 -0.00000000000E+00 -0.47488451708E+03  0.47488451708E+03  0.00000000000E+00 0.  1.
         -6    2    1    2    0  503 -0.34023407305E+02 -0.87635522437E+02 -0.12226542102E+03  0.23339186211E+03  0.17517234681E+03 0.  0.
        -24    2    3    3    0    0  0.11581314683E+02  0.15635037751E+02 -0.29305193726E+02  0.87076131151E+02  0.79654736091E+02 0.  0.
          6    2    1    2  501    0  0.34023407305E+02  0.87635522437E+02 -0.26489593532E+03  0.32921581571E+03  0.17139317293E+03 0.  0.
         24    2    5    5    0    0  0.31191872803E+02  0.95628806064E+02 -0.28084470271E+03  0.31055132129E+03  0.86316711242E+02 0.  0.
          5    1    5    5  501    0  0.28315345016E+01 -0.79932836274E+01  0.15948767384E+02  0.18664494418E+02  0.47000000000E+01 0. -1.
        -11    1    6    6    0    0  0.35958001552E+02  0.44195745666E+02 -0.56143451826E+02  0.79989555528E+02  0.00000000000E+00 0.  1.
         12    1    6    6    0    0 -0.47661287485E+01  0.51433060398E+02 -0.22470125088E+03  0.23056176577E+03  0.00000000000E+00 0. -1.
         -5    1    3    3    0  503 -0.45604721988E+02 -0.10327056019E+03 -0.92960227290E+02  0.14631573096E+03  0.47000000000E+01 0.  1.
         13    1    4    4    0    0 -0.17288602183E+02  0.36441061451E+02  0.98224192972E+00  0.40346146338E+02  0.00000000000E+00 0. -1.
        -14    1    4    4    0    0  0.28869916866E+02 -0.20806023700E+02 -0.30287435655E+02  0.46729984813E+02  0.00000000000E+00 0.  1.
</event>
<event>
12    1  0.8494789E-002  0.1917329E+03  0.7818608E-02  0.1156953E+00
         21   -1    0    0  503  502  0.00000000000E+00  0.00000000000E+00  0.10064668967E+03  0.10064668967E+03  0.00000000000E+00 0.  1.
         21   -1    0    0  501  503 -0.00000000000E+00 -0.00000000000E+00 -0.73326229830E+03  0.73326229830E+03  0.00000000000E+00 0.  1.
          6    2    1    2  501    0 -0.30420685456E+02 -0.77918267520E+02 -0.61176413330E+03  0.64104562924E+03  0.17230052076E+03 0.  0.
         24    2    3    3    0    0  0.32506712515E+02 -0.71018253619E+02 -0.50194117499E+03  0.51419674363E+03  0.79706143472E+02 0.  0.
         -6    2    1    2    0  502  0.30420685456E+02  0.77918267520E+02 -0.20851475330E+02  0.19286335874E+03  0.17252482895E+03 0.  0.
        -24    2    5    5    0    0  0.36661045623E+02  0.82402922089E+02 -0.72040314650E+02  0.14088796559E+03  0.80779564735E+02 0.  0.
          5    1    3    3  501    0 -0.62927397971E+02 -0.69000139008E+01 -0.10982295832E+03  0.12684888561E+03  0.47000000000E+01 0. -1.
        -13    1    4    4    0    0 -0.22934885386E+02 -0.33640069659E+01 -0.13490364824E+03  0.13688067730E+03  0.00000000000E+00 0.  1.
         14    1    4    4    0    0  0.55441597901E+02 -0.67654246653E+02 -0.36703752675E+03  0.37731606633E+03  0.00000000000E+00 0. -1.
         -5    1    5    5    0  502 -0.62403601673E+01 -0.44846545696E+01  0.51188839320E+02  0.51975393145E+02  0.47000000000E+01 0.  1.
         11    1    6    6    0    0 -0.24973381615E+02  0.25808903100E+02 -0.32100762465E+02  0.48168747330E+02  0.00000000000E+00 0. -1.
        -12    1    6    6    0    0  0.61634427239E+02  0.56594018989E+02 -0.39939552185E+02  0.92719218262E+02  0.00000000000E+00 0.  1.
</event>
<event>
12    1  0.8494789E-002  0.1772350E+03  0.7818608E-02  0.1170780E+00
         21   -1    0    0  503  502  0.00000000000E+00  0.00000000000E+00  0.80776787386E+03  0.80776787386E+03  0.00000000000E+00 0. -1.
         21   -1    0    0  501  503 -0.00000000000E+00 -0.00000000000E+00 -0.50329422360E+02  0.50329422360E+02  0.00000000000E+00 0. -1.
          6    2    1    2  501    0  0.14008405718E+02 -0.40513920042E+02  0.17108816101E+03  0.24554615329E+03  0.17083366591E+03 0.  0.
         24    2    3    3    0    0  0.37200033611E+02 -0.23772275881E+02  0.19394273099E+03  0.20863334220E+03  0.62969238303E+02 0.  0.
         -6    2    1    2    0  502 -0.14008405718E+02  0.40513920042E+02  0.58635029048E+03  0.61255114293E+03  0.17197274902E+03 0.  0.
        -24    2    5    5    0    0 -0.28088302817E+02  0.38740942277E+02  0.15003589522E+03  0.17598072654E+03  0.78540644859E+02 0.  0.
          5    1    3    3  501    0 -0.23191627893E+02 -0.16741644162E+02 -0.22854569978E+02  0.36912811088E+02  0.47000000000E+01 0. -1.
        -11    1    4    4    0    0 -0.10843332079E+02  0.10699244873E+00  0.98906413310E+02  0.99499084879E+02  0.00000000000E+00 0.  1.
         12    1    4    4    0    0  0.48043365690E+02 -0.23879268329E+02  0.95036317680E+02  0.10913425732E+03  0.00000000000E+00 0. -1.
         -5    1    5    5    0  502  0.14079897099E+02  0.17729777649E+01  0.43631439526E+03  0.43657041639E+03  0.47000000000E+01 0.  1.
         11    1    6    6    0    0 -0.24026148401E+00  0.22463314188E+02  0.14058468950E+03  0.14236823077E+03  0.00000000000E+00 0. -1.
        -12    1    6    6    0    0 -0.27848041333E+02  0.16277628089E+02  0.94512057169E+01  0.33612495768E+02  0.00000000000E+00 0.  1.
</event>
<event>
12    1  0.8494789E-002  0.2110167E+03  0.7818608E-02  0.1140920E+00
         21   -1    0    0  501  502  0.00000000000E+00  0.00000000000E+00  0.91502583918E+03  0.91502583918E+03  0.00000000000E+00 0.  1.
         21   -1    0    0  502  503 -0.00000000000E+00 -0.00000000000E+00 -0.50684010787E+02  0.50684010787E+02  0.00000000000E+00 0.  1.
         -6    2    1    2    0  503 -0.10595760338E+03 -0.57960309637E+02  0.33070121040E+03  0.39186288406E+03  0.17206631901E+03 0.  0.
        -24    2    3    3    0    0 -0.96081660264E+02  0.42825145164E+01  0.12811250484E+03  0.17964606797E+03  0.81301109899E+02 0.  0.
          6    2    1    2  501    0  0.10595760338E+03  0.57960309637E+02  0.53364061799E+03  0.57384696590E+03  0.17303646986E+03 0.  0.
         24    2    5    5    0    0  0.64200519574E+02 -0.34032844172E+02  0.21292503561E+03  0.23756290565E+03  0.76283170868E+02 0.  0.
          5    1    5    5  501    0  0.41757083801E+02  0.91993153810E+02  0.32071558238E+03  0.33628406025E+03  0.47000000000E+01 0. -1.
        -13    1    6    6    0    0 -0.68161819896E+01 -0.13665669659E+02  0.10893771755E+03  0.11000289618E+03  0.00000000000E+00 0.  1.
         14    1    6    6    0    0  0.71016701564E+02 -0.20367174513E+02  0.10398731806E+03  0.12756000947E+03  0.00000000000E+00 0. -1.
         -5    1    3    3    0  503 -0.98759431114E+01 -0.62242824154E+02  0.20258870556E+03  0.21221681609E+03  0.47000000000E+01 0.  1.
         11    1    4    4    0    0 -0.36785937539E+02  0.40871559370E+02  0.69308257196E+02  0.88472165575E+02  0.00000000000E+00 0. -1.
        -12    1    4    4    0    0 -0.59295722725E+02 -0.36589044854E+02  0.58804247642E+02  0.91173902393E+02  0.00000000000E+00 0.  1.
</event>
<event>
12    1  0.8494789E-002  0.2725856E+03  0.7818608E-02  0.1100013E+00
         21   -1    0    0  501  502  0.00000000000E+00  0.00000000000E+00  0.49861365544E+03  0.49861365544E+03  0.00000000000E+00 0. -1.
         21   -1    0    0  502  503 -0.00000000000E+00 -0.00000000000E+00 -0.16366660835E+03  0.16366660835E+03  0.00000000000E+00 0.  1.
         -6    2    1    2    0  503  0.20949212065E+03  0.30841240856E+02  0.26956579115E+03  0.38336486715E+03  0.17165306539E+03 0.  0.
        -24    2    3    3    0    0  0.81767677823E+02 -0.30272376303E+02  0.18168198466E+03  0.21664935816E+03  0.79537607050E+02 0.  0.
          6    2    1    2  501    0 -0.20949212065E+03 -0.30841240856E+02  0.65381255944E+02  0.27891539664E+03  0.16935453670E+03 0.  0.
         24    2    5    5    0    0 -0.19004668900E+03 -0.11603665473E+02  0.10392652286E+03  0.23141764175E+03  0.80628863973E+02 0.  0.
          5    1    5    5  501    0 -0.19445431646E+02 -0.19237575383E+02 -0.38545266912E+02  0.47497754893E+02  0.47000000000E+01 0. -1.
        -11    1    6    6    0    0 -0.68501107097E+02 -0.31491205298E+02  0.90191815857E+01  0.75930516402E+02  0.00000000000E+00 0.  1.
         12    1    6    6    0    0 -0.12154558191E+03  0.19887539824E+02  0.94907341270E+02  0.15548712534E+03  0.00000000000E+00 0. -1.
         -5    1    3    3    0  503  0.12772444282E+03  0.61113617159E+02  0.87883806485E+02  0.16671550899E+03  0.47000000000E+01 0.  1.
         11    1    4    4    0    0  0.82962795218E+02 -0.48473155244E+02  0.12867424625E+03  0.16059120094E+03  0.00000000000E+00 0. -1.
        -12    1    4    4    0    0 -0.11951173941E+01  0.18200778941E+02  0.53007738408E+02  0.56058157218E+02  0.00000000000E+00 0.  1.
</event>
<event>
12    1  0.8494789E-002  0.1906027E+03  0.7818608E-02  0.1158523E+00
         21   -1    0    0  501  502  0.00000000000E+00  0.00000000000E+00  0.16228562211E+04  0.16228562211E+04  0.00000000000E+00 0. -1.
         21   -1    0    0  502  503 -0.00000000000E+00 -0.00000000000E+00 -0.26062137769E+02  0.26062137769E+02  0.00000000000E+00 0. -1.
         -6    2    1    2    0  503  0.66775766026E+02  0.36644908357E+02  0.47110706457E+03  0.50720882618E+03  0.17180533995E+03 0.  0.
        -24    2    3    3    0    0  0.22570046169E+02  0.43838557268E+02  0.44567942376E+03  0.45549278254E+03  0.80076838728E+02 0.  0.
          6    2    1    2  501    0 -0.66775766026E+02 -0.36644908357E+02  0.11256870188E+04  0.11417095327E+04  0.17472132261E+03 0.  0.
         24    2    5    5    0    0 -0.10874384580E+03 -0.24607924195E+02  0.67727498983E+03  0.69115249257E+03  0.80991247665E+02 0.  0.
          5    1    5    5  501    0  0.41968079778E+02 -0.12036984162E+02  0.44841202895E+03  0.45055704014E+03  0.47000000000E+01 0. -1.
        -13    1    6    6    0    0 -0.24346569148E+02 -0.36653791326E+02  0.35789709448E+03  0.36059199393E+03  0.00000000000E+00 0.  1.
         14    1    6    6    0    0 -0.84397276656E+02  0.12045867131E+02  0.31937789535E+03  0.33056049864E+03  0.00000000000E+00 0. -1.
         -5    1    3    3    0  503  0.44205719857E+02 -0.71936489111E+01  0.25427640811E+02  0.51716043642E+02  0.47000000000E+01 0.  1.
         11    1    4    4    0    0  0.78365145792E+01 -0.18263364287E+02  0.38354109681E+02  0.43197212471E+02  0.00000000000E+00 0. -1.
        -12    1    4    4    0    0  0.14733531590E+02  0.62101921554E+02  0.40732531407E+03  0.41229557007E+03  0.00000000000E+00 0.  1.
</event>
<event>
12    1  0.8494789E-002  0.1893398E+03  0.7818608E-02  0.1159269E+00
         21   -1    0    0  501  502  0.00000000000E+00  0.00000000000E+00  0.75351413469E+03  0.75351413469E+03  0.00000000000E+00 0. -1.
         21   -1    0    0  502  503 -0.00000000000E+00 -0.00000000000E+00 -0.81820801846E+02  0.81820801846E+02  0.00000000000E+00 0. -1.
         -6    2    1    2    0  503 -0.57263589367E+02  0.53558790271E+02  0.65201245281E+02  0.20025174285E+03  0.17234237856E+03 0.  0.
        -24    2    3    3    0    0 -0.92325746352E+02  0.75052117793E+02  0.81470303196E+02  0.15577601660E+03  0.58922773354E+02 0.  0.
          6    2    1    2  501    0  0.57263589367E+02 -0.53558790271E+02  0.60649208756E+03  0.63508319368E+03  0.17131943246E+03 0.  0.
         24    2    5    5    0    0  0.62397250859E+02 -0.46374177798E+01  0.18927583366E+03  0.21495089584E+03  0.80396665711E+02 0.  0.
          5    1    5    5  501    0 -0.51336614921E+01 -0.48921372492E+02  0.41721625391E+03  0.42013229784E+03  0.47000000000E+01 0. -1.
        -11    1    6    6    0    0  0.35316910339E+02 -0.34670533647E+02  0.51762901599E+02  0.71615138353E+02  0.00000000000E+00 0.  1.
         12    1    6    6    0    0  0.27080340520E+02  0.30033115867E+02  0.13751293206E+03  0.14333575749E+03  0.00000000000E+00 0. -1.
         -5    1    3    3    0  503  0.35062156985E+02 -0.21493327521E+02 -0.16269057916E+02  0.44475726254E+02  0.47000000000E+01 0.  1.
         11    1    4    4    0    0 -0.45858273516E+02  0.33760626728E+02  0.49091977512E+01  0.57156464110E+02  0.00000000000E+00 0. -1.
        -12    1    4    4    0    0 -0.46467472836E+02  0.41291491064E+02  0.76561105445E+02  0.98619552489E+02  0.00000000000E+00 0.  1.
</event>
<event>
12    1  0.8494789E-002  0.2137992E+03  0.7818608E-02  0.1139188E+00
         21   -1    0    0  503  502  0.00000000000E+00  0.00000000000E+00  0.12389240888E+03  0.12389240888E+03  0.00000000000E+00 0. -1.
         21   -1    0    0  501  503 -0.00000000000E+00 -0.00000000000E+00 -0.44927939671E+03  0.44927939671E+03  0.00000000000E+00 0. -1.
          6    2    1    2  501    0 -0.12612233447E+03  0.13472861742E+02 -0.28872166683E+03  0.35926354660E+03  0.17210965622E+03 0.  0.
         24    2    3    3    0    0 -0.11350984930E+03  0.68833245244E+02 -0.17514280567E+03  0.23219626306E+03  0.74950654855E+02 0.  0.
         -6    2    1    2    0  502  0.12612233447E+03 -0.13472861742E+02 -0.36665320999E+02  0.21390825898E+03  0.16829746356E+03 0.  0.
        -24    2    5    5    0    0  0.23797228525E+02  0.50865287498E-01 -0.66555488792E+02  0.10634976034E+03  0.79462744493E+02 0.  0.
          5    1    3    3  501    0 -0.12612485171E+02 -0.55360383502E+02 -0.11357886116E+03  0.12706728354E+03  0.47000000000E+01 0. -1.
        -11    1    4    4    0    0 -0.42012140040E+02 -0.82881547860E+01 -0.27366503633E+02  0.50819670814E+02  0.00000000000E+00 0.  1.
         12    1    4    4    0    0 -0.71497709262E+02  0.77121400030E+02 -0.14777630204E+03  0.18137659225E+03  0.00000000000E+00 0. -1.
         -5    1    5    5    0  502  0.10232510595E+03 -0.13523727029E+02  0.29890167793E+02  0.10755849865E+03  0.47000000000E+01 0.  1.
         11    1    6    6    0    0 -0.21065765907E+02  0.57433748354E+01  0.43372453287E+01  0.22261279047E+02  0.00000000000E+00 0. -1.
        -12    1    6    6    0    0  0.44862994432E+02 -0.56925095479E+01 -0.70892734120E+02  0.84088481289E+02  0.00000000000E+00 0.  1.
</event>
<event>
12    1  0.8494789E-002  0.2120544E+03  0.7818608E-02  0.1142095E+00
         21   -1    0    0  501  502  0.00000000000E+00  0.00000000000E+00  0.23265880970E+03  0.23265880970E+03  0.00000000000E+00 0.  1.
         21   -1    0    0  502  503 -0.00000000000E+00 -0.00000000000E+00 -0.18810256183E+03  0.18810256183E+03  0.00000000000E+00 0. -1.
         -6    2    1    2    0  503 -0.10939075449E+03  0.59185876846E+02 -0.94580508782E+01  0.21226522418E+03  0.17174913533E+03 0.  0.
        -24    2    3    3    0    0 -0.47368917718E+02 -0.36121571321E+02 -0.18777687368E+02  0.98076067358E+02  0.75615680683E+02 0.  0.
          6    2    1    2  501    0  0.10939075449E+03 -0.59185876846E+02  0.54014298742E+02  0.20849614735E+03  0.15837864062E+03 0.  0.
         24    2    5    5    0    0  0.46307055746E+02  0.24941267972E+02  0.18823290467E+02  0.97512244885E+02  0.79924410405E+02 0.  0.
          5    1    5    5  501    0  0.63083698741E+02 -0.84127144818E+02  0.35191008275E+02  0.11098390246E+03  0.47000000000E+01 0. -1.
        -13    1    6    6    0    0 -0.89078506625E+00  0.23498937133E+00  0.40126799392E+02  0.40137373450E+02  0.00000000000E+00 0.  1.
         14    1    6    6    0    0  0.47197840812E+02  0.24706278601E+02 -0.21303508925E+02  0.57374871434E+02  0.00000000000E+00 0. -1.
         -5    1    3    3    0  503 -0.62021836769E+02  0.95307448167E+02  0.93196364898E+01  0.11418915683E+03  0.47000000000E+01 0.  1.
         13    1    4    4    0    0  0.19961346002E+02 -0.14348462771E+01  0.12397472276E+00  0.20013232817E+02  0.00000000000E+00 0. -1.
        -14    1    4    4    0    0 -0.67330263720E+02 -0.34686725043E+02 -0.18901662091E+02  0.78062834541E+02  0.00000000000E+00 0.  1.
</event>
<event>
12    1  0.8494789E-002  0.1927717E+03  0.7818608E-02  0.1156116E+00
         21   -1    0    0  501  502  0.00000000000E+00  0.00000000000E+00  0.98945182008E+02  0.98945182008E+02  0.00000000000E+00 0. -1.
         21   -1    0    0  502  503 -0.00000000000E+00 -0.00000000000E+00 -0.10477940501E+04  0.10477940501E+04  0.00000000000E+00 0. -1.
         -6    2    1    2    0  503 -0.49090742123E+02  0.71415120686E+02 -0.93381187825E+03  0.95338196907E+03  0.17152998147E+03 0.  0.
        -24    2    3    3    0    0 -0.58889986860E+01  0.10751541931E+03 -0.57359426246E+03  0.58876101118E+03  0.77684648862E+02 0.  0.
          6    2    1    2  501    0  0.49090742123E+02 -0.71415120686E+02 -0.15036989866E+02  0.19335726307E+03  0.17219436603E+03 0.  0.
         24    2    5    5    0    0  0.33871144728E+02  0.27144765132E+02 -0.22198624769E+02  0.93261977211E+02  0.79504243487E+02 0.  0.
          5    1    5    5  501    0  0.15219597395E+02 -0.98559885817E+02  0.71616349031E+01  0.10009528586E+03  0.47000000000E+01 0. -1.
        -13    1    6    6    0    0  0.59627158024E+02  0.24237451939E+02 -0.19210959240E+02  0.67170774935E+02  0.00000000000E+00 0.  1.
         14    1    6    6    0    0 -0.25756013296E+02  0.29073131926E+01 -0.29876655297E+01  0.26091202276E+02  0.00000000000E+00 0. -1.
         -5    1    3    3    0  503 -0.43201743437E+02 -0.36100298626E+02 -0.36021761579E+03  0.36462095788E+03  0.47000000000E+01 0.  1.
         13    1    4    4    0    0  0.40029831489E+01  0.94151266004E+02 -0.55821047675E+03  0.56610901875E+03  0.00000000000E+00 0. -1.
        -14    1    4    4    0    0 -0.98919818349E+01  0.13364153307E+02 -0.15383785715E+02  0.22651992433E+02  0.00000000000E+00 0.  1.
</event>
<event>
12    1  0.8494789E-002  0.2060028E+03  0.7818608E-02  0.1144895E+00
         21   -1    0    0  501  502  0.00000000000E+00  0.00000000000E+00  0.11718766039E+03  0.11718766039E+03  0.00000000000E+00 0.  1.
         21   -1    0    0  502  503 -0.00000000000E+00 -0.00000000000E+00 -0.40025152181E+03  0.40025152181E+03  0.00000000000E+00 0.  1.
         -6    2    1    2    0  503 -0.99047384526E+02  0.53217759872E+02 -0.22268173612E+03  0.30335506278E+03  0.17261119363E+03 0.  0.
        -24    2    3    3    0    0  0.68299031476E+01  0.15401829189E+02 -0.14703335432E+03  0.16776445718E+03  0.79007859680E+02 0.  0.
          6    2    1    2  501    0  0.99047384526E+02 -0.53217759872E+02 -0.60382125293E+02  0.21408411942E+03  0.17188221195E+03 0.  0.
         24    2    5    5    0    0  0.86955947310E+02 -0.95254916000E+02 -0.68685164997E+02  0.16931408684E+03  0.85526442202E+02 0.  0.
          5    1    5    5  501    0  0.12091437217E+02  0.42037156128E+02  0.83030397032E+01  0.44770032584E+02  0.47000000000E+01 0. -1.
        -11    1    6    6    0    0  0.55887991803E+02 -0.36044556076E+02  0.86687185901E+01  0.67065820896E+02  0.00000000000E+00 0.  1.
         12    1    6    6    0    0  0.31067955507E+02 -0.59210359924E+02 -0.77353883587E+02  0.10224826594E+03  0.00000000000E+00 0. -1.
         -5    1    3    3    0  503 -0.10587728767E+03  0.37815930683E+02 -0.75648381807E+02  0.13559060561E+03  0.47000000000E+01 0.  1.
         13    1    4    4    0    0  0.10758876944E+02 -0.23010640372E+02 -0.11446780363E+03  0.11725238195E+03  0.00000000000E+00 0. -1.
        -14    1    4    4    0    0 -0.39289737959E+01  0.38412469561E+02 -0.32565550683E+02  0.50512075231E+02  0.00000000000E+00 0.  1.
</event>
<event>
12    1  0.8494789E-002  0.2394584E+03  0.7818608E-02  0.1120230E+00
         21   -1    0    0  503  502  0.00000000000E+00  0.00000000000E+00  0.14573229029E+03  0.14573229029E+03  0.00000000000E+00 0. -1.
         21   -1    0    0  501  503 -0.00000000000E+00 -0.00000000000E+00 -0.65689931707E+03  0.65689931707E+03  0.00000000000E+00 0. -1.
          6    2    1    2  501    0 -0.42458865144E+02  0.16014525535E+03 -0.50993849281E+03  0.56317001668E+03  0.17226126436E+03 0.  0.
         24    2    3    3    0    0 -0.61054358133E+02  0.78413573461E+02 -0.42559009863E+03  0.44416328668E+03  0.79232379967E+02 0.  0.
         -6    2    1    2    0  502  0.42458865144E+02 -0.16014525535E+03 -0.12285339624E+01  0.23946159068E+03  0.17289038745E+03 0.  0.
        -24    2    5    5    0    0  0.27337440998E+02 -0.12525220024E+03 -0.65192223560E+02  0.16489868871E+03  0.80660412715E+02 0.  0.
          5    1    3    3  501    0  0.18595492989E+02  0.81731681893E+02 -0.84348394186E+02  0.11900673000E+03  0.47000000000E+01 0. -1.
        -11    1    4    4    0    0 -0.19201819171E+02  0.52347440943E+02 -0.96911404975E+02  0.11180690876E+03  0.00000000000E+00 0.  1.
         12    1    4    4    0    0 -0.41852538962E+02  0.26066132518E+02 -0.32867869365E+03  0.33235637792E+03  0.00000000000E+00 0. -1.
         -5    1    5    5    0  502  0.15121424146E+02 -0.34893055112E+02  0.63963689597E+02  0.74562901970E+02  0.47000000000E+01 0.  1.
         13    1    6    6    0    0  0.10084422750E+02 -0.11278656294E+03 -0.20060786288E+02  0.11499973699E+03  0.00000000000E+00 0. -1.
        -14    1    6    6    0    0  0.17253018247E+02 -0.12465637301E+02 -0.45131437272E+02  0.49898951714E+02  0.00000000000E+00 0.  1.
</event>
<event>
12    1  0.8494789E-002  0.1874617E+03  0.7818608E-02  0.1160819E+00
         21   -1    0    0  503  502  0.00000000000E+00  0.00000000000E+00  0.13907973124E+03  0.13907973124E+03  0.00000000000E+00 0. -1.
         21   -1    0    0  501  503 -0.00000000000E+00 -0.00000000000E+00 -0.25824436523E+03  0.25824436523E+03  0.00000000000E+00 0. -1.
          6    2    1    2  501    0  0.74142235799E+02 -0.10037791525E+01 -0.89452788273E+02  0.20752239903E+03  0.17194669543E+03 0.  0.
         24    2    3    3    0    0 -0.12412941773E+02  0.28717220832E+02 -0.11965570052E+02  0.87516167561E+02  0.80852611722E+02 0.  0.
         -6    2    1    2    0  502 -0.74142235799E+02  0.10037791525E+01 -0.29711845721E+02  0.18980169743E+03  0.17217378392E+03 0.  0.
        -24    2    5    5    0    0 -0.77280359411E+02 -0.57509319289E+02 -0.11029183674E+01  0.12442439836E+03  0.78744134532E+02 0.  0.
          5    1    3    3  501    0  0.86555177572E+02 -0.29720999985E+02 -0.77487218221E+02  0.12000623147E+03  0.47000000000E+01 0. -1.
        -11    1    4    4    0    0 -0.22821595001E+02 -0.16324506539E+02 -0.26964306489E+02  0.38915145337E+02  0.00000000000E+00 0.  1.
         12    1    4    4    0    0  0.10408653228E+02  0.45041727371E+02  0.14998736437E+02  0.48601022225E+02  0.00000000000E+00 0. -1.
         -5    1    5    5    0  502  0.31381236124E+01  0.58513098442E+02 -0.28608927353E+02  0.65377299068E+02  0.47000000000E+01 0.  1.
         13    1    6    6    0    0 -0.51080536695E+01 -0.51690926455E+02 -0.25241108824E+01  0.52003992403E+02  0.00000000000E+00 0. -1.
        -14    1    6    6    0    0 -0.72172305742E+02 -0.58183928341E+01  0.14211925150E+01  0.72420405960E+02  0.00000000000E+00 0.  1.
</event>
<event>
12    1  0.8494789E-002  0.1742116E+03  0.7818608E-02  0.1173755E+00
         21   -1    0    0  501  502  0.00000000000E+00  0.00000000000E+00  0.26548151162E+02  0.26548151162E+02  0.00000000000E+00 0. -1.
         21   -1    0    0  502  503 -0.00000000000E+00 -0.00000000000E+00 -0.12346512997E+04  0.12346512997E+04  0.00000000000E+00 0. -1.
         -6    2    1    2    0  503  0.10594578834E+02 -0.14866659064E+02 -0.77971861856E+03  0.79874622658E+03  0.17234020917E+03 0.  0.
        -24    2    3    3    0    0 -0.44253435061E+02  0.32383790004E+02 -0.52119851150E+03  0.53023990390E+03  0.80618800092E+02 0.  0.
          6    2    1    2  501    0 -0.10594578834E+02  0.14866659064E+02 -0.42838452995E+03  0.46245322425E+03  0.17325246454E+03 0.  0.
         24    2    5    5    0    0 -0.29182505461E+02 -0.55486895490E+02 -0.24623089786E+03  0.26624626888E+03  0.79542481942E+02 0.  0.
          5    1    5    5  501    0  0.18587926626E+02  0.70353554555E+02 -0.18215363209E+03  0.19620695537E+03  0.47000000000E+01 0. -1.
        -13    1    6    6    0    0 -0.54568640877E+01 -0.18440652068E+02 -0.20516835166E+03  0.20606767708E+03  0.00000000000E+00 0.  1.
         14    1    6    6    0    0 -0.23725641373E+02 -0.37046243422E+02 -0.41062546204E+02  0.60178591800E+02  0.00000000000E+00 0. -1.
         -5    1    3    3    0  503  0.54848013896E+02 -0.47250449069E+02 -0.25852010706E+03  0.26850632268E+03  0.47000000000E+01 0.  1.
         11    1    4    4    0    0 -0.31429101401E+02  0.86884422132E+01 -0.47941565238E+03  0.48052330349E+03  0.00000000000E+00 0. -1.
        -12    1    4    4    0    0 -0.12824333660E+02  0.23695347791E+02 -0.41782859118E+02  0.49716600415E+02  0.00000000000E+00 0.  1.
</event>
<event>
12    1  0.8494789E-002  0.2163237E+03  0.7818608E-02  0.1136762E+00
         21   -1    0    0  503  502  0.00000000000E+00  0.00000000000E+00  0.56198879561E+02  0.56198879561E+02  0.00000000000E+00 0. -1.
         21   -1    0    0  501  503 -0.00000000000E+00 -0.00000000000E+00 -0.94458258200E+03  0.94458258200E+03  0.00000000000E+00 0. -1.
          6    2    1    2  501    0  0.12760343163E+03  0.17548771966E+02 -0.61757435240E+03  0.65417848140E+03  0.17309191091E+03 0.  0.
         24    2    3    3    0    0  0.11341124548E+03  0.68626734274E+02 -0.37490763532E+03  0.40574418030E+03  0.80627945360E+02 0.  0.
         -6    2    1    2    0  502 -0.12760343163E+03 -0.17548771966E+02 -0.27080935004E+03  0.34660298016E+03  0.17379679694E+03 0.  0.
        -24    2    5    5    0    0 -0.14471303589E+03 -0.51558015947E+02 -0.21817828745E+03  0.28147628837E+03  0.89593772299E+02 0.  0.
          5    1    3    3  501    0  0.14192186151E+02 -0.51077962308E+02 -0.24266671708E+03  0.24843430110E+03  0.47000000000E+01 0. -1.
        -13    1    4    4    0    0  0.68805831910E+02  0.25123233183E+02 -0.10055617797E+03  0.12440644789E+03  0.00000000000E+00 0.  1.
         14    1    4    4    0    0  0.44605413570E+02  0.43503501091E+02 -0.27435145735E+03  0.28133773241E+03  0.00000000000E+00 0. -1.
         -5    1    5    5    0  502  0.17109604264E+02  0.34009243981E+02 -0.52631062591E+02  0.65126691791E+02  0.47000000000E+01 0.  1.
         13    1    6    6    0    0 -0.52864487712E+01 -0.36784335218E+02 -0.37706539193E+02  0.52941637262E+02  0.00000000000E+00 0. -1.
        -14    1    6    6    0    0 -0.13942658712E+03 -0.14773680729E+02 -0.18047174825E+03  0.22853465111E+03  0.00000000000E+00 0.  1.
</event>
<event>
12    1  0.8494789E-002  0.1856165E+03  0.7818608E-02  0.1162592E+00
         21   -1    0    0  503  502  0.00000000000E+00  0.00000000000E+00  0.82446380823E+02  0.82446380823E+02  0.00000000000E+00 0.  1.
         21   -1    0    0  501  503 -0.00000000000E+00 -0.00000000000E+00 -0.42193388720E+03  0.42193388720E+03  0.00000000000E+00 0. -1.
          6    2    1    2  501    0 -0.28058698453E+02 -0.63610313549E+02 -0.14205718182E+03  0.23373860576E+03  0.17210441704E+03 0.  0.
         24    2    3    3    0    0  0.21317885295E+02  0.10277373099E+02  0.22880497018E+01  0.64165397009E+02  0.59597704408E+02 0.  0.
         -6    2    1    2    0  502  0.28058698453E+02  0.63610313549E+02 -0.19743032455E+03  0.27064166226E+03  0.17156518805E+03 0.  0.
        -24    2    5    5    0    0 -0.35064772017E+02  0.79208521390E+02 -0.11939264501E+03  0.16895662875E+03  0.82390597882E+02 0.  0.
          5    1    3    3  501    0 -0.49376583748E+02 -0.73887686648E+02 -0.14434523152E+03  0.16957320875E+03  0.47000000000E+01 0. -1.
        -13    1    4    4    0    0 -0.77788413285E+01 -0.12015126770E+02  0.19076142957E+02  0.23848959596E+02  0.00000000000E+00 0.  1.
         14    1    4    4    0    0  0.29096726624E+02  0.22292499868E+02 -0.16788093255E+02  0.40316437414E+02  0.00000000000E+00 0. -1.
         -5    1    5    5    0  502  0.63123470470E+02 -0.15598207841E+02 -0.78037679540E+02  0.10168503351E+03  0.47000000000E+01 0.  1.
         11    1    6    6    0    0  0.23754248922E+02  0.16426755204E+02 -0.52730358504E+02  0.60121488141E+02  0.00000000000E+00 0. -1.
        -12    1    6    6    0    0 -0.58819020939E+02  0.62781766186E+02 -0.66662286506E+02  0.10883514061E+03  0.00000000000E+00 0.  1.
</event>
<event>
12    1  0.8494789E-002  0.2227165E+03  0.7818608E-02  0.1132203E+00
         21   -1    0    0  503  502  0.00000000000E+00  0.00000000000E+00  0.12055762103E+03  0.12055762103E+03  0.00000000000E+00 0.  1.
         21   -1    0    0  501  503 -0.00000000000E+00 -0.00000000000E+00 -0.46888398164E+03  0.46888398164E+03  0.00000000000E+00 0. -1.
          6    2    1    2  501    0 -0.10750407770E+03  0.85528545538E+02 -0.27962018823E+03  0.35636829700E+03  0.17302790126E+03 0.  0.
         24    2    3    3    0    0 -0.71747593392E+02  0.38441677144E+02 -0.60027768374E+02  0.12890704710E+03  0.79926304289E+02 0.  0.
         -6    2    1    2    0  502  0.10750407770E+03 -0.85528545538E+02 -0.68706172380E+02  0.23307330568E+03  0.17530079541E+03 0.  0.
        -24    2    5    5    0    0  0.52970143183E+02  0.16761058019E+02 -0.21024186115E-01  0.98251747342E+02  0.81034784377E+02 0.  0.
          5    1    3    3  501    0 -0.35756484303E+02  0.47086868394E+02 -0.21959241986E+03  0.22746124990E+03  0.47000000000E+01 0. -1.
        -11    1    4    4    0    0 -0.45449387240E+02  0.34821150019E+02 -0.78066509609E+02  0.96811875365E+02  0.00000000000E+00 0.  1.
         12    1    4    4    0    0 -0.26298206152E+02  0.36205271245E+01  0.18038741235E+02  0.32095171737E+02  0.00000000000E+00 0. -1.
         -5    1    5    5    0  502  0.54533934512E+02 -0.10228960356E+03 -0.68685148194E+02  0.13482155833E+03  0.47000000000E+01 0.  1.
         11    1    6    6    0    0  0.72373919679E+02  0.25796488922E+02  0.65701212201E+00  0.76836675847E+02  0.00000000000E+00 0. -1.
        -12    1    6    6    0    0 -0.19403776495E+02 -0.90354309031E+01 -0.67803630813E+00  0.21415071495E+02  0.00000000000E+00 0.  1.
</event>
<event>
12    1  0.8494789E-002  0.1785243E+03  0.7818608E-02  0.1169802E+00
         21   -1    0    0  501  502  0.00000000000E+00  0.00000000000E+00  0.68998770016E+03  0.68998770016E+03  0.00000000000E+00 0. -1.
         21   -1    0    0  502  503 -0.00000000000E+00 -0.00000000000E+00 -0.84926577093E+02  0.84926577093E+02  0.00000000000E+00 0. -1.
         -6    2    1    2    0  503 -0.38638001139E+02  0.28528051942E+02  0.37829294264E+02  0.18025229961E+03  0.16956736457E+03 0.  0.
        -24    2    3    3    0    0 -0.38005639000E+02 -0.37963783736E+02 -0.12599431985E+02  0.96665754487E+02  0.79371562495E+02 0.  0.
          6    2    1    2  501    0  0.38638001139E+02 -0.28528051942E+02  0.56723182880E+03  0.59466197764E+03  0.17194236003E+03 0.  0.
         24    2    5    5    0    0  0.37516369179E+01 -0.20734988381E+02  0.11460378672E+03  0.14060028060E+03  0.78679072509E+02 0.  0.
          5    1    5    5  501    0  0.34886364221E+02 -0.77930635609E+01  0.45262804208E+03  0.45406169705E+03  0.47000000000E+01 0. -1.
        -11    1    6    6    0    0 -0.24124151558E+02 -0.40449501721E+02  0.61385890746E+02  0.77371599833E+02  0.00000000000E+00 0.  1.
         12    1    6    6    0    0  0.27875788476E+02  0.19714513341E+02  0.53217895973E+02  0.63228680764E+02  0.00000000000E+00 0. -1.
         -5    1    3    3    0  503 -0.63236213945E+00  0.66491835678E+02  0.50428726249E+02  0.83586545118E+02  0.47000000000E+01 0.  1.
         13    1    4    4    0    0  0.15048465993E+02 -0.22294003602E+02  0.19023834109E+02  0.32945184619E+02  0.00000000000E+00 0. -1.
        -14    1    4    4    0    0 -0.53054104992E+02 -0.15669780134E+02 -0.31623266093E+02  0.63720569869E+02  0.00000000000E+00 0.  1.
</event>
<event>
12    1  0.8494789E-002  0.2235382E+03  0.7818608E-02  0.1131437E+00
         21   -1    0    0  503  502  0.00000000000E+00  0.00000000000E+00  0.30557866172E+03  0.30557866172E+03  0.00000000000E+00 0. -1.
         21   -1    0    0  501  503 -0.00000000000E+00 -0.00000000000E+00 -0.40319586488E+03  0.40319586488E+03  0.00000000000E+00 0.  1.
          6    2    1    2  501    0  0.62276419554E+02  0.12796525277E+03 -0.32237399681E+03  0.39178095708E+03  0.17121292638E+03 0.  0.
         24    2    3    3    0    0  0.18227915011E+02 -0.52283173303E+01 -0.11498443040E+03  0.14135468025E+03  0.80000838789E+02 0.  0.
         -6    2    1    2    0  502 -0.62276419554E+02 -0.12796525277E+03  0.22475679365E+03  0.31699356952E+03  0.17238285435E+03 0.  0.
        -24    2    5    5    0    0 -0.96097475006E+01 -0.69752232598E+02  0.21353411347E+03  0.23755445690E+03  0.76665384479E+02 0.  0.
          5    1    3    3  501    0  0.44048504543E+02  0.13319357010E+03 -0.20738956642E+03  0.25042627683E+03  0.47000000000E+01 0. -1.
        -13    1    4    4    0    0  0.47736749360E+01 -0.20271381239E+02 -0.11897333242E+03  0.12078232775E+03  0.00000000000E+00 0.  1.
         14    1    4    4    0    0  0.13454240075E+02  0.15043063909E+02  0.39889020278E+01  0.20572352494E+02  0.00000000000E+00 0. -1.
         -5    1    5    5    0  502 -0.52666672053E+02 -0.58213020176E+02  0.11222680178E+02  0.79439112618E+02  0.47000000000E+01 0.  1.
         11    1    6    6    0    0 -0.24603836738E+02 -0.66421669186E+02  0.97527665720E+02  0.12053560677E+03  0.00000000000E+00 0. -1.
        -12    1    6    6    0    0  0.14994089237E+02 -0.33305634121E+01  0.11600644775E+03  0.11701885012E+03  0.00000000000E+00 0.  1.
</event>
<event>
12    1  0.8494789E-002  0.1732553E+03  0.7818608E-02  0.1174698E+00
         21   -1    0    0  501  502  0.00000000000E+00  0.00000000000E+00  0.63114437841E+02  0.63114437841E+02  0.00000000000E+00 0. -1.
         21   -1    0    0  502  503 -0.00000000000E+00 -0.00000000000E+00 -0.48519754467E+03  0.48519754467E+03  0.00000000000E+00 0. -1.
         -6    2    1    2    0  503 -0.37882283924E+00 -0.17242111582E+02 -0.16784493085E+03  0.24065235325E+03  0.17159312456E+03 0.  0.
        -24    2    3    3    0    0 -0.60281528201E+02 -0.55287905866E+00 -0.14025694317E+03  0.17246106601E+03  0.80228678567E+02 0.  0.
          6    2    1    2  501    0  0.37882283924E+00  0.17242111582E+02 -0.25423817599E+03  0.30765962926E+03  0.17239478945E+03 0.  0.
         24    2    5    5    0    0  0.61369275973E+02  0.30920946627E+02 -0.11480527422E+03  0.15478526909E+03  0.77819891836E+02 0.  0.
          5    1    5    5  501    0 -0.60990453134E+02 -0.13678835046E+02 -0.13943290176E+03  0.15287436017E+03  0.47000000000E+01 0. -1.
        -13    1    6    6    0    0  0.12552590816E+02  0.15380685129E+01  0.10947497125E+02  0.16726651914E+02  0.00000000000E+00 0.  1.
         14    1    6    6    0    0  0.48816685157E+02  0.29382878115E+02 -0.12575277135E+03  0.13805861718E+03  0.00000000000E+00 0. -1.
         -5    1    3    3    0  503  0.59902705362E+02 -0.16689232523E+02 -0.27587987675E+02  0.68191287243E+02  0.47000000000E+01 0.  1.
         11    1    4    4    0    0 -0.55014452488E+02 -0.31538672785E+01 -0.31355168456E+02  0.63400973575E+02  0.00000000000E+00 0. -1.
        -12    1    4    4    0    0 -0.52670757132E+01  0.26009882198E+01 -0.10890177471E+03  0.10906009244E+03  0.00000000000E+00 0.  1.
</event>
<event>
12    1  0.8494789E-002  0.1757126E+03  0.7818608E-02  0.1172109E+00
         21   -1    0    0  503  502  0.00000000000E+00  0.00000000000E+00  0.60087951933E+03  0.60087951933E+03  0.00000000000E+00 0.  1.
         21   -1    0    0  501  503 -0.00000000000E+00 -0.00000000000E+00 -0.52328368613E+02  0.52328368613E+02  0.00000000000E+00 0. -1.
          6    2    1    2  501    0 -0.10843135698E+02 -0.32407461116E+02  0.22824851020E+03  0.28804912690E+03  0.17235747728E+03 0.  0.
         24    2    3    3    0    0  0.31858281521E+02 -0.66335206657E+02  0.19707881570E+03  0.22505593040E+03  0.79967508834E+02 0.  0.
         -6    2    1    2    0  502  0.10843135698E+02  0.32407461116E+02  0.32030264051E+03  0.36515876104E+03  0.17198640096E+03 0.  0.
        -24    2    5    5    0    0  0.69036977842E+02  0.31280810152E+02  0.15438950081E+03  0.18926944206E+03  0.79007660022E+02 0.  0.
          5    1    3    3  501    0 -0.42701417219E+02  0.33927745541E+02  0.31169694507E+02  0.62993196503E+02  0.47000000000E+01 0. -1.
        -13    1    4    4    0    0  0.53239603134E+01  0.18777666674E+02  0.36087802404E+02  0.41027732102E+02  0.00000000000E+00 0.  1.
         14    1    4    4    0    0  0.26534321208E+02 -0.85112873330E+02  0.16099101329E+03  0.18402819830E+03  0.00000000000E+00 0. -1.
         -5    1    5    5    0  502 -0.58193842145E+02  0.11266509647E+01  0.16591313970E+03  0.17588931898E+03  0.47000000000E+01 0.  1.
         13    1    6    6    0    0  0.18683147227E+02  0.24514496540E+02  0.46823331752E+01  0.31176028850E+02  0.00000000000E+00 0. -1.
        -14    1    6    6    0    0  0.50353830616E+02  0.67663136119E+01  0.14970716764E+03  0.15809341321E+03  0.00000000000E+00 0.  1.
</event>
<event>
12    1  0.8494789E-002  0.1767049E+03  0.7818608E-02  0.1173359E+00
         21   -1    0    0  503  502  0.00000000000E+00  0.00000000000E+00  0.81383947819E+03  0.81383947819E+03  0.00000000000E+00 0.  1.
         21   -1    0    0  501  503 -0.00000000000E+00 -0.00000000000E+00 -0.37352926684E+02  0.37352926684E+02  0.00000000000E+00 0.  1.
          6    2    1    2  501    0 -0.39780576167E+02  0.27628364570E+02  0.31061002404E+03  0.35292987606E+03  0.16042159958E+03 0.  0.
         24    2    3    3    0    0  0.15014347528E+02  0.21933341574E+02  0.27410056643E+03  0.28667319757E+03  0.79648600625E+02 0.  0.
         -6    2    1    2    0  502  0.39780576167E+02 -0.27628364570E+02  0.46587652747E+03  0.49826252882E+03  0.16993760034E+03 0.  0.
        -24    2    5    5    0    0 -0.38357154259E+02  0.93178029684E+01  0.21031520798E+03  0.22843999042E+03  0.79964053039E+02 0.  0.
          5    1    3    3  501    0 -0.54794923695E+02  0.56950229963E+01  0.36509457611E+02  0.66256678491E+02  0.47000000000E+01 0. -1.
        -11    1    4    4    0    0 -0.11093767561E+02  0.17327119701E+02  0.13234172146E+02  0.24463116487E+02  0.00000000000E+00 0.  1.
         12    1    4    4    0    0  0.26108115090E+02  0.46062218729E+01  0.26086639428E+03  0.26221008108E+03  0.00000000000E+00 0. -1.
         -5    1    5    5    0  502  0.78137730426E+02 -0.36946167538E+02  0.25556131948E+03  0.26982253840E+03  0.47000000000E+01 0.  1.
         13    1    6    6    0    0 -0.36095263049E+02 -0.31299464105E+02  0.12789579545E+03  0.13652786881E+03  0.00000000000E+00 0. -1.
        -14    1    6    6    0    0 -0.22618912095E+01  0.40617267073E+02  0.82419412534E+02  0.91912121610E+02  0.00000000000E+00 0.  1.
</event>
<event>
12    1  0.8494789E-002  0.1807262E+03  0.7818608E-02  0.1167693E+00
         21   -1    0    0  501  502  0.00000000000E+00  0.00000000000E+00  0.46301453422E+03  0.46301453422E+03  0.00000000000E+00 0. -1.
         21   -1    0    0  502  503 -0.00000000000E+00 -0.00000000000E+00 -0.85671049792E+02  0.85671049792E+02  0.00000000000E+00 0.  1.
         -6    2    1    2    0  503 -0.39014119547E+02 -0.39109070698E+02  0.70868032601E+02  0.19412424265E+03  0.17207650218E+03 0.  0.
        -24    2    3    3    0    0  0.42125339334E+02 -0.29966083994E+02  0.24744851429E+02  0.10022725742E+03  0.82223385078E+02 0.  0.
          6    2    1    2  501    0  0.39014119547E+02  0.39109070698E+02  0.30647545182E+03  0.35456134136E+03  0.16951377904E+03 0.  0.
         24    2    5    5    0    0 -0.41205270779E+01  0.27069378265E+02  0.26269755125E+02  0.70760576043E+02  0.59726284872E+02 0.  0.
          5    1    5    5  501    0  0.43134646625E+02  0.12039692433E+02  0.28020569670E+03  0.28380076532E+03  0.47000000000E+01 0. -1.
        -13    1    6    6    0    0  0.17983784546E+01  0.40508529013E+02  0.35095922726E+02  0.53627407917E+02  0.00000000000E+00 0.  1.
         14    1    6    6    0    0 -0.59189055325E+01 -0.13439150748E+02 -0.88261676014E+01  0.17133168126E+02  0.00000000000E+00 0. -1.
         -5    1    3    3    0  503 -0.81139458881E+02 -0.91429867037E+01  0.46123181172E+02  0.93896985227E+02  0.47000000000E+01 0.  1.
         13    1    4    4    0    0  0.36189516330E+02 -0.54196509077E+02  0.34140361780E+02  0.73569742359E+02  0.00000000000E+00 0. -1.
        -14    1    4    4    0    0  0.59358230044E+01  0.24230425083E+02 -0.93955103513E+01  0.26657515061E+02  0.00000000000E+00 0.  1.
</event>
<event>
12    1  0.8494789E-002  0.1822129E+03  0.7818608E-02  0.1166982E+00
         21   -1    0    0  503  502  0.00000000000E+00  0.00000000000E+00  0.10603083150E+03  0.10603083150E+03  0.00000000000E+00 0. -1.
         21   -1    0    0  501  503 -0.00000000000E+00 -0.00000000000E+00 -0.12016511521E+04  0.12016511521E+04  0.00000000000E+00 0. -1.
          6    2    1    2  501    0 -0.61507691142E+02 -0.59080350326E+01 -0.11150057368E+04  0.11297961523E+04  0.17141601948E+03 0.  0.
         24    2    3    3    0    0 -0.60579780128E+02  0.59008972468E+02 -0.75756254951E+03  0.76647425506E+03  0.80186025344E+02 0.  0.
         -6    2    1    2    0  502  0.61507691142E+02  0.59080350326E+01  0.19385416269E+02  0.17788583122E+03  0.16567882676E+03 0.  0.
        -24    2    5    5    0    0 -0.17141257783E+02 -0.48040128980E+01 -0.73549683692E+01  0.93995764416E+02  0.92001124505E+02 0.  0.
          5    1    3    3  501    0 -0.92791101381E+00 -0.64917007501E+02 -0.35744318731E+03  0.36332189727E+03  0.47000000000E+01 0. -1.
        -11    1    4    4    0    0  0.81441878499E+01  0.37906657753E+02 -0.16134413880E+03  0.16593725809E+03  0.00000000000E+00 0.  1.
         12    1    4    4    0    0 -0.68723967978E+02  0.21102314715E+02 -0.59621841071E+03  0.60053699697E+03  0.00000000000E+00 0. -1.
         -5    1    5    5    0  502  0.78648948925E+02  0.10712047931E+02  0.26740384638E+02  0.83890066805E+02  0.47000000000E+01 0.  1.
         11    1    6    6    0    0  0.23702748820E+02  0.17462809074E+02  0.23926230755E+02  0.37937244504E+02  0.00000000000E+00 0. -1.
        -12    1    6    6    0    0 -0.40844006603E+02 -0.22266821972E+02 -0.31281199124E+02  0.56058519913E+02  0.00000000000E+00 0.  1.
</event>
<event>
12    1  0.8494789E-002  0.2769154E+03  0.7818608E-02  0.1097419E+00
         21   -1    0    0  501  502  0.00000000000E+00  0.00000000000E+00  0.21799014901E+03  0.21799014901E+03  0.00000000000E+00 0. -1.
         21   -1    0    0  502  503 -0.00000000000E+00 -0.00000000000E+00 -0.15920746299E+04  0.15920746299E+04  0.00000000000E+00 0. -1.
         -6    2    1    2    0  503  0.15337487036E+03 -0.15370437918E+03 -0.14860217985E+04  0.15116027630E+04  0.17185238005E+03 0.  0.
        -24    2    3    3    0    0  0.10369276773E+03 -0.17178618648E+03 -0.10134735601E+04  0.10360828468E+04  0.77950782823E+02 0.  0.
          6    2    1    2  501    0 -0.15337487036E+03  0.15370437918E+03  0.11193731765E+03  0.29846201584E+03  0.17146639549E+03 0.  0.
         24    2    5    5    0    0 -0.88178687456E+02  0.13397852348E+03  0.13736334454E+02  0.17885777366E+03  0.77946716665E+02 0.  0.
          5    1    5    5  501    0 -0.65196182900E+02  0.19725855704E+02  0.98200983192E+02  0.11960424218E+03  0.47000000000E+01 0. -1.
        -11    1    6    6    0    0 -0.27865146990E+02  0.27931238688E+01  0.19875944100E+02  0.34341245050E+02  0.00000000000E+00 0.  1.
         12    1    6    6    0    0 -0.60313540466E+02  0.13118539961E+03 -0.61396096459E+01  0.14451652861E+03  0.00000000000E+00 0. -1.
         -5    1    3    3    0  503  0.49682102631E+02  0.18081807291E+02 -0.47254823845E+03  0.47551991624E+03  0.47000000000E+01 0.  1.
         11    1    4    4    0    0  0.42595414414E+02 -0.85465800651E+02 -0.66782705758E+03  0.67461970861E+03  0.00000000000E+00 0. -1.
        -12    1    4    4    0    0  0.61097353311E+02 -0.86320385825E+02 -0.34564650249E+03  0.36146313819E+03  0.00000000000E+00 0.  1.
</event>
<event>
12    1  0.8494789E-002  0.1810837E+03  0.7818608E-02  0.1166981E+00
         21   -1    0    0  503  502  0.00000000000E+00  0.00000000000E+00  0.13015378064E+03  0.13015378064E+03  0.00000000000E+00 0.  1.
         21   -1    0    0  501  503 -0.00000000000E+00 -0.00000000000E+00 -0.35858484980E+03  0.35858484980E+03  0.00000000000E+00 0.  1.
          6    2    1    2  501    0 -0.53977909162E+02 -0.30495556584E+01 -0.24807503260E+03  0.30659257578E+03  0.17185712455E+03 0.  0.
         24    2    3    3    0    0 -0.87810885592E+01 -0.34181604101E+02 -0.23399994527E+03  0.24974052994E+03  0.79805189899E+02 0.  0.
         -6    2    1    2    0  502  0.53977909162E+02  0.30495556584E+01  0.19643963435E+02  0.18214605467E+03  0.17282472469E+03 0.  0.
        -24    2    5    5    0    0 -0.34003083188E+02 -0.16911685439E+02 -0.82355641652E+01  0.87602603173E+02  0.78512271619E+02 0.  0.
          5    1    3    3  501    0 -0.45196820603E+02  0.31132048443E+02 -0.14075087327E+02  0.56852045839E+02  0.47000000000E+01 0. -1.
        -11    1    4    4    0    0 -0.32066725922E+02 -0.41901009060E+02 -0.20536198908E+03  0.21203187503E+03  0.00000000000E+00 0.  1.
         12    1    4    4    0    0  0.23285637362E+02  0.77194049587E+01 -0.28637956187E+02  0.37708654907E+02  0.00000000000E+00 0. -1.
         -5    1    5    5    0  502  0.87980992350E+02  0.19961241098E+02  0.27879527600E+02  0.94543451494E+02  0.47000000000E+01 0.  1.
         11    1    6    6    0    0 -0.15962764554E+02 -0.35681943633E+01 -0.43123670865E+02  0.46121500974E+02  0.00000000000E+00 0. -1.
        -12    1    6    6    0    0 -0.18040318635E+02 -0.13343491076E+02  0.34888106700E+02  0.41481102199E+02  0.00000000000E+00 0.  1.
</event>
<event>
12    1  0.8494789E-002  0.2254204E+03  0.7818608E-02  0.1129933E+00
         21   -1    0    0  503  502  0.00000000000E+00  0.00000000000E+00  0.50286088401E+02  0.50286088401E+02  0.00000000000E+00 0. -1.
         21   -1    0    0  501  503 -0.00000000000E+00 -0.00000000000E+00 -0.14595849434E+04  0.14595849434E+04  0.00000000000E+00 0. -1.
          6    2    1    2  501    0  0.29707640170E+02  0.14159899535E+03 -0.11238926903E+04  0.11462762055E+04  0.17286278012E+03 0.  0.
         24    2    3    3    0    0 -0.46440038083E+02  0.82793151716E+02 -0.51249465900E+03  0.52733659718E+03  0.80135685606E+02 0.  0.
         -6    2    1    2    0  502 -0.29707640170E+02 -0.14159899535E+03 -0.28540616477E+03  0.36359482631E+03  0.17266064828E+03 0.  0.
        -24    2    5    5    0    0  0.27858032564E+02 -0.19781432005E+02 -0.12629907062E+03  0.15505110710E+03  0.83198651080E+02 0.  0.
          5    1    3    3  501    0  0.76147678253E+02  0.58805843635E+02 -0.61139803127E+03  0.61893960836E+03  0.47000000000E+01 0. -1.
        -11    1    4    4    0    0 -0.18161338428E+02  0.21384422365E+02 -0.33961305953E+02  0.44051084384E+02  0.00000000000E+00 0.  1.
         12    1    4    4    0    0 -0.28278699656E+02  0.61408729352E+02 -0.47853335305E+03  0.48328551279E+03  0.00000000000E+00 0. -1.
         -5    1    5    5    0  502 -0.57565672734E+02 -0.12181756335E+03 -0.15910709415E+03  0.20854371922E+03  0.47000000000E+01 0.  1.
         11    1    6    6    0    0 -0.13825466341E+02 -0.40330019413E+02 -0.71001644589E+02  0.82818400853E+02  0.00000000000E+00 0. -1.
        -12    1    6    6    0    0  0.41683498905E+02  0.20548587409E+02 -0.55297426032E+02  0.72232706243E+02  0.00000000000E+00 0.  1.
</event>
<event>
12    1  0.8494789E-002  0.2450267E+03  0.7818608E-02  0.1116675E+00
         21   -1    0    0  503  502  0.00000000000E+00  0.00000000000E+00  0.17625109618E+03  0.17625109618E+03  0.00000000000E+00 0.  1.
         21   -1    0    0  501  503 -0.00000000000E+00 -0.00000000000E+00 -0.37647878902E+03  0.37647878902E+03  0.00000000000E+00 0.  1.
          6    2    1    2  501    0 -0.15019305378E+03 -0.86552353218E+02 -0.18746787089E+03  0.30851627060E+03  0.17317281357E+03 0.  0.
         24    2    3    3    0    0 -0.82540033918E+02  0.19502334866E+02 -0.11493324302E+03  0.16323072348E+03  0.79002661179E+02 0.  0.
         -6    2    1    2    0  502  0.15019305378E+03  0.86552353218E+02 -0.12759821952E+02  0.24421361460E+03  0.17154653377E+03 0.  0.
        -24    2    5    5    0    0  0.10286430329E+02  0.53498087782E+02 -0.21907699004E+02  0.10008790071E+03  0.81054207465E+02 0.  0.
          5    1    3    3  501    0 -0.67653019863E+02 -0.10605468808E+03 -0.72534627868E+02  0.14528554712E+03  0.47000000000E+01 0. -1.
        -13    1    4    4    0    0 -0.88038058869E+02 -0.54488423881E+01 -0.74786661798E+02  0.11564356651E+03  0.00000000000E+00 0.  1.
         14    1    4    4    0    0  0.54980249516E+01  0.24951177254E+02 -0.40146581223E+02  0.47587156971E+02  0.00000000000E+00 0. -1.
         -5    1    5    5    0  502  0.13990662345E+03  0.33054265436E+02  0.91478770517E+01  0.14412571389E+03  0.47000000000E+01 0.  1.
         11    1    6    6    0    0  0.30691441220E+02  0.49222652762E+02 -0.41621911172E+02  0.71394800922E+02  0.00000000000E+00 0. -1.
        -12    1    6    6    0    0 -0.20405010891E+02  0.42754350206E+01  0.19714212169E+02  0.28693099789E+02  0.00000000000E+00 0.  1.
</event>
<event>
12    1  0.8494789E-002  0.2034762E+03  0.7818608E-02  0.1147727E+00
         21   -1    0    0  501  502  0.00000000000E+00  0.00000000000E+00  0.50119877075E+02  0.50119877075E+02  0.00000000000E+00 0. -1.
         21   -1    0    0  502  503 -0.00000000000E+00 -0.00000000000E+00 -0.88756389004E+03  0.88756389004E+03  0.00000000000E+00 0.  1.
         -6    2    1    2    0  503 -0.94317893029E+02  0.54826147926E+02 -0.55427292918E+03  0.58898844584E+03  0.16669474458E+03 0.  0.
        -24    2    3    3    0    0 -0.77910098477E+02 -0.14961935071E+02 -0.21579102376E+03  0.24296578394E+03  0.78566935063E+02 0.  0.
          6    2    1    2  501    0  0.94317893029E+02 -0.54826147926E+02 -0.28317108379E+03  0.34869532128E+03  0.17175794871E+03 0.  0.
         24    2    5    5    0    0  0.46906146379E+02 -0.24122015992E+02 -0.27495377875E+03  0.29142201563E+03  0.80902116912E+02 0.  0.
          5    1    5    5  501    0  0.47411746651E+02 -0.30704131935E+02 -0.82173050443E+01  0.57273305654E+02  0.47000000000E+01 0. -1.
        -11    1    6    6    0    0 -0.22345451693E+02 -0.53202609686E+01 -0.44868680491E+02  0.50406575733E+02  0.00000000000E+00 0.  1.
         12    1    6    6    0    0  0.69251598072E+02 -0.18801755023E+02 -0.23008509826E+03  0.24101543989E+03  0.00000000000E+00 0. -1.
         -5    1    3    3    0  503 -0.16407794552E+02  0.69788082997E+02 -0.33848190542E+03  0.34602266190E+03  0.47000000000E+01 0.  1.
         13    1    4    4    0    0 -0.92400220396E+01  0.21875002045E+02 -0.16321050493E+02  0.28814413250E+02  0.00000000000E+00 0. -1.
        -14    1    4    4    0    0 -0.68670076438E+02 -0.36836937116E+02 -0.19946997326E+03  0.21415137069E+03  0.00000000000E+00 0.  1.
</event>
<event>
12    1  0.8494789E-002  0.2114388E+03  0.7818608E-02  0.1140443E+00
         21   -1    0    0  503  502  0.00000000000E+00  0.00000000000E+00  0.54259045388E+03  0.54259045388E+03  0.00000000000E+00 0. -1.
         21   -1    0    0  501  503 -0.00000000000E+00 -0.00000000000E+00 -0.29890638885E+03  0.29890638885E+03  0.00000000000E+00 0. -1.
          6    2    1    2  501    0  0.28604844975E+02  0.11966102369E+03 -0.23627390568E+03  0.31702948627E+03  0.17188757637E+03 0.  0.
         24    2    3    3    0    0  0.20730030715E+02  0.37324691220E+02 -0.31628250991E+02  0.96250822608E+02  0.80255889777E+02 0.  0.
         -6    2    1    2    0  502 -0.28604844975E+02 -0.11966102369E+03  0.47995797072E+03  0.52446735646E+03  0.17195742669E+03 0.  0.
        -24    2    5    5    0    0  0.14363601196E+01  0.84454961127E+01  0.19071498681E+03  0.20666655697E+03  0.79154722165E+02 0.  0.
          5    1    3    3  501    0  0.78748142598E+01  0.82336332470E+02 -0.20464565469E+03  0.22077866366E+03  0.47000000000E+01 0. -1.
        -11    1    4    4    0    0  0.39443668322E+02  0.51652455379E+02 -0.32504473704E+02  0.72665809898E+02  0.00000000000E+00 0.  1.
         12    1    4    4    0    0 -0.18713637607E+02 -0.14327764159E+02  0.87622271356E+00  0.23585012710E+02  0.00000000000E+00 0. -1.
         -5    1    5    5    0  502 -0.30041205095E+02 -0.12810651980E+03  0.28924298391E+03  0.31780079949E+03  0.47000000000E+01 0.  1.
         13    1    6    6    0    0 -0.18652649465E+02 -0.64996804038E+00  0.18200052310E+03  0.18295500595E+03  0.00000000000E+00 0. -1.
        -14    1    6    6    0    0  0.20089009585E+02  0.90954641531E+01  0.87144637042E+01  0.23711551023E+02  0.00000000000E+00 0.  1.
</event>
<event>
12    1  0.8494789E-002  0.1861390E+03  0.7818608E-02  0.1162154E+00
         21   -1    0    0  501  502  0.00000000000E+00  0.00000000000E+00  0.20627692928E+03  0.20627692928E+03  0.00000000000E+00 0.  1.
         21   -1    0    0  502  503 -0.00000000000E+00 -0.00000000000E+00 -0.26590241703E+03  0.26590241703E+03  0.00000000000E+00 0.  1.
         -6    2    1    2    0  503  0.57079821039E+02  0.40038443266E+02 -0.17352206000E+03  0.25395890435E+03  0.17182560019E+03 0.  0.
        -24    2    3    3    0    0  0.15274918710E+02 -0.33325732010E+02 -0.39829082942E+02  0.95763284344E+02  0.78995716496E+02 0.  0.
          6    2    1    2  501    0 -0.57079821039E+02 -0.40038443266E+02  0.11389657225E+03  0.21822044197E+03  0.17258780146E+03 0.  0.
         24    2    5    5    0    0  0.72270369495E+01 -0.59614168685E+02  0.17551864976E+02  0.10064929912E+03  0.78842464943E+02 0.  0.
          5    1    5    5  501    0 -0.64306857988E+02  0.19575725419E+02  0.96344707277E+02  0.11757114285E+03  0.47000000000E+01 0. -1.
        -13    1    6    6    0    0  0.31826821071E+02 -0.32153273162E+02  0.37471359575E+02  0.58744210804E+02  0.00000000000E+00 0.  1.
         14    1    6    6    0    0 -0.24599784122E+02 -0.27460895523E+02 -0.19919494599E+02  0.41905088317E+02  0.00000000000E+00 0. -1.
         -5    1    3    3    0  503  0.41804902329E+02  0.73364175276E+02 -0.13369297706E+03  0.15819562000E+03  0.47000000000E+01 0.  1.
         11    1    4    4    0    0  0.25496595707E+02  0.19396756777E+02 -0.69103240172E+01  0.32772902589E+02  0.00000000000E+00 0. -1.
        -12    1    4    4    0    0 -0.10221676997E+02 -0.52722488787E+02 -0.32918758924E+02  0.62990381755E+02  0.00000000000E+00 0.  1.
</event>
<event>
12    1  0.8494789E-002  0.2088696E+03  0.7818608E-02  0.1142490E+00
         21   -1    0    0  503  502  0.00000000000E+00  0.00000000000E+00  0.31521656249E+03  0.31521656249E+03  0.00000000000E+00 0. -1.
         21   -1    0    0  501  503 -0.00000000000E+00 -0.00000000000E+00 -0.34767844045E+03  0.34767844045E+03  0.00000000000E+00 0.  1.
          6    2    1    2  501    0 -0.11610274750E+03  0.25093759752E+02 -0.27343119814E+03  0.34400205005E+03  0.17164861073E+03 0.  0.
         24    2    3    3    0    0 -0.14552578028E+03  0.36530722896E+02 -0.20839586365E+03  0.27155756292E+03  0.88331350875E+02 0.  0.
         -6    2    1    2    0  502  0.11610274750E+03 -0.25093759752E+02  0.24096932018E+03  0.31889295290E+03  0.17180499813E+03 0.  0.
        -24    2    5    5    0    0  0.22575265887E+02  0.29499411242E+02  0.16353930476E+03  0.18568146156E+03  0.79703469634E+02 0.  0.
          5    1    3    3  501    0  0.29423032780E+02 -0.11436963144E+02 -0.65035334485E+02  0.72444487130E+02  0.47000000000E+01 0. -1.
        -11    1    4    4    0    0 -0.49611757529E+02  0.48881813741E+01 -0.14248665471E+03  0.15095584644E+03  0.00000000000E+00 0.  1.
         12    1    4    4    0    0 -0.95914022754E+02  0.31642541522E+02 -0.65909208940E+02  0.12060171648E+03  0.00000000000E+00 0. -1.
         -5    1    5    5    0  502  0.93527481616E+02 -0.54593170994E+02  0.77430015419E+02  0.13321149134E+03  0.47000000000E+01 0.  1.
         11    1    6    6    0    0  0.23712334707E+02  0.55417531316E+02  0.96280986499E+02  0.11359315981E+03  0.00000000000E+00 0. -1.
        -12    1    6    6    0    0 -0.11370688208E+01 -0.25918120074E+02  0.67258318263E+02  0.72088301751E+02  0.00000000000E+00 0.  1.
</event>
<event>
12    1  0.8494789E-002  0.3638270E+03  0.7818608E-02  0.1057211E+00
         21   -1    0    0  503  502  0.00000000000E+00  0.00000000000E+00  0.70700919435E+03  0.70700919435E+03  0.00000000000E+00 0.  1.
         21   -1    0    0  501  503 -0.00000000000E+00 -0.00000000000E+00 -0.18777281155E+03  0.18777281155E+03  0.00000000000E+00 0. -1.
          6    2    1    2  501    0 -0.43023589586E+01 -0.31870331772E+03  0.29554793300E+03  0.46769112873E+03  0.17261545751E+03 0.  0.
         24    2    3    3    0    0 -0.70237091806E+02 -0.18824425934E+03  0.17471910994E+03  0.27798438295E+03  0.79871143404E+02 0.  0.
         -6    2    1    2    0  502  0.43023589586E+01  0.31870331772E+03  0.22368844980E+03  0.42709087718E+03  0.17544167057E+03 0.  0.
        -24    2    5    5    0    0  0.12047685203E+02  0.22324976007E+03  0.23046559309E+03  0.33096912408E+03  0.80253158219E+02 0.  0.
          5    1    3    3  501    0  0.65934732847E+02 -0.13045905838E+03  0.12082882307E+03  0.18970674578E+03  0.47000000000E+01 0. -1.
        -13    1    4    4    0    0 -0.30100048797E+02 -0.81231390786E+02  0.26050750495E+02  0.90461004792E+02  0.00000000000E+00 0.  1.
         14    1    4    4    0    0 -0.40137043009E+02 -0.10701286855E+03  0.14866835944E+03  0.18752337816E+03  0.00000000000E+00 0. -1.
         -5    1    5    5    0  502 -0.77453262445E+01  0.95453557654E+02 -0.67771432923E+01  0.96121753098E+02  0.47000000000E+01 0.  1.
         13    1    6    6    0    0 -0.53800067745E+01  0.11854779236E+03  0.67612876969E+02  0.13657973744E+03  0.00000000000E+00 0. -1.
        -14    1    6    6    0    0  0.17427691978E+02  0.10470196771E+03  0.16285271612E+03  0.19438938664E+03  0.00000000000E+00 0.  1.
</event>
<event>
12    1  0.8494789E-002  0.1808330E+03  0.7818608E-02  0.1167143E+00
         21   -1    0    0  503  502  0.00000000000E+00  0.00000000000E+00  0.11844544654E+04  0.11844544654E+04  0.00000000000E+00 0. -1.
         21   -1    0    0  501  503 -0.00000000000E+00 -0.00000000000E+00 -0.28799109921E+02  0.28799109921E+02  0.00000000000E+00 0. -1.
          6    2    1    2  501    0 -0.48425785558E+02 -0.29086559037E+02  0.44893836398E+03  0.48376781618E+03  0.17115653858E+03 0.  0.
         24    2    3    3    0    0 -0.47772119528E+02 -0.71702428076E+02  0.40744596973E+03  0.42409999945E+03  0.80157206086E+02 0.  0.
         -6    2    1    2    0  502  0.48425785558E+02  0.29086559037E+02  0.70671699149E+03  0.72948575913E+03  0.17178324158E+03 0.  0.
        -24    2    5    5    0    0  0.81970112370E+02  0.43294743686E+02  0.34262861960E+03  0.36354925246E+03  0.78613954478E+02 0.  0.
          5    1    3    3  501    0 -0.65366603049E+00  0.42615869039E+02  0.41492394255E+02  0.59667816738E+02  0.47000000000E+01 0. -1.
        -11    1    4    4    0    0 -0.58703006840E+02 -0.81517954830E+02  0.31902862689E+03  0.33447045423E+03  0.00000000000E+00 0.  1.
         12    1    4    4    0    0  0.10930887312E+02  0.98155267546E+01  0.88417342834E+02  0.89629545222E+02  0.00000000000E+00 0. -1.
         -5    1    5    5    0  502 -0.33544326812E+02 -0.14208184649E+02  0.36408837189E+03  0.36593650668E+03  0.47000000000E+01 0.  1.
         11    1    6    6    0    0  0.76358323537E+02  0.22103396551E+01  0.26162381140E+03  0.27254815697E+03  0.00000000000E+00 0. -1.
        -12    1    6    6    0    0  0.56117888333E+01  0.41084404031E+02  0.81004808204E+02  0.91001095491E+02  0.00000000000E+00 0.  1.
</event>
<event>
12    1  0.8494789E-002  0.1946820E+03  0.7818608E-02  0.1156622E+00
         21   -1    0    0  501  502  0.00000000000E+00  0.00000000000E+00  0.17721709930E+03  0.17721709930E+03  0.00000000000E+00 0.  1.
         21   -1    0    0  502  503 -0.00000000000E+00 -0.00000000000E+00 -0.44117836075E+03  0.44117836075E+03  0.00000000000E+00 0. -1.
         -6    2    1    2    0  503 -0.36538499636E+02 -0.85927602026E+02 -0.36091851456E+03  0.41007713810E+03  0.17082877479E+03 0.  0.
        -24    2    3    3    0    0 -0.96192189547E+01 -0.12077701580E+03 -0.30871482883E+03  0.34161952993E+03  0.81972195119E+02 0.  0.
          6    2    1    2  501    0  0.36538499636E+02  0.85927602026E+02  0.96957253110E+02  0.20831832195E+03  0.15898804855E+03 0.  0.
         24    2    5    5    0    0  0.39955778242E+01 -0.60209720658E+01  0.73467379247E+02  0.10788204259E+03  0.78669324089E+02 0.  0.
          5    1    5    5  501    0  0.32542921812E+02  0.91948574092E+02  0.23489873862E+02  0.10043627936E+03  0.47000000000E+01 0. -1.
        -13    1    6    6    0    0 -0.37465871102E+01  0.10904350796E+02  0.85136972875E+02  0.85914177710E+02  0.00000000000E+00 0.  1.
         14    1    6    6    0    0  0.77421649344E+01 -0.16925322862E+02 -0.11669593628E+02  0.21967864878E+02  0.00000000000E+00 0. -1.
         -5    1    3    3    0  503 -0.26919280681E+02  0.34849413770E+02 -0.52203685730E+02  0.68457608170E+02  0.47000000000E+01 0.  1.
         13    1    4    4    0    0  0.33423932653E+02 -0.59008985647E+02 -0.11126981660E+03  0.13030806478E+03  0.00000000000E+00 0. -1.
        -14    1    4    4    0    0 -0.43043151607E+02 -0.61768030149E+02 -0.19744501223E+03  0.21131146515E+03  0.00000000000E+00 0.  1.
</event>
<event>
12    1  0.8494789E-002  0.1736265E+03  0.7818608E-02  0.1174468E+00
         21   -1    0    0  501  502  0.00000000000E+00  0.00000000000E+00  0.57429375565E+03  0.57429375565E+03  0.00000000000E+00 0. -1.
         21   -1    0    0  502  503 -0.00000000000E+00 -0.00000000000E+00 -0.19619550198E+03  0.19619550198E+03  0.00000000000E+00 0. -1.
         -6    2    1    2    0  503 -0.38328469867E+01  0.17327321103E+02 -0.14132973441E+03  0.22281090186E+03  0.17133498588E+03 0.  0.
        -24    2    3    3    0    0 -0.46833719031E+02  0.49813558269E+01 -0.23195057331E+02  0.96401290735E+02  0.80851635894E+02 0.  0.
          6    2    1    2  501    0  0.38328469867E+01 -0.17327321103E+02  0.51942798807E+03  0.54767835577E+03  0.17271716712E+03 0.  0.
         24    2    5    5    0    0 -0.49621023277E+01  0.40384435749E+02  0.43691740748E+03  0.44649493854E+03  0.82494751824E+02 0.  0.
          5    1    5    5  501    0  0.87949493144E+01 -0.57711756852E+02  0.82510580598E+02  0.10118341723E+03  0.47000000000E+01 0. -1.
        -11    1    6    6    0    0  0.35657126985E+02  0.36026188964E+02  0.26345061607E+03  0.26828258256E+03  0.00000000000E+00 0.  1.
         12    1    6    6    0    0 -0.40619229313E+02  0.43582467842E+01  0.17346679140E+03  0.17821235598E+03  0.00000000000E+00 0. -1.
         -5    1    3    3    0  503  0.43000872044E+02  0.12345965276E+02 -0.11813467708E+03  0.12640961112E+03  0.47000000000E+01 0.  1.
         11    1    4    4    0    0  0.16506935009E+02 -0.88433343822E+01 -0.25370223071E+02  0.31533025308E+02  0.00000000000E+00 0. -1.
        -12    1    4    4    0    0 -0.63340654040E+02  0.13824690209E+02  0.21751657404E+01  0.64868265427E+02  0.00000000000E+00 0.  1.
</event>
<event>
12    1  0.8494789E-002  0.1833515E+03  0.7818608E-02  0.1164693E+00
         21   -1    0    0  501  502  0.00000000000E+00  0.00000000000E+00  0.47409066493E+02  0.47409066493E+02  0.00000000000E+00 0. -1.
         21   -1    0    0  502  503 -0.00000000000E+00 -0.00000000000E+00 -0.12452200040E+04  0.12452200040E+04  0.00000000000E+00 0. -1.
         -6    2    1    2    0  503  0.58008556165E+02 -0.24739181644E+02 -0.17383720974E+03  0.25236950297E+03  0.17173808791E+03 0.  0.
        -24    2    3    3    0    0  0.21123677174E+02 -0.68035793079E+02 -0.16163734906E+03  0.19400840753E+03  0.80234348657E+02 0.  0.
          6    2    1    2  501    0 -0.58008556165E+02  0.24739181644E+02 -0.10239737278E+04  0.10402595675E+04  0.17216490056E+03 0.  0.
         24    2    5    5    0    0  0.59496479927E+01 -0.40533308418E+02 -0.40857542636E+03  0.41809535351E+03  0.78686073706E+02 0.  0.
          5    1    5    5  501    0 -0.63958204158E+02  0.65272490062E+02 -0.61539830141E+03  0.62216421403E+03  0.47000000000E+01 0. -1.
        -11    1    6    6    0    0  0.37621961222E+02 -0.12896204588E+02 -0.11863976995E+03  0.12512841034E+03  0.00000000000E+00 0.  1.
         12    1    6    6    0    0 -0.31672313229E+02 -0.27637103830E+02 -0.28993565641E+03  0.29296694317E+03  0.00000000000E+00 0. -1.
         -5    1    3    3    0  503  0.36884878991E+02  0.43296611435E+02 -0.12199860686E+02  0.58361095438E+02  0.47000000000E+01 0.  1.
         11    1    4    4    0    0  0.50813596985E+02 -0.47378170300E+02 -0.89394888705E+02  0.11321730780E+03  0.00000000000E+00 0. -1.
        -12    1    4    4    0    0 -0.29689919811E+02 -0.20657622779E+02 -0.72242460350E+02  0.80791099724E+02  0.00000000000E+00 0.  1.
</event>
<event>
12    1  0.8494789E-002  0.2158907E+03  0.7818608E-02  0.1137395E+00
         21   -1    0    0  501  502  0.00000000000E+00  0.00000000000E+00  0.21244586742E+04  0.21244586742E+04  0.00000000000E+00 0.  1.
         21   -1    0    0  502  503 -0.00000000000E+00 -0.00000000000E+00 -0.23002080989E+02  0.23002080989E+02  0.00000000000E+00 0.  1.
         -6    2    1    2    0  503  0.99150500382E+02 -0.82287896986E+02  0.80242494795E+03  0.83096003417E+03  0.17322431002E+03 0.  0.
        -24    2    3    3    0    0  0.97497562185E+02  0.45754433882E+00  0.38990924031E+03  0.41019782185E+03  0.82018616152E+02 0.  0.
          6    2    1    2  501    0 -0.99150500382E+02  0.82287896986E+02  0.12990316452E+04  0.13165007210E+04  0.17055442924E+03 0.  0.
         24    2    5    5    0    0 -0.95127193040E+02  0.42153410920E+02  0.50963623761E+03  0.52606149907E+03  0.78648033734E+02 0.  0.
          5    1    5    5  501    0 -0.40233073422E+01  0.40134486067E+02  0.78939540763E+03  0.79043922193E+03  0.47000000000E+01 0. -1.
        -11    1    6    6    0    0 -0.61620778666E+02  0.21575908087E+01  0.39903899634E+03  0.40377456107E+03  0.00000000000E+00 0.  1.
         12    1    6    6    0    0 -0.33506414373E+02  0.39995820111E+02  0.11059724127E+03  0.12228693801E+03  0.00000000000E+00 0. -1.
         -5    1    3    3    0  503  0.16529381973E+01 -0.82745441325E+02  0.41251570765E+03  0.42076221232E+03  0.47000000000E+01 0.  1.
         13    1    4    4    0    0  0.15811118909E+02  0.57105505042E+01  0.22946032995E+03  0.23007530265E+03  0.00000000000E+00 0. -1.
        -14    1    4    4    0    0  0.81686443276E+02 -0.52530061653E+01  0.16044891036E+03  0.18012251920E+03  0.00000000000E+00 0.  1.
</event>
<event>
12    1  0.8494789E-002  0.1832351E+03  0.7818608E-02  0.1165089E+00
         21   -1    0    0  501  502  0.00000000000E+00  0.00000000000E+00  0.72981954701E+02  0.72981954701E+02  0.00000000000E+00 0.  1.
         21   -1    0    0  502  503 -0.00000000000E+00 -0.00000000000E+00 -0.78555869191E+03  0.78555869191E+03  0.00000000000E+00 0.  1.
         -6    2    1    2    0  503  0.45654999833E+02  0.32438249462E+02 -0.63522074730E+03  0.66112063921E+03  0.17446627969E+03 0.  0.
        -24    2    3    3    0    0 -0.82086476946E+01 -0.34984338046E+00 -0.54443697642E+03  0.55048549736E+03  0.80963925433E+02 0.  0.
          6    2    1    2  501    0 -0.45654999833E+02 -0.32438249462E+02 -0.77355989907E+02  0.19742000740E+03  0.17278336468E+03 0.  0.
         24    2    5    5    0    0 -0.93409749635E+02 -0.17901815226E+02 -0.28630237340E+02  0.12750496601E+03  0.79949793947E+02 0.  0.
          5    1    5    5  501    0  0.47754749803E+02 -0.14536434237E+02 -0.48725752567E+02  0.69915041388E+02  0.47000000000E+01 0. -1.
        -11    1    6    6    0    0 -0.24983706890E+02 -0.17253153199E+02  0.25976702760E+02  0.39958052900E+02  0.00000000000E+00 0.  1.
         12    1    6    6    0    0 -0.68426042746E+02 -0.64866202662E+00 -0.54606940101E+02  0.87546913112E+02  0.00000000000E+00 0. -1.
         -5    1    3    3    0  503  0.53863647527E+02  0.32788092843E+02 -0.90783770882E+02  0.11063514185E+03  0.47000000000E+01 0.  1.
         13    1    4    4    0    0 -0.34407601083E+02  0.25115214613E+02 -0.22791034031E+03  0.23185724107E+03  0.00000000000E+00 0. -1.
        -14    1    4    4    0    0  0.26198953388E+02 -0.25465057993E+02 -0.31652663611E+03  0.31862825628E+03  0.00000000000E+00 0.  1.
</event>
<event>
12    1  0.8494789E-002  0.2316067E+03  0.7818608E-02  0.1125988E+00
         21   -1    0    0  503  502  0.00000000000E+00  0.00000000000E+00  0.12954429014E+03  0.12954429014E+03  0.00000000000E+00 0.  1.
         21   -1    0    0  501  503 -0.00000000000E+00 -0.00000000000E+00 -0.52269170831E+03  0.52269170831E+03  0.00000000000E+00 0. -1.
          6    2    1    2  501    0  0.14558740184E+03 -0.33549688941E+02 -0.34758729468E+03  0.41619068057E+03  0.17342572465E+03 0.  0.
         24    2    3    3    0    0  0.66879048353E+02  0.31099396109E+02 -0.96048377957E+02  0.14477140025E+03  0.79331506190E+02 0.  0.
         -6    2    1    2    0  502 -0.14558740184E+03  0.33549688941E+02 -0.45560123495E+02  0.23604531788E+03  0.17697568770E+03 0.  0.
        -24    2    5    5    0    0 -0.17540191413E+03  0.40857860549E+02 -0.23485572049E+02  0.19794426361E+03  0.78709358746E+02 0.  0.
          5    1    3    3  501    0  0.78708353490E+02 -0.64649085050E+02 -0.25153891672E+03  0.27141928033E+03  0.47000000000E+01 0. -1.
        -11    1    4    4    0    0  0.38811184272E+02 -0.11003925082E+02 -0.50573568177E+01  0.40656749129E+02  0.00000000000E+00 0.  1.
         12    1    4    4    0    0  0.28067864082E+02  0.42103321191E+02 -0.90991021139E+02  0.10411465112E+03  0.00000000000E+00 0. -1.
         -5    1    5    5    0  502  0.29814512283E+02 -0.73081716079E+01 -0.22074551446E+02  0.38101054270E+02  0.47000000000E+01 0.  1.
         13    1    6    6    0    0 -0.39001858033E+02  0.36915522419E+02 -0.29658691437E+02  0.61347687025E+02  0.00000000000E+00 0. -1.
        -14    1    6    6    0    0 -0.13640005609E+03  0.39423381302E+01  0.61731193887E+01  0.13659657659E+03  0.00000000000E+00 0.  1.
</event>
<event>
12    1  0.8494789E-002  0.1969437E+03  0.7818608E-02  0.1152358E+00
         21   -1    0    0  501  502  0.00000000000E+00  0.00000000000E+00  0.24494219202E+03  0.24494219202E+03  0.00000000000E+00 0.  1.
         21   -1    0    0  502  503 -0.00000000000E+00 -0.00000000000E+00 -0.18542660923E+03  0.18542660923E+03  0.00000000000E+00 0.  1.
         -6    2    1    2    0  503  0.92450816184E+02 -0.21606736642E+02 -0.52556269281E+02  0.20377024671E+03  0.17247071498E+03 0.  0.
        -24    2    3    3    0    0  0.76476613809E+01 -0.55187158407E+02  0.38828118122E+01  0.96407871251E+02  0.78583027646E+02 0.  0.
          6    2    1    2  501    0 -0.92450816184E+02  0.21606736642E+02  0.11207185208E+03  0.22659855454E+03  0.17254796553E+03 0.  0.
         24    2    5    5    0    0 -0.55444900844E+02  0.85560713916E+02  0.82690269181E+02  0.14694357106E+03  0.66029990638E+02 0.  0.
          5    1    5    5  501    0 -0.37005915340E+02 -0.63953977274E+02  0.29381582894E+02  0.79654983476E+02  0.47000000000E+01 0. -1.
        -13    1    6    6    0    0  0.20365551984E+01  0.56105298366E+02  0.46553587104E+02  0.72932767218E+02  0.00000000000E+00 0.  1.
         14    1    6    6    0    0 -0.57481456043E+02  0.29455415549E+02  0.36136682077E+02  0.74010803843E+02  0.00000000000E+00 0. -1.
         -5    1    3    3    0  503  0.84803154803E+02  0.33580421766E+02 -0.56439081093E+02  0.10736237546E+03  0.47000000000E+01 0.  1.
         11    1    4    4    0    0  0.33351250682E+02 -0.61225844179E+02 -0.17959500484E-02  0.69720226052E+02  0.00000000000E+00 0. -1.
        -12    1    4    4    0    0 -0.25703589301E+02  0.60386857714E+01  0.38846077623E+01  0.26687645199E+02  0.00000000000E+00 0.  1.
</event>
<event>
12    1  0.8494789E-002  0.1948637E+03  0.7818608E-02  0.1154403E+00
         21   -1    0    0  501  502  0.00000000000E+00  0.00000000000E+00  0.24593319638E+03  0.24593319638E+03  0.00000000000E+00 0. -1.
         21   -1    0    0  502  503 -0.00000000000E+00 -0.00000000000E+00 -0.15369148929E+03  0.15369148929E+03  0.00000000000E+00 0. -1.
         -6    2    1    2    0  503  0.63395723334E+02  0.63009357382E+02  0.38718360958E+02  0.19867305842E+03  0.17315506291E+03 0.  0.
        -24    2    3    3    0    0 -0.46366702382E+01  0.73398038042E+02 -0.24960849400E+02  0.10479301212E+03  0.70354535654E+02 0.  0.
          6    2    1    2  501    0 -0.63395723334E+02 -0.63009357382E+02  0.53523346130E+02  0.20095162726E+03  0.17183600049E+03 0.  0.
         24    2    5    5    0    0 -0.31376242704E+02  0.71336286790E+01  0.80061348192E+02  0.11927151226E+03  0.82343894113E+02 0.  0.
          5    1    5    5  501    0 -0.32019480630E+02 -0.70142986061E+02 -0.26538002062E+02  0.81680115002E+02  0.47000000000E+01 0. -1.
        -13    1    6    6    0    0  0.12681170706E+02 -0.17448928346E+02 -0.33106004878E+01  0.21822861098E+02  0.00000000000E+00 0.  1.
         14    1    6    6    0    0 -0.44057413410E+02  0.24582557025E+02  0.83371948680E+02  0.97448651160E+02  0.00000000000E+00 0. -1.
         -5    1    3    3    0  503  0.68032393572E+02 -0.10388680660E+02  0.63679210358E+02  0.93880046297E+02  0.47000000000E+01 0.  1.
         13    1    4    4    0    0  0.32716822322E+02  0.30455885686E+02 -0.80377585632E+01  0.45415382840E+02  0.00000000000E+00 0. -1.
        -14    1    4    4    0    0 -0.37353492561E+02  0.42942152355E+02 -0.16923090837E+02  0.59377629280E+02  0.00000000000E+00 0.  1.
</event>
<event>
12    1  0.8494789E-002  0.3217071E+03  0.7818608E-02  0.1074973E+00
         21   -1    0    0  503  502  0.00000000000E+00  0.00000000000E+00  0.69589510714E+03  0.69589510714E+03  0.00000000000E+00 0. -1.
         21   -1    0    0  501  503 -0.00000000000E+00 -0.00000000000E+00 -0.14935451200E+03  0.14935451200E+03  0.00000000000E+00 0.  1.
          6    2    1    2  501    0  0.23955425320E+03 -0.12948874207E+03  0.23724415314E+03  0.39897644371E+03  0.16954008342E+03 0.  0.
         24    2    3    3    0    0  0.23247914725E+03 -0.11677059438E+03  0.25704181397E+03  0.37395953384E+03  0.78059677193E+02 0.  0.
         -6    2    1    2    0  502 -0.23955425320E+03  0.12948874207E+03  0.30929644200E+03  0.44627317543E+03  0.17129472707E+03 0.  0.
        -24    2    5    5    0    0 -0.17156180626E+03  0.15944135863E+03  0.22352782982E+03  0.33270171372E+03  0.76620750434E+02 0.  0.
          5    1    3    3  501    0  0.70751059531E+01 -0.12718147695E+02 -0.19797660831E+02  0.25016909869E+02  0.47000000000E+01 0. -1.
        -11    1    4    4    0    0  0.15469554369E+03 -0.63108479358E+02  0.11304402500E+03  0.20172343194E+03  0.00000000000E+00 0.  1.
         12    1    4    4    0    0  0.77783603564E+02 -0.53662115018E+02  0.14399778896E+03  0.17223610190E+03  0.00000000000E+00 0. -1.
         -5    1    5    5    0  502 -0.67992446947E+02 -0.29952616559E+02  0.85768612184E+02  0.11357146172E+03  0.47000000000E+01 0.  1.
         11    1    6    6    0    0 -0.12499231773E+03  0.83197054667E+02  0.17654190790E+03  0.23175822454E+03  0.00000000000E+00 0. -1.
        -12    1    6    6    0    0 -0.46569488528E+02  0.76244303963E+02  0.46985921923E+02  0.10094348918E+03  0.00000000000E+00 0.  1.
</event>
<event>
12    1  0.8494789E-002  0.2004928E+03  0.7818608E-02  0.1149577E+00
         21   -1    0    0  503  502  0.00000000000E+00  0.00000000000E+00  0.23657985273E+03  0.23657985273E+03  0.00000000000E+00 0. -1.
         21   -1    0    0  501  503 -0.00000000000E+00 -0.00000000000E+00 -0.28112040164E+03  0.28112040164E+03  0.00000000000E+00 0. -1.
          6    2    1    2  501    0 -0.67253507224E+02  0.74166452736E+02 -0.18577850842E+03  0.27245444010E+03  0.17231967617E+03 0.  0.
         24    2    3    3    0    0 -0.80616922370E+02  0.66614200858E+02 -0.65470651136E+02  0.15108027524E+03  0.87191189216E+02 0.  0.
         -6    2    1    2    0  502  0.67253507224E+02 -0.74166452736E+02  0.14123795952E+03  0.24524581427E+03  0.17370564545E+03 0.  0.
        -24    2    5    5    0    0  0.56478833825E+02 -0.12239964118E+03  0.12043721861E+03  0.19141928849E+03  0.62965780790E+02 0.  0.
          5    1    3    3  501    0  0.13363415146E+02  0.75522518781E+01 -0.12030785729E+03  0.12137416487E+03  0.47000000000E+01 0. -1.
        -11    1    4    4    0    0 -0.39614643921E+01 -0.18022105334E+02  0.18139387973E+01  0.18541301323E+02  0.00000000000E+00 0.  1.
         12    1    4    4    0    0 -0.76655457978E+02  0.84636306191E+02 -0.67284589934E+02  0.13253897391E+03  0.00000000000E+00 0. -1.
         -5    1    5    5    0  502  0.10774673399E+02  0.48233188444E+02  0.20800740910E+02  0.53826525773E+02  0.47000000000E+01 0.  1.
         13    1    6    6    0    0  0.66682692055E+02 -0.75720664462E+02  0.78355490501E+02  0.12774890738E+03  0.00000000000E+00 0. -1.
        -14    1    6    6    0    0 -0.10203858230E+02 -0.46678976718E+02  0.42081728108E+02  0.63670381111E+02  0.00000000000E+00 0.  1.
</event>
<event>
12    1  0.8494789E-002  0.1856513E+03  0.7818608E-02  0.1163390E+00
         21   -1    0    0  503  502  0.00000000000E+00  0.00000000000E+00  0.12145230856E+03  0.12145230856E+03  0.00000000000E+00 0.  1.
         21   -1    0    0  501  503 -0.00000000000E+00 -0.00000000000E+00 -0.33679640356E+03  0.33679640356E+03  0.00000000000E+00 0.  1.
          6    2    1    2  501    0  0.37034801701E+02  0.47725868446E+02 -0.10694152250E+02  0.18193727780E+03  0.17128185282E+03 0.  0.
         24    2    3    3    0    0  0.13064778119E+01  0.93966538052E+02 -0.73754731285E+01  0.12321916914E+03  0.79354576939E+02 0.  0.
         -6    2    1    2    0  502 -0.37034801701E+02 -0.47725868446E+02 -0.20464994276E+03  0.27631143433E+03  0.17554792683E+03 0.  0.
        -24    2    5    5    0    0  0.32890922478E+02 -0.68391085283E+02 -0.10120117791E+03  0.14966075317E+03  0.79984431620E+02 0.  0.
          5    1    3    3  501    0  0.35728323889E+02 -0.46240669606E+02 -0.33186791217E+01  0.58718108661E+02  0.47000000000E+01 0. -1.
        -13    1    4    4    0    0 -0.94916979215E+01  0.42220324170E+01  0.25104549946E+02  0.27169032282E+02  0.00000000000E+00 0.  1.
         14    1    4    4    0    0  0.10798175733E+02  0.89744505635E+02 -0.32480023075E+02  0.96050136855E+02  0.00000000000E+00 0. -1.
         -5    1    5    5    0  502 -0.69925724179E+02  0.20665216837E+02 -0.10344876484E+03  0.12665068115E+03  0.47000000000E+01 0.  1.
         11    1    6    6    0    0 -0.19860934244E+02  0.26824999085E+01 -0.93889092400E+01  0.22131518961E+02  0.00000000000E+00 0. -1.
        -12    1    6    6    0    0  0.52751856723E+02 -0.71073585192E+02 -0.91812268674E+02  0.12752923421E+03  0.00000000000E+00 0.  1.
</event>
<event>
12    1  0.8494789E-002  0.2111121E+03  0.7818608E-02  0.1140801E+00
         21   -1    0    0  503  502  0.00000000000E+00  0.00000000000E+00  0.21230694363E+03  0.21230694363E+03  0.00000000000E+00 0. -1.
         21   -1    0    0  501  503 -0.00000000000E+00 -0.00000000000E+00 -0.24995505529E+03  0.24995505529E+03  0.00000000000E+00 0. -1.
          6    2    1    2  501    0  0.80533465212E+02  0.91739506629E+02 -0.11195298532E+03  0.23845504320E+03  0.17153880205E+03 0.  0.
         24    2    3    3    0    0  0.42592440019E+01 -0.28472971762E+01 -0.73018935262E+02  0.11077430648E+03  0.83144054560E+02 0.  0.
         -6    2    1    2    0  502 -0.80533465212E+02 -0.91739506629E+02  0.74304873672E+02  0.22380695572E+03  0.17223984174E+03 0.  0.
        -24    2    5    5    0    0 -0.12086778685E+03 -0.86994107894E+02  0.66028624594E+02  0.18209409667E+03  0.81372501917E+02 0.  0.
          5    1    3    3  501    0  0.76274221210E+02  0.94586803805E+02 -0.38934050062E+02  0.12768073672E+03  0.47000000000E+01 0. -1.
        -11    1    4    4    0    0 -0.11784475128E+02  0.75860809421E+01  0.15099627931E+02  0.20601486397E+02  0.00000000000E+00 0.  1.
         12    1    4    4    0    0  0.16043719130E+02 -0.10433378118E+02 -0.88118563194E+02  0.90172820083E+02  0.00000000000E+00 0. -1.
         -5    1    5    5    0  502  0.40334321643E+02 -0.47453987351E+01  0.82762490780E+01  0.41712859052E+02  0.47000000000E+01 0.  1.
         13    1    6    6    0    0 -0.82648957250E+02 -0.40747489114E+02 -0.97869969239E+00  0.92152948171E+02  0.00000000000E+00 0. -1.
        -14    1    6    6    0    0 -0.38218829605E+02 -0.46246618780E+02  0.67007324286E+02  0.89941148497E+02  0.00000000000E+00 0.  1.
</event>
<event>
12    1  0.8494789E-002  0.1929369E+03  0.7818608E-02  0.1156657E+00
         21   -1    0    0  501  502  0.00000000000E+00  0.00000000000E+00  0.31538478246E+02  0.31538478246E+02  0.00000000000E+00 0.  1.
         21   -1    0    0  502  503 -0.00000000000E+00 -0.00000000000E+00 -0.11874324109E+04  0.11874324109E+04  0.00000000000E+00 0.  1.
         -6    2    1    2    0  503  0.23000110528E+02 -0.78676347614E+02 -0.47658975981E+03  0.51279896172E+03  0.17060481594E+03 0.  0.
        -24    2    3    3    0    0  0.12155099033E+01 -0.10863668600E+03 -0.44166929002E+03  0.46167440880E+03  0.79171276227E+02 0.  0.
          6    2    1    2  501    0 -0.23000110528E+02  0.78676347614E+02 -0.67930417289E+03  0.70617192748E+03  0.17465869316E+03 0.  0.
         24    2    5    5    0    0 -0.28671009209E+02 -0.26110512401E+02 -0.26510177332E+03  0.27885686463E+03  0.77320211521E+02 0.  0.
          5    1    5    5  501    0  0.56708986812E+01  0.10478686001E+03 -0.41420239957E+03  0.42731506285E+03  0.47000000000E+01 0. -1.
        -11    1    6    6    0    0 -0.29079655910E+02 -0.33240239129E+02 -0.26765382997E+03  0.27127313280E+03  0.00000000000E+00 0.  1.
         12    1    6    6    0    0  0.40864670144E+00  0.71297267281E+01  0.25520566476E+01  0.75837318305E+01  0.00000000000E+00 0. -1.
         -5    1    3    3    0  503  0.21784600625E+02  0.29960338391E+02 -0.34920469792E+02  0.51124552921E+02  0.47000000000E+01 0.  1.
         11    1    4    4    0    0  0.25560561899E+01  0.10460791462E+02 -0.84179874167E+02  0.84865851766E+02  0.00000000000E+00 0. -1.
        -12    1    4    4    0    0 -0.13405462865E+01 -0.11909747747E+03 -0.35748941585E+03  0.37680855703E+03  0.00000000000E+00 0.  1.
</event>
<event>
12    1  0.8494789E-002  0.2041236E+03  0.7818608E-02  0.1146504E+00
         21   -1    0    0  501  502  0.00000000000E+00  0.00000000000E+00  0.37309615432E+03  0.37309615432E+03  0.00000000000E+00 0. -1.
         21   -1    0    0  502  503 -0.00000000000E+00 -0.00000000000E+00 -0.11249398384E+03  0.11249398384E+03  0.00000000000E+00 0. -1.
         -6    2    1    2    0  503 -0.44914384406E+01  0.11048063861E+03  0.15650947400E+03  0.25645759494E+03  0.17043807680E+03 0.  0.
        -24    2    3    3    0    0 -0.78208633252E+01 -0.10934847191E+02  0.57851703014E+02  0.99906481761E+02  0.80335227454E+02 0.  0.
          6    2    1    2  501    0  0.44914384406E+01 -0.11048063861E+03  0.10409269648E+03  0.22913254323E+03  0.17158172508E+03 0.  0.
         24    2    5    5    0    0 -0.20965360221E+01 -0.14638636219E+03  0.85869244559E+02  0.18806179216E+03  0.80995975274E+02 0.  0.
          5    1    5    5  501    0  0.65879744627E+01  0.35905723583E+02  0.18223451916E+02  0.41070751068E+02  0.47000000000E+01 0. -1.
        -11    1    6    6    0    0 -0.20656910593E+02 -0.68413980838E+02  0.80626450067E+02  0.10773952469E+03  0.00000000000E+00 0.  1.
         12    1    6    6    0    0  0.18560374571E+02 -0.77972381351E+02  0.52427944927E+01  0.80322267472E+02  0.00000000000E+00 0. -1.
         -5    1    3    3    0  503  0.33294248847E+01  0.12141548580E+03  0.98657770988E+02  0.15655111318E+03  0.47000000000E+01 0.  1.
         11    1    4    4    0    0 -0.36296483117E+02  0.20406597940E+01  0.26476348122E+01  0.36450088466E+02  0.00000000000E+00 0. -1.
        -12    1    4    4    0    0  0.28475619792E+02 -0.12975506985E+02  0.55204068202E+02  0.63456393295E+02  0.00000000000E+00 0.  1.
</event>
<event>
12    1  0.8494789E-002  0.2238745E+03  0.7818608E-02  0.1131124E+00
         21   -1    0    0  501  502  0.00000000000E+00  0.00000000000E+00  0.18611152650E+04  0.18611152650E+04  0.00000000000E+00 0. -1.
         21   -1    0    0  502  503 -0.00000000000E+00 -0.00000000000E+00 -0.28184781136E+02  0.28184781136E+02  0.00000000000E+00 0. -1.
         -6    2    1    2    0  503  0.21687632155E+02  0.14035784579E+03  0.11218400246E+04  0.11439601533E+04  0.17305812118E+03 0.  0.
        -24    2    3    3    0    0  0.64989518090E+02  0.14258879969E+03  0.97695245559E+03  0.99265077444E+03  0.79776288801E+02 0.  0.
          6    2    1    2  501    0 -0.21687632155E+02 -0.14035784579E+03  0.71109045933E+03  0.74533989289E+03  0.17236947618E+03 0.  0.
         24    2    5    5    0    0 -0.82095539449E+01 -0.10504630565E+03  0.30418637645E+03  0.33665714782E+03  0.98521878025E+02 0.  0.
          5    1    5    5  501    0 -0.13478078210E+02 -0.35311540145E+02  0.40690408287E+03  0.40868274507E+03  0.47000000000E+01 0. -1.
        -11    1    6    6    0    0 -0.36965219798E+02 -0.17849145454E+02  0.41435638790E+02  0.58326080188E+02  0.00000000000E+00 0.  1.
         12    1    6    6    0    0  0.28755665853E+02 -0.87197160193E+02  0.26275073766E+03  0.27833106763E+03  0.00000000000E+00 0. -1.
         -5    1    3    3    0  503 -0.43301885935E+02 -0.22309538966E+01  0.14488756900E+03  0.15130937886E+03  0.47000000000E+01 0.  1.
         11    1    4    4    0    0  0.55766171082E+00  0.72526153933E+02  0.28055300339E+03  0.28977636498E+03  0.00000000000E+00 0. -1.
        -12    1    4    4    0    0  0.64431856379E+02  0.70062645755E+02  0.69639945220E+03  0.70287440945E+03  0.00000000000E+00 0.  1.
</event>
<event>
12    1  0.8494789E-002  0.2448743E+03  0.7818608E-02  0.1116838E+00
         21   -1    0    0  503  502  0.00000000000E+00  0.00000000000E+00  0.44286121166E+03  0.44286121166E+03  0.00000000000E+00 0.  1.
         21   -1    0    0  501  503 -0.00000000000E+00 -0.00000000000E+00 -0.39983549039E+03  0.39983549039E+03  0.00000000000E+00 0.  1.
          6    2    1    2  501    0 -0.37600902588E+02 -0.16996541341E+03 -0.32166998354E+03  0.40427093985E+03  0.17222469295E+03 0.  0.
         24    2    3    3    0    0 -0.51846428113E+02 -0.94340499580E+02 -0.91968307444E+02  0.16197563946E+03  0.78675003875E+02 0.  0.
         -6    2    1    2    0  502  0.37600902588E+02  0.16996541341E+03  0.36469570481E+03  0.43842576220E+03  0.17003564985E+03 0.  0.
        -24    2    5    5    0    0  0.82658466839E+01  0.50001433467E+02  0.25834847758E+03  0.27538060058E+03  0.80759344567E+02 0.  0.
          5    1    3    3  501    0  0.14245525525E+02 -0.75624913833E+02 -0.22970167609E+03  0.24229530039E+03  0.47000000000E+01 0. -1.
        -13    1    4    4    0    0 -0.64272025264E+02 -0.80571158599E+02 -0.98251099384E+02  0.14239341052E+03  0.00000000000E+00 0.  1.
         14    1    4    4    0    0  0.12425597151E+02 -0.13769340981E+02  0.62827919403E+01  0.19582228938E+02  0.00000000000E+00 0. -1.
         -5    1    5    5    0  502  0.29335055904E+02  0.11996397995E+03  0.10634722723E+03  0.16304516162E+03  0.47000000000E+01 0.  1.
         13    1    6    6    0    0 -0.84790538507E+01  0.32982165881E+02  0.28817721012E+02  0.44611418547E+02  0.00000000000E+00 0. -1.
        -14    1    6    6    0    0  0.16744900535E+02  0.17019267586E+02  0.22953075657E+03  0.23076918203E+03  0.00000000000E+00 0.  1.
</event>
<event>
12    1  0.8494789E-002  0.2634914E+03  0.7818608E-02  0.1105540E+00
         21   -1    0    0  503  502  0.00000000000E+00  0.00000000000E+00  0.16642633585E+03  0.16642633585E+03  0.00000000000E+00 0. -1.
         21   -1    0    0  501  503 -0.00000000000E+00 -0.00000000000E+00 -0.74442914067E+03  0.74442914067E+03  0.00000000000E+00 0.  1.
          6    2    1    2  501    0 -0.19473455415E+03  0.36596852712E+02 -0.59230848335E+03  0.64697606063E+03  0.16878331486E+03 0.  0.
         24    2    3    3    0    0 -0.17699622525E+03  0.73926886468E+02 -0.40498774210E+03  0.45509242445E+03  0.79380068305E+02 0.  0.
         -6    2    1    2    0  502  0.19473455415E+03 -0.36596852712E+02  0.14305678534E+02  0.26387941589E+03  0.17368597376E+03 0.  0.
        -24    2    5    5    0    0  0.17866291614E+03  0.26600164795E+02  0.34468345289E+01  0.19760600445E+03  0.80051520644E+02 0.  0.
          5    1    3    3  501    0 -0.17738328898E+02 -0.37330033757E+02 -0.18732074125E+03  0.19188363618E+03  0.47000000000E+01 0. -1.
        -13    1    4    4    0    0 -0.11619440888E+03  0.25836117079E+02 -0.31256259385E+03  0.33446079094E+03  0.00000000000E+00 0.  1.
         14    1    4    4    0    0 -0.60801816369E+02  0.48090769389E+02 -0.92425148243E+02  0.12063163350E+03  0.00000000000E+00 0. -1.
         -5    1    5    5    0  502  0.16071638015E+02 -0.63197017507E+02  0.10858844005E+02  0.66273411436E+02  0.47000000000E+01 0.  1.
         13    1    6    6    0    0  0.12661442981E+03  0.71490566548E+01 -0.33143975770E+02  0.13107572612E+03  0.00000000000E+00 0. -1.
        -14    1    6    6    0    0  0.52048486321E+02  0.19451108140E+02  0.36590810299E+02  0.66530278329E+02  0.00000000000E+00 0.  1.
</event>
<event>
12    1  0.8494789E-002  0.2042896E+03  0.7818608E-02  0.1146271E+00
         21   -1    0    0  501  502  0.00000000000E+00  0.00000000000E+00  0.47327127787E+03  0.47327127787E+03  0.00000000000E+00 0.  1.
         21   -1    0    0  502  503 -0.00000000000E+00 -0.00000000000E+00 -0.16653279320E+03  0.16653279320E+03  0.00000000000E+00 0. -1.
         -6    2    1    2    0  503 -0.55997889734E+02 -0.94634202120E+02 -0.66452607118E+02  0.21435628281E+03  0.17158458882E+03 0.  0.
        -24    2    3    3    0    0  0.16996944648E+02 -0.84718368631E+02 -0.74028012872E+02  0.14015354450E+03  0.81833802521E+02 0.  0.
          6    2    1    2  501    0  0.55997889734E+02  0.94634202120E+02  0.37319109179E+03  0.42544778826E+03  0.17217094319E+03 0.  0.
         24    2    5    5    0    0  0.45290052476E+02  0.12880053955E+03  0.34655465195E+03  0.38057478614E+03  0.78078634808E+02 0.  0.
          5    1    5    5  501    0  0.10707837258E+02 -0.34166337430E+02  0.26636439835E+02  0.44873002119E+02  0.47000000000E+01 0. -1.
        -13    1    6    6    0    0  0.10635555543E+02  0.19959576285E+02  0.16171832361E+03  0.16329211836E+03  0.00000000000E+00 0.  1.
         14    1    6    6    0    0  0.34654496933E+02  0.10884096326E+03  0.18483632834E+03  0.21728266777E+03  0.00000000000E+00 0. -1.
         -5    1    3    3    0  503 -0.72994834382E+02 -0.99158334888E+01  0.75754057530E+01  0.74202738309E+02  0.47000000000E+01 0.  1.
         11    1    4    4    0    0  0.23951592660E+02 -0.19084438127E+02 -0.67138661271E+02  0.73793593264E+02  0.00000000000E+00 0. -1.
        -12    1    4    4    0    0 -0.69546480118E+01 -0.65633930504E+02 -0.68893516005E+01  0.66359951235E+02  0.00000000000E+00 0.  1.
</event>
<event>
12    1  0.8494789E-002  0.2460588E+03  0.7818608E-02  0.1118701E+00
         21   -1    0    0  501  502  0.00000000000E+00  0.00000000000E+00  0.20048372983E+03  0.20048372983E+03  0.00000000000E+00 0. -1.
         21   -1    0    0  502  503 -0.00000000000E+00 -0.00000000000E+00 -0.30431902473E+03  0.30431902473E+03  0.00000000000E+00 0.  1.
         -6    2    1    2    0  503  0.10546260666E+03  0.11834885595E+03  0.15763675539E+02  0.24656324747E+03  0.18819173315E+03 0.  0.
        -24    2    3    3    0    0  0.12502389505E+03  0.74023556898E+02  0.64372230773E+02  0.17777183971E+03  0.79677986844E+02 0.  0.
          6    2    1    2  501    0 -0.10546260666E+03 -0.11834885595E+03 -0.11959897044E+03  0.25823950709E+03  0.16509063022E+03 0.  0.
         24    2    5    5    0    0 -0.85921322394E+02 -0.95136872642E+02 -0.15178394668E+03  0.21375781811E+03  0.78870401001E+02 0.  0.
          5    1    5    5  501    0 -0.19541284263E+02 -0.23211983303E+02  0.32184976239E+02  0.44481688985E+02  0.47000000000E+01 0. -1.
        -11    1    6    6    0    0 -0.61848884585E+02 -0.42339735617E+02 -0.13317902805E+03  0.15282209019E+03  0.00000000000E+00 0.  1.
         12    1    6    6    0    0 -0.24072437809E+02 -0.52797137026E+02 -0.18604918633E+02  0.60935727923E+02  0.00000000000E+00 0. -1.
         -5    1    3    3    0  503 -0.19561288398E+02  0.44325299047E+02 -0.48608555234E+02  0.68791407758E+02  0.47000000000E+01 0.  1.
         13    1    4    4    0    0  0.88376217214E+02  0.71055119777E+02  0.12351204808E+02  0.11406900576E+03  0.00000000000E+00 0. -1.
        -14    1    4    4    0    0  0.36647677841E+02  0.29684371216E+01  0.52021025965E+02  0.63702833944E+02  0.00000000000E+00 0.  1.
</event>
<event>
12    1  0.8494789E-002  0.1896949E+03  0.7818608E-02  0.1158802E+00
         21   -1    0    0  501  502  0.00000000000E+00  0.00000000000E+00  0.33095489102E+03  0.33095489102E+03  0.00000000000E+00 0.  1.
         21   -1    0    0  502  503 -0.00000000000E+00 -0.00000000000E+00 -0.24705958542E+03  0.24705958542E+03  0.00000000000E+00 0.  1.
         -6    2    1    2    0  503  0.10930821521E+02  0.79785789685E+02 -0.17445145991E+03  0.25750363534E+03  0.17143382180E+03 0.  0.
        -24    2    3    3    0    0 -0.56749020519E+02  0.20293706189E+02 -0.92700098633E+02  0.13574467638E+03  0.78746574776E+02 0.  0.
          6    2    1    2  501    0 -0.10930821521E+02 -0.79785789685E+02  0.25834676551E+03  0.32051084110E+03  0.17175241750E+03 0.  0.
         24    2    5    5    0    0 -0.29541928772E+02  0.70467484630E+01  0.60342397128E+02  0.10345305411E+03  0.78351434539E+02 0.  0.
          5    1    5    5  501    0  0.18611107251E+02 -0.86832538148E+02  0.19800436838E+03  0.21705778699E+03  0.47000000000E+01 0. -1.
        -13    1    6    6    0    0  0.19340108754E+02 -0.20283606641E+02  0.19790644831E+02  0.34309388334E+02  0.00000000000E+00 0.  1.
         14    1    6    6    0    0 -0.48882037526E+02  0.27330355104E+02  0.40551752297E+02  0.69143665778E+02  0.00000000000E+00 0. -1.
         -5    1    3    3    0  503  0.67679842040E+02  0.59492083497E+02 -0.81751361272E+02  0.12175895896E+03  0.47000000000E+01 0.  1.
         11    1    4    4    0    0 -0.27975084097E+02  0.41459073425E+02 -0.18377609066E+02  0.53284112215E+02  0.00000000000E+00 0. -1.
        -12    1    4    4    0    0 -0.28773936421E+02 -0.21165367237E+02 -0.74322489567E+02  0.82460564168E+02  0.00000000000E+00 0.  1.
</event>
<event>
12    1  0.8494789E-002  0.2326262E+03  0.7818608E-02  0.1125133E+00
         21   -1    0    0  501  502  0.00000000000E+00  0.00000000000E+00  0.55138730485E+03  0.55138730485E+03  0.00000000000E+00 0.  1.
         21   -1    0    0  502  503 -0.00000000000E+00 -0.00000000000E+00 -0.11371804987E+03  0.11371804987E+03  0.00000000000E+00 0.  1.
         -6    2    1    2    0  503  0.14377107378E+03 -0.66015776236E+02  0.91908617350E+02  0.24837359464E+03  0.16797036705E+03 0.  0.
        -24    2    3    3    0    0  0.51983341200E+02 -0.53870602169E+01 -0.11509060886E+02  0.97316866130E+02  0.81282382906E+02 0.  0.
          6    2    1    2  501    0 -0.14377107378E+03  0.66015776236E+02  0.34576063763E+03  0.41673176008E+03  0.17054834200E+03 0.  0.
         24    2    5    5    0    0 -0.16358129458E+03  0.31072029101E+02  0.31604873297E+03  0.36654812141E+03  0.82136549492E+02 0.  0.
          5    1    5    5  501    0  0.19810220806E+02  0.34943747135E+02  0.29711904654E+02  0.50183638672E+02  0.47000000000E+01 0. -1.
        -11    1    6    6    0    0 -0.16476604493E+03  0.45363782358E+02  0.28430462008E+03  0.33171499712E+03  0.00000000000E+00 0.  1.
         12    1    6    6    0    0  0.11847503476E+01 -0.14291753257E+02  0.31744112889E+02  0.34833124288E+02  0.00000000000E+00 0. -1.
         -5    1    3    3    0  503  0.91787732575E+02 -0.60628716019E+02  0.10341767824E+03  0.15105672851E+03  0.47000000000E+01 0.  1.
         11    1    4    4    0    0 -0.14004874913E+02 -0.19065391804E+02 -0.17839934571E+02  0.29629190868E+02  0.00000000000E+00 0. -1.
        -12    1    4    4    0    0  0.65988216113E+02  0.13678331588E+02  0.63308736850E+01  0.67687675262E+02  0.00000000000E+00 0.  1.
</event>
<event>
12    1  0.8494789E-002  0.2115024E+03  0.7818608E-02  0.1140892E+00
         21   -1    0    0  501  502  0.00000000000E+00  0.00000000000E+00  0.24278657525E+03  0.24278657525E+03  0.00000000000E+00 0. -1.
         21   -1    0    0  502  503 -0.00000000000E+00 -0.00000000000E+00 -0.21770909864E+03  0.21770909864E+03  0.00000000000E+00 0.  1.
         -6    2    1    2    0  503 -0.11407495135E+03 -0.28208667547E+02 -0.80636559794E+02  0.22635262820E+03  0.17585344485E+03 0.  0.
        -24    2    3    3    0    0 -0.74582571496E+01 -0.58802628594E+02 -0.40354862932E+02  0.10825176014E+03  0.81095954777E+02 0.  0.
          6    2    1    2  501    0  0.11407495135E+03  0.28208667547E+02  0.10571403641E+03  0.23414304569E+03  0.17273877647E+03 0.  0.
         24    2    5    5    0    0  0.12517491333E+03  0.47937043209E+02  0.34912540958E+02  0.15966244606E+03  0.79413425354E+02 0.  0.
          5    1    5    5  501    0 -0.11099961980E+02 -0.19728375661E+02  0.70801495452E+02  0.74480599624E+02  0.47000000000E+01 0. -1.
        -11    1    6    6    0    0  0.87744656715E+01  0.72311023760E+01 -0.21297587553E+02  0.24142645360E+02  0.00000000000E+00 0.  1.
         12    1    6    6    0    0  0.11640044766E+03  0.40705940833E+02  0.56210128511E+02  0.13551980070E+03  0.00000000000E+00 0. -1.
         -5    1    3    3    0  503 -0.10661669421E+03  0.30593961047E+02 -0.40281696862E+02  0.11810086807E+03  0.47000000000E+01 0.  1.
         13    1    4    4    0    0 -0.28006759565E+02 -0.70306595403E+02 -0.37709318559E+02  0.84554057529E+02  0.00000000000E+00 0. -1.
        -14    1    4    4    0    0  0.20548502415E+02  0.11503966809E+02 -0.26455443728E+01  0.23697702608E+02  0.00000000000E+00 0.  1.
</event>
<event>
12    1  0.8494789E-002  0.1910807E+03  0.7818608E-02  0.1158463E+00
         21   -1    0    0  503  502  0.00000000000E+00  0.00000000000E+00  0.82732354113E+02  0.82732354113E+02  0.00000000000E+00 0.  1.
         21   -1    0    0  501  503 -0.00000000000E+00 -0.00000000000E+00 -0.44226117567E+03  0.44226117567E+03  0.00000000000E+00 0.  1.
          6    2    1    2  501    0 -0.46613427318E+02  0.61127975715E+02 -0.13674956131E+03  0.23149323447E+03  0.17023288186E+03 0.  0.
         24    2    3    3    0    0  0.74571837413E+01  0.45440958923E+02 -0.10620290388E+02  0.93289050526E+02  0.80433612644E+02 0.  0.
         -6    2    1    2    0  502  0.46613427318E+02 -0.61127975715E+02 -0.22277926025E+03  0.29350029531E+03  0.17493536958E+03 0.  0.
        -24    2    5    5    0    0 -0.82441415669E+01 -0.25054916622E+02 -0.26931033476E+02  0.86886558148E+02  0.78283323292E+02 0.  0.
          5    1    3    3  501    0 -0.54070611060E+02  0.15687016792E+02 -0.12612927092E+03  0.13820418395E+03  0.47000000000E+01 0. -1.
        -11    1    4    4    0    0 -0.31814473331E+02 -0.10402326969E+01 -0.34706212451E+01  0.32020118819E+02  0.00000000000E+00 0.  1.
         12    1    4    4    0    0  0.39271657072E+02  0.46481191620E+02 -0.71496691428E+01  0.61268931706E+02  0.00000000000E+00 0. -1.
         -5    1    5    5    0  502  0.54857568885E+02 -0.36073059092E+02 -0.19584822677E+03  0.20661373717E+03  0.47000000000E+01 0.  1.
         13    1    6    6    0    0  0.26910090358E+02 -0.31375628550E+02  0.13053824584E+01  0.41355616951E+02  0.00000000000E+00 0. -1.
        -14    1    6    6    0    0 -0.35154231925E+02  0.63207119281E+01 -0.28236415935E+02  0.45530941197E+02  0.00000000000E+00 0.  1.
</event>
<event>
12    1  0.8494789E-002  0.1982157E+03  0.7818608E-02  0.1151528E+00
         21   -1    0    0  503  502  0.00000000000E+00  0.00000000000E+00  0.16070020607E+03  0.16070020607E+03  0.00000000000E+00 0. -1.
         21   -1    0    0  501  503 -0.00000000000E+00 -0.00000000000E+00 -0.42672246175E+03  0.42672246175E+03  0.00000000000E+00 0. -1.
          6    2    1    2  501    0  0.60547998680E+02 -0.74158044238E+02  0.59510590253E+02  0.20695646734E+03  0.17356264965E+03 0.  0.
         24    2    3    3    0    0  0.16218092645E+02 -0.78833288074E+02 -0.20157981421E+02  0.11554437959E+03  0.80414212689E+02 0.  0.
         -6    2    1    2    0  502 -0.60547998680E+02  0.74158044238E+02 -0.32553284593E+03  0.38046620047E+03  0.17209712447E+03 0.  0.
        -24    2    5    5    0    0 -0.59062953455E+02  0.68381244132E+02 -0.10061123879E+03  0.15541643678E+03  0.76597783458E+02 0.  0.
          5    1    3    3  501    0  0.44329906035E+02  0.46752438365E+01  0.79668571674E+02  0.91412087749E+02  0.47000000000E+01 0. -1.
        -11    1    4    4    0    0 -0.99952450109E+01  0.13047474849E+02 -0.10515869857E+02  0.19512176752E+02  0.00000000000E+00 0.  1.
         12    1    4    4    0    0  0.26213337656E+02 -0.91880762924E+02 -0.96421115645E+01  0.96032202838E+02  0.00000000000E+00 0. -1.
         -5    1    5    5    0  502 -0.14850452250E+01  0.57768001055E+01 -0.22492160714E+03  0.22504976369E+03  0.47000000000E+01 0.  1.
         13    1    6    6    0    0 -0.11154108494E+02  0.24784002241E+02 -0.84363732936E+02  0.88633517014E+02  0.00000000000E+00 0. -1.
        -14    1    6    6    0    0 -0.47908844961E+02  0.43597241891E+02 -0.16247505854E+02  0.66782919766E+02  0.00000000000E+00 0.  1.
</event>
<event>
12    1  0.8494789E-002  0.2073664E+03  0.7818608E-02  0.1143939E+00
         21   -1    0    0  503  502  0.00000000000E+00  0.00000000000E+00  0.84941945090E+02  0.84941945090E+02  0.00000000000E+00 0.  1.
         21   -1    0    0  501  503 -0.00000000000E+00 -0.00000000000E+00 -0.65226104035E+03  0.65226104035E+03  0.00000000000E+00 0.  1.
          6    2    1    2  501    0  0.10416526809E+03 -0.48415147603E+02 -0.46071086318E+03  0.50522797396E+03  0.17264523344E+03 0.  0.
         24    2    3    3    0    0  0.94193715129E+02  0.23590787138E+02 -0.35758457667E+03  0.37896868727E+03  0.79508208722E+02 0.  0.
         -6    2    1    2    0  502 -0.10416526809E+03  0.48415147603E+02 -0.10660823208E+03  0.23197501148E+03  0.17103409370E+03 0.  0.
        -24    2    5    5    0    0 -0.99849476326E+02 -0.26811318025E+02 -0.67053814373E+02  0.14674421217E+03  0.79679891362E+02 0.  0.
          5    1    3    3  501    0  0.99715529631E+01 -0.72005934741E+02 -0.10312628651E+03  0.12625928669E+03  0.47000000000E+01 0. -1.
        -11    1    4    4    0    0  0.10202176290E+03  0.30514516187E+02 -0.26198783053E+03  0.28280240301E+03  0.00000000000E+00 0.  1.
         12    1    4    4    0    0 -0.78280477754E+01 -0.69237290492E+01 -0.95596746139E+02  0.96166284259E+02  0.00000000000E+00 0. -1.
         -5    1    5    5    0  502 -0.43157917662E+01  0.75226465629E+02 -0.39554417708E+02  0.85230799303E+02  0.47000000000E+01 0.  1.
         13    1    6    6    0    0 -0.25352171689E+02  0.31267071738E+01 -0.61113173245E+02  0.66236914566E+02  0.00000000000E+00 0. -1.
        -14    1    6    6    0    0 -0.74497304637E+02 -0.29938025199E+02 -0.59406411279E+01  0.80507297607E+02  0.00000000000E+00 0.  1.
</event>
<event>
12    1  0.8494789E-002  0.3413887E+03  0.7818608E-02  0.1066233E+00
         21   -1    0    0  503  502  0.00000000000E+00  0.00000000000E+00  0.37475803483E+03  0.37475803483E+03  0.00000000000E+00 0. -1.
         21   -1    0    0  501  503 -0.00000000000E+00 -0.00000000000E+00 -0.53574249417E+03  0.53574249417E+03  0.00000000000E+00 0. -1.
          6    2    1    2  501    0  0.17636485361E+02  0.29427270751E+03 -0.37552981429E+03  0.50751244768E+03  0.17215914479E+03 0.  0.
         24    2    3    3    0    0 -0.57456738689E+02  0.13532825371E+03 -0.17869947159E+03  0.24356812496E+03  0.76006034481E+02 0.  0.
         -6    2    1    2    0  502 -0.17636485361E+02 -0.29427270751E+03  0.21454535495E+03  0.40298808132E+03  0.17164560104E+03 0.  0.
        -24    2    5    5    0    0  0.27922111587E+02 -0.91964377563E+02  0.12719986245E+03  0.17792015562E+03  0.78985351238E+02 0.  0.
          5    1    3    3  501    0  0.75093224050E+02  0.15894445380E+03 -0.19683034270E+03  0.26394432272E+03  0.47000000000E+01 0. -1.
        -11    1    4    4    0    0 -0.60016777276E+02  0.10195462243E+03 -0.17304548624E+03  0.20962227672E+03  0.00000000000E+00 0.  1.
         12    1    4    4    0    0  0.25600385873E+01  0.33373631276E+02 -0.56539853462E+01  0.33945848236E+02  0.00000000000E+00 0. -1.
         -5    1    5    5    0  502 -0.45558596949E+02 -0.20230832994E+03  0.87345492498E+02  0.22506792570E+03  0.47000000000E+01 0.  1.
         11    1    6    6    0    0  0.50605560144E+02 -0.75909312833E+02  0.72370513702E+02  0.11645015133E+03  0.00000000000E+00 0. -1.
        -12    1    6    6    0    0 -0.22683448556E+02 -0.16055064730E+02  0.54829348753E+02  0.61470004283E+02  0.00000000000E+00 0.  1.
</event>
<event>
12    1  0.8494789E-002  0.2109054E+03  0.7818608E-02  0.1140871E+00
         21   -1    0    0  503  502  0.00000000000E+00  0.00000000000E+00  0.25578976517E+02  0.25578976517E+02  0.00000000000E+00 0. -1.
         21   -1    0    0  501  503 -0.00000000000E+00 -0.00000000000E+00 -0.21603237931E+04  0.21603237931E+04  0.00000000000E+00 0.  1.
          6    2    1    2  501    0 -0.36277604049E+02  0.11676936820E+03 -0.15503247660E+04  0.15645913455E+04  0.17172084435E+03 0.  0.
         24    2    3    3    0    0  0.53537803523E+01 -0.23156021578E+01 -0.77666761308E+03  0.78070239762E+03  0.79054585265E+02 0.  0.
         -6    2    1    2    0  502  0.36277604049E+02 -0.11676936820E+03 -0.58442005063E+03  0.62131142418E+03  0.17184277795E+03 0.  0.
        -24    2    5    5    0    0  0.39517401784E+02 -0.10804935360E+02 -0.15490913333E+03  0.17888552598E+03  0.79528737857E+02 0.  0.
          5    1    3    3  501    0 -0.41631384401E+02  0.11908497036E+03 -0.77365715291E+03  0.78388894786E+03  0.47000000000E+01 0. -1.
        -13    1    4    4    0    0 -0.10116922201E+02 -0.32638734987E+02 -0.19002192183E+03  0.19306985760E+03  0.00000000000E+00 0.  1.
         14    1    4    4    0    0  0.15470702553E+02  0.30323132830E+02 -0.58664569125E+03  0.58763254002E+03  0.00000000000E+00 0. -1.
         -5    1    5    5    0  502 -0.32397977358E+01 -0.10596443284E+03 -0.42951091730E+03  0.44242589820E+03  0.47000000000E+01 0.  1.
         13    1    6    6    0    0  0.46615996864E+01 -0.30037431741E+02 -0.15932225600E+02  0.34319289471E+02  0.00000000000E+00 0. -1.
        -14    1    6    6    0    0  0.34855802098E+02  0.19232496381E+02 -0.13897690773E+03  0.14456623651E+03  0.00000000000E+00 0.  1.
</event>
<event>
12    1  0.8494789E-002  0.3052787E+03  0.7818608E-02  0.1083013E+00
         21   -1    0    0  503  502  0.00000000000E+00  0.00000000000E+00  0.27056529990E+03  0.27056529990E+03  0.00000000000E+00 0. -1.
         21   -1    0    0  501  503 -0.00000000000E+00 -0.00000000000E+00 -0.38117458588E+03  0.38117458588E+03  0.00000000000E+00 0. -1.
          6    2    1    2  501    0  0.17524879496E+03  0.17576926962E+03 -0.16141179219E+03  0.34532423271E+03  0.17773036533E+03 0.  0.
         24    2    3    3    0    0  0.71716982526E+02  0.16887021314E+03 -0.11932142209E+03  0.23325228073E+03  0.80675586321E+02 0.  0.
         -6    2    1    2    0  502 -0.17524879496E+03 -0.17576926962E+03  0.50802506211E+02  0.30641565306E+03  0.17234465913E+03 0.  0.
        -24    2    5    5    0    0 -0.19366755695E+03 -0.18543328219E+03  0.52801184395E+02  0.28499770156E+03  0.80889431087E+02 0.  0.
          5    1    3    3  501    0  0.10353181243E+03  0.68990564822E+01 -0.42090370108E+02  0.11207195198E+03  0.47000000000E+01 0. -1.
        -13    1    4    4    0    0 -0.16675086688E+01  0.13341298828E+02 -0.43094321485E+02  0.45143010355E+02  0.00000000000E+00 0.  1.
         14    1    4    4    0    0  0.73384491195E+02  0.15552891431E+03 -0.76227100600E+02  0.18810927037E+03  0.00000000000E+00 0. -1.
         -5    1    5    5    0  502  0.18418761991E+02  0.96640125715E+01 -0.19986781848E+01  0.21417951506E+02  0.47000000000E+01 0.  1.
         13    1    6    6    0    0 -0.11683853279E+03 -0.15201934844E+03  0.60019776653E+02  0.20090669137E+03  0.00000000000E+00 0. -1.
        -14    1    6    6    0    0 -0.76829024153E+02 -0.33413933750E+02 -0.72185922575E+01  0.84091010192E+02  0.00000000000E+00 0.  1.
</event>
<event>
12    1  0.8494789E-002  0.2194382E+03  0.7818608E-02  0.1134840E+00
         21   -1    0    0  501  502  0.00000000000E+00  0.00000000000E+00  0.11551337926E+04  0.11551337926E+04  0.00000000000E+00 0.  1.
         21   -1    0    0  502  503 -0.00000000000E+00 -0.00000000000E+00 -0.45981605751E+02  0.45981605751E+02  0.00000000000E+00 0.  1.
         -6    2    1    2    0  503 -0.83389410212E+02  0.10208991637E+03  0.74608072026E+03  0.77688197752E+03  0.17185174158E+03 0.  0.
        -24    2    3    3    0    0 -0.40720383374E+02  0.13677932798E+03  0.53976182315E+03  0.56330862142E+03  0.74880191322E+02 0.  0.
          6    2    1    2  501    0  0.83389410212E+02 -0.10208991637E+03  0.36307146662E+03  0.42423342087E+03  0.17543363630E+03 0.  0.
         24    2    5    5    0    0  0.93537179590E+02 -0.13613817612E+03  0.30958212763E+03  0.35984816944E+03  0.79792257393E+02 0.  0.
          5    1    5    5  501    0 -0.10147769378E+02  0.34048259750E+02  0.53489338995E+02  0.64385251428E+02  0.47000000000E+01 0. -1.
        -11    1    6    6    0    0  0.44287357783E+02 -0.34371938144E+02  0.17669433193E+03  0.18537445112E+03  0.00000000000E+00 0.  1.
         12    1    6    6    0    0  0.49249821807E+02 -0.10176623798E+03  0.13288779570E+03  0.17447371832E+03  0.00000000000E+00 0. -1.
         -5    1    3    3    0  503 -0.42669026838E+02 -0.34689411607E+02  0.20631889712E+03  0.21357335610E+03  0.47000000000E+01 0.  1.
         13    1    4    4    0    0  0.64276148369E+01 -0.44026343827E+01  0.72368508011E+02  0.72786663433E+02  0.00000000000E+00 0. -1.
        -14    1    4    4    0    0 -0.47147998211E+02  0.14118196236E+03  0.46739331513E+03  0.49052195798E+03  0.00000000000E+00 0.  1.
</event>
<event>
12    1  0.8494789E-002  0.1868130E+03  0.7818608E-02  0.1161641E+00
         21   -1    0    0  501  502  0.00000000000E+00  0.00000000000E+00  0.84897368130E+02  0.84897368130E+02  0.00000000000E+00 0. -1.
         21   -1    0    0  502  503 -0.00000000000E+00 -0.00000000000E+00 -0.45402516133E+03  0.45402516133E+03  0.00000000000E+00 0. -1.
         -6    2    1    2    0  503  0.60625156401E+02  0.37385164456E+02 -0.98691245889E+02  0.21023573794E+03  0.17142357884E+03 0.  0.
        -24    2    3    3    0    0  0.60386237917E+02  0.27975710088E+02  0.74693426720E+01  0.10355511422E+03  0.78985647537E+02 0.  0.
          6    2    1    2  501    0 -0.60625156401E+02 -0.37385164456E+02 -0.27043654731E+03  0.32868679152E+03  0.17270211547E+03 0.  0.
         24    2    5    5    0    0 -0.30815224250E+02  0.44068378700E+02 -0.17321310130E+03  0.19831117953E+03  0.80205644545E+02 0.  0.
          5    1    5    5  501    0 -0.29809932151E+02 -0.81453543155E+02 -0.97223446010E+02  0.13037561199E+03  0.47000000000E+01 0. -1.
        -11    1    6    6    0    0 -0.31620619689E+02 -0.14548185181E+02 -0.41654751523E+02  0.54282885019E+02  0.00000000000E+00 0.  1.
         12    1    6    6    0    0  0.80539543876E+00  0.58616563881E+02 -0.13155834978E+03  0.14402829451E+03  0.00000000000E+00 0. -1.
         -5    1    3    3    0  503  0.23891848349E+00  0.94094543675E+01 -0.10616058856E+03  0.10668062372E+03  0.47000000000E+01 0.  1.
         11    1    4    4    0    0 -0.17681293059E+02 -0.48541793769E+01 -0.14732696304E+01  0.18394610761E+02  0.00000000000E+00 0. -1.
        -12    1    4    4    0    0  0.78067530976E+02  0.32829889465E+02  0.89426123023E+01  0.85160503461E+02  0.00000000000E+00 0.  1.
</event>
<event>
12    1  0.8494789E-002  0.1939695E+03  0.7818608E-02  0.1155026E+00
         21   -1    0    0  501  502  0.00000000000E+00  0.00000000000E+00  0.88266340313E+02  0.88266340313E+02  0.00000000000E+00 0.  1.
         21   -1    0    0  502  503 -0.00000000000E+00 -0.00000000000E+00 -0.42774213750E+03  0.42774213750E+03  0.00000000000E+00 0. -1.
         -6    2    1    2    0  503 -0.56832706179E+01  0.89547138873E+02 -0.18908572253E+03  0.27056734139E+03  0.17147094831E+03 0.  0.
        -24    2    3    3    0    0  0.22915745081E+02  0.11917370965E+03 -0.17346078469E+03  0.22627438396E+03  0.79899615575E+02 0.  0.
          6    2    1    2  501    0  0.56832706179E+01 -0.89547138873E+02 -0.15039007466E+03  0.24544113643E+03  0.17196856471E+03 0.  0.
         24    2    5    5    0    0  0.57062076214E+02 -0.10064923208E+03 -0.95293043537E+02  0.16914689696E+03  0.78380865923E+02 0.  0.
          5    1    5    5  501    0 -0.51378805596E+02  0.11102093208E+02 -0.55097031123E+02  0.76294239472E+02  0.47000000000E+01 0. -1.
        -11    1    6    6    0    0  0.33798012109E+02 -0.62502088309E+02 -0.85437055163E+01  0.71566832887E+02  0.00000000000E+00 0.  1.
         12    1    6    6    0    0  0.23264064104E+02 -0.38147143772E+02 -0.86749338020E+02  0.97580064068E+02  0.00000000000E+00 0. -1.
         -5    1    3    3    0  503 -0.28599015699E+02 -0.29626570775E+02 -0.15624937839E+02  0.44292957423E+02  0.47000000000E+01 0.  1.
         13    1    4    4    0    0  0.41701187775E+02  0.25790502268E+02 -0.46695704658E+02  0.67709880391E+02  0.00000000000E+00 0. -1.
        -14    1    4    4    0    0 -0.18785442694E+02  0.93383207380E+02 -0.12676508003E+03  0.15856450357E+03  0.00000000000E+00 0.  1.
</event>
<event>
12    1  0.8494789E-002  0.2202231E+03  0.7818608E-02  0.1134682E+00
         21   -1    0    0  503  502  0.00000000000E+00  0.00000000000E+00  0.47481064030E+03  0.47481064030E+03  0.00000000000E+00 0.  1.
         21   -1    0    0  501  503 -0.00000000000E+00 -0.00000000000E+00 -0.20154734973E+03  0.20154734973E+03  0.00000000000E+00 0.  1.
          6    2    1    2  501    0  0.12678382130E+03  0.23613836028E+02 -0.10445795837E+03  0.23912628932E+03  0.17215738899E+03 0.  0.
         24    2    3    3    0    0  0.15469710136E+03  0.57974949966E+01 -0.11468119193E+03  0.20415233164E+03  0.67539578118E+02 0.  0.
         -6    2    1    2    0  502 -0.12678382130E+03 -0.23613836028E+02  0.37772124895E+03  0.43723170072E+03  0.17851181365E+03 0.  0.
        -24    2    5    5    0    0 -0.72066677945E+02 -0.85203311568E+02  0.24339556540E+03  0.27958428230E+03  0.80453460336E+02 0.  0.
          5    1    3    3  501    0 -0.27913280067E+02  0.17816341031E+02  0.10223233553E+02  0.34973957685E+02  0.47000000000E+01 0. -1.
        -11    1    4    4    0    0  0.86447261227E+02  0.14855960228E+02 -0.10133087096E+03  0.13402154281E+03  0.00000000000E+00 0.  1.
         12    1    4    4    0    0  0.68249840137E+02 -0.90584652315E+01 -0.13350320963E+02  0.70130788823E+02  0.00000000000E+00 0. -1.
         -5    1    5    5    0  502 -0.54717143352E+02  0.61589475540E+02  0.13432568354E+03  0.15764741842E+03  0.47000000000E+01 0.  1.
         11    1    6    6    0    0 -0.88086391199E+02 -0.80459782237E+02  0.22541984406E+03  0.25504331979E+03  0.00000000000E+00 0. -1.
        -12    1    6    6    0    0  0.16019713255E+02 -0.47435293309E+01  0.17975721338E+02  0.24540962510E+02  0.00000000000E+00 0.  1.
</event>
<event>
12    1  0.8494789E-002  0.2732944E+03  0.7818608E-02  0.1099476E+00
         21   -1    0    0  501  502  0.00000000000E+00  0.00000000000E+00  0.10803816586E+04  0.10803816586E+04  0.00000000000E+00 0. -1.
         21   -1    0    0  502  503 -0.00000000000E+00 -0.00000000000E+00 -0.89534654978E+02  0.89534654978E+02  0.00000000000E+00 0.  1.
         -6    2    1    2    0  503  0.21050977266E+03  0.19526355162E+02  0.77514302253E+03  0.82175253745E+03  0.17243805987E+03 0.  0.
        -24    2    3    3    0    0  0.10797996444E+03 -0.51164679224E+02  0.48849979187E+03  0.50918891896E+03  0.79773500719E+02 0.  0.
          6    2    1    2  501    0 -0.21050977266E+03 -0.19526355162E+02  0.21570398111E+03  0.34816377615E+03  0.17318823467E+03 0.  0.
         24    2    5    5    0    0 -0.22304654326E+02 -0.20693977267E+02  0.66514296594E+02  0.10795099158E+03  0.79394751913E+02 0.  0.
          5    1    5    5  501    0 -0.18820511833E+03  0.11676221041E+01  0.14918968452E+03  0.24021278458E+03  0.47000000000E+01 0. -1.
        -13    1    6    6    0    0 -0.43048692339E+02 -0.20074109657E+02  0.11101114395E+02  0.48779037829E+02  0.00000000000E+00 0.  1.
         14    1    6    6    0    0  0.20744038014E+02 -0.61986760910E+00  0.55413182199E+02  0.59171953748E+02  0.00000000000E+00 0. -1.
         -5    1    3    3    0  503  0.10252980822E+03  0.70691034386E+02  0.28664323066E+03  0.31256361849E+03  0.47000000000E+01 0.  1.
         13    1    4    4    0    0  0.57399989374E+01 -0.19321289425E+02  0.20749942935E+03  0.20847607295E+03  0.00000000000E+00 0. -1.
        -14    1    4    4    0    0  0.10223996550E+03 -0.31843389798E+02  0.28100036252E+03  0.30071284601E+03  0.00000000000E+00 0.  1.
</event>
<event>
12    1  0.8494789E-002  0.2014375E+03  0.7818608E-02  0.1150335E+00
         21   -1    0    0  501  502  0.00000000000E+00  0.00000000000E+00  0.36228859098E+03  0.36228859098E+03  0.00000000000E+00 0.  1.
         21   -1    0    0  502  503 -0.00000000000E+00 -0.00000000000E+00 -0.12525590028E+03  0.12525590028E+03  0.00000000000E+00 0. -1.
         -6    2    1    2    0  503  0.52456443692E+02  0.91377870414E+02  0.28567334781E+02  0.20345304097E+03  0.17168416810E+03 0.  0.
        -24    2    3    3    0    0 -0.27336985475E+01  0.96251642086E+02  0.61103844684E+02  0.13902928815E+03  0.79521138166E+02 0.  0.
          6    2    1    2  501    0 -0.52456443692E+02 -0.91377870414E+02  0.20846535592E+03  0.28409145029E+03  0.16170514470E+03 0.  0.
         24    2    5    5    0    0  0.27170801742E+02 -0.22810947495E+02  0.82206568071E+02  0.11975857882E+03  0.79533675730E+02 0.  0.
          5    1    5    5  501    0 -0.79627245435E+02 -0.68566922919E+02  0.12625878785E+03  0.16433287146E+03  0.47000000000E+01 0. -1.
        -11    1    6    6    0    0 -0.10013759215E+02  0.21461741013E+02  0.66118022603E+01  0.24588567060E+02  0.00000000000E+00 0.  1.
         12    1    6    6    0    0  0.37184560957E+02 -0.44272688508E+02  0.75594765811E+02  0.95170011765E+02  0.00000000000E+00 0. -1.
         -5    1    3    3    0  503  0.55190142240E+02 -0.48737716719E+01 -0.32536509902E+02  0.64423752820E+02  0.47000000000E+01 0.  1.
         13    1    4    4    0    0 -0.32100818870E+02  0.76433363088E+02  0.21003212969E+02  0.85519918850E+02  0.00000000000E+00 0. -1.
        -14    1    4    4    0    0  0.29367120323E+02  0.19818278998E+02  0.40100631715E+02  0.53509369296E+02  0.00000000000E+00 0.  1.
</event>
<event>
12    1  0.8494789E-002  0.2346631E+03  0.7818608E-02  0.1123487E+00
         21   -1    0    0  503  502  0.00000000000E+00  0.00000000000E+00  0.45369816650E+03  0.45369816650E+03  0.00000000000E+00 0. -1.
         21   -1    0    0  501  503 -0.00000000000E+00 -0.00000000000E+00 -0.22705270390E+03  0.22705270390E+03  0.00000000000E+00 0. -1.
          6    2    1    2  501    0  0.74951086205E+02  0.14038346018E+03 -0.11924519265E+03  0.26277108556E+03  0.17176741899E+03 0.  0.
         24    2    3    3    0    0  0.61015307970E+02  0.35300987606E+01 -0.54293674539E+02  0.11057437683E+03  0.74455089229E+02 0.  0.
         -6    2    1    2    0  502 -0.74951086205E+02 -0.14038346018E+03  0.34589065525E+03  0.41797978484E+03  0.17245745541E+03 0.  0.
        -24    2    5    5    0    0 -0.98109936916E+02 -0.13290807161E+03  0.20594280642E+03  0.27585412145E+03  0.79955872734E+02 0.  0.
          5    1    3    3  501    0  0.13935778235E+02  0.13685336141E+03 -0.64951518108E+02  0.15219670874E+03  0.47000000000E+01 0. -1.
        -11    1    4    4    0    0 -0.78229498318E+01 -0.16802317117E+02  0.29468759561E+01  0.18767005155E+02  0.00000000000E+00 0.  1.
         12    1    4    4    0    0  0.68838257802E+02  0.20332415878E+02 -0.57240550495E+02  0.91807371674E+02  0.00000000000E+00 0. -1.
         -5    1    5    5    0  502  0.23158850711E+02 -0.74753885668E+01  0.13994784883E+03  0.14212566338E+03  0.47000000000E+01 0.  1.
         11    1    6    6    0    0 -0.37153099087E+02 -0.11310915450E+03  0.12524646194E+03  0.17280251686E+03  0.00000000000E+00 0. -1.
        -12    1    6    6    0    0 -0.60956837829E+02 -0.19798917107E+02  0.80696344485E+02  0.10305160460E+03  0.00000000000E+00 0.  1.
</event>
<event>
12    1  0.8494789E-002  0.2019686E+03  0.7818608E-02  0.1148768E+00
         21   -1    0    0  501  502  0.00000000000E+00  0.00000000000E+00  0.44676855844E+02  0.44676855844E+02  0.00000000000E+00 0. -1.
         21   -1    0    0  502  503 -0.00000000000E+00 -0.00000000000E+00 -0.15112212387E+04  0.15112212387E+04  0.00000000000E+00 0.  1.
         -6    2    1    2    0  503 -0.99081049606E+02  0.38143015784E+00 -0.12321496727E+04  0.12485928665E+04  0.17599468860E+03 0.  0.
        -24    2    3    3    0    0 -0.29728193548E+02 -0.64646375616E+02 -0.66543907655E+03  0.67394390933E+03  0.79550669079E+02 0.  0.
          6    2    1    2  501    0  0.99081049606E+02 -0.38143015784E+00 -0.23439471016E+03  0.30730522807E+03  0.17227426728E+03 0.  0.
         24    2    5    5    0    0  0.10769993063E+03  0.20936676700E+02 -0.94442544691E+02  0.16539876095E+03  0.79998352405E+02 0.  0.
          5    1    5    5  501    0 -0.86188810201E+01 -0.21318106858E+02 -0.13995216547E+03  0.14190646712E+03  0.47000000000E+01 0. -1.
        -13    1    6    6    0    0  0.75478180537E+02  0.35009674719E+02 -0.99689515588E+02  0.12984849856E+03  0.00000000000E+00 0.  1.
         14    1    6    6    0    0  0.32221750089E+02 -0.14072998018E+02  0.52469708972E+01  0.35550262385E+02  0.00000000000E+00 0. -1.
         -5    1    3    3    0  503 -0.69352856058E+02  0.65027805774E+02 -0.56671059614E+03  0.57464895714E+03  0.47000000000E+01 0.  1.
         11    1    4    4    0    0  0.10346937136E+01 -0.74158456770E+02 -0.48866779511E+03  0.49426385795E+03  0.00000000000E+00 0. -1.
        -12    1    4    4    0    0 -0.30762887262E+02  0.95120811532E+01 -0.17677128144E+03  0.17968005137E+03  0.00000000000E+00 0.  1.
</event>
<event>
12    1  0.8494789E-002  0.2475413E+03  0.7818608E-02  0.1114902E+00
         21   -1    0    0  501  502  0.00000000000E+00  0.00000000000E+00  0.59456821069E+03  0.59456821069E+03  0.00000000000E+00 0. -1.
         21   -1    0    0  502  503 -0.00000000000E+00 -0.00000000000E+00 -0.17734603254E+03  0.17734603254E+03  0.00000000000E+00 0. -1.
         -6    2    1    2    0  503 -0.14562498508E+03 -0.10185446213E+03 -0.41376318345E+02  0.25077196475E+03  0.17202793625E+03 0.  0.
        -24    2    3    3    0    0 -0.12056492630E+03 -0.98982311752E+02 -0.88985427857E+02  0.19668894429E+03  0.80216799616E+02 0.  0.
          6    2    1    2  501    0  0.14562498508E+03  0.10185446213E+03  0.45859849650E+03  0.52114227847E+03  0.17232447792E+03 0.  0.
         24    2    5    5    0    0  0.68695791591E+02  0.12666294728E+03  0.33845233576E+03  0.37626042424E+03  0.79115796596E+02 0.  0.
          5    1    5    5  501    0  0.76929193490E+02 -0.24808485156E+02  0.12014616073E+03  0.14488185423E+03  0.47000000000E+01 0. -1.
        -13    1    6    6    0    0  0.19806762886E+02  0.51469562505E+02  0.50910388493E+02  0.75055255492E+02  0.00000000000E+00 0.  1.
         14    1    6    6    0    0  0.48889028705E+02  0.75193384777E+02  0.28754194727E+03  0.30120516875E+03  0.00000000000E+00 0. -1.
         -5    1    3    3    0  503 -0.25060058785E+02 -0.28721503739E+01  0.47609109512E+02  0.54083020465E+02  0.47000000000E+01 0.  1.
         13    1    4    4    0    0 -0.59067210429E+02 -0.93196747713E+02 -0.38334275860E+02  0.11680790144E+03  0.00000000000E+00 0. -1.
        -14    1    4    4    0    0 -0.61497715866E+02 -0.57855640392E+01 -0.50651151997E+02  0.79881042849E+02  0.00000000000E+00 0.  1.
</event>
<event>
12    1  0.8494789E-002  0.1826452E+03  0.7818608E-02  0.1166472E+00
         21   -1    0    0  503  502  0.00000000000E+00  0.00000000000E+00  0.48761640633E+03  0.48761640633E+03  0.00000000000E+00 0. -1.
         21   -1    0    0  501  503 -0.00000000000E+00 -0.00000000000E+00 -0.10091849102E+03  0.10091849102E+03  0.00000000000E+00 0. -1.
          6    2    1    2  501    0  0.39682425157E+02 -0.45823954046E+02  0.23411502292E+02  0.18413952411E+03  0.17229258913E+03 0.  0.
         24    2    3    3    0    0  0.29978834335E+02 -0.17023376446E+02  0.81341770096E+02  0.11855264377E+03  0.79055170157E+02 0.  0.
         -6    2    1    2    0  502 -0.39682425157E+02  0.45823954046E+02  0.36328641302E+03  0.40439537324E+03  0.16698524001E+03 0.  0.
        -24    2    5    5    0    0 -0.31777812755E+02  0.43684919718E+02  0.10220984786E+03  0.14314813164E+03  0.84417610719E+02 0.  0.
          5    1    3    3  501    0  0.97035908217E+01 -0.28800577600E+02 -0.57930267804E+02  0.65586880340E+02  0.47000000000E+01 0. -1.
        -13    1    4    4    0    0 -0.92938674635E+01  0.14248382570E+02  0.62755343470E+02  0.65020193112E+02  0.00000000000E+00 0.  1.
         14    1    4    4    0    0  0.39272701799E+02 -0.31271759017E+02  0.18586426626E+02  0.53532450656E+02  0.00000000000E+00 0. -1.
         -5    1    5    5    0  502 -0.79046124019E+01  0.21390343282E+01  0.26107656516E+03  0.26124724160E+03  0.47000000000E+01 0.  1.
         11    1    6    6    0    0 -0.25437904809E+02  0.48657968497E+02  0.11534045355E+03  0.12774233881E+03  0.00000000000E+00 0. -1.
        -12    1    6    6    0    0 -0.63399079459E+01 -0.49730487792E+01 -0.13130605693E+02  0.15405792832E+02  0.00000000000E+00 0.  1.
</event>
<event>
12    1  0.8494789E-002  0.1791029E+03  0.7818608E-02  0.1168682E+00
         21   -1    0    0  501  502  0.00000000000E+00  0.00000000000E+00  0.21114272454E+04  0.21114272454E+04  0.00000000000E+00 0.  1.
         21   -1    0    0  502  503 -0.00000000000E+00 -0.00000000000E+00 -0.21646967197E+02  0.21646967197E+02  0.00000000000E+00 0.  1.
         -6    2    1    2    0  503 -0.38694876559E+02 -0.30864277560E+02  0.46244717491E+03  0.49591858882E+03  0.17212774341E+03 0.  0.
        -24    2    3    3    0    0 -0.39422884893E+02  0.46721070039E+02  0.29200389392E+03  0.30858728286E+03  0.78884820074E+02 0.  0.
          6    2    1    2  501    0  0.38694876559E+02  0.30864277560E+02  0.16273331033E+04  0.16371556238E+04  0.17209186587E+03 0.  0.
         24    2    5    5    0    0  0.20549935959E+02  0.86067574352E+02  0.98653180561E+03  0.99370785126E+03  0.79877174186E+02 0.  0.
          5    1    5    5  501    0  0.18144940600E+02 -0.55203296792E+02  0.64080129769E+03  0.64344777253E+03  0.47000000000E+01 0. -1.
        -13    1    6    6    0    0  0.30362028519E+02  0.66976691688E+02  0.93495864525E+03  0.93784614854E+03  0.00000000000E+00 0.  1.
         14    1    6    6    0    0 -0.98120925604E+01  0.19090882664E+02  0.51573160356E+02  0.55861702717E+02  0.00000000000E+00 0. -1.
         -5    1    3    3    0  503  0.72800833386E+00 -0.77585347600E+02  0.17044328099E+03  0.18733130596E+03  0.47000000000E+01 0.  1.
         13    1    4    4    0    0 -0.10914376125E+02  0.61067204514E+02  0.13786371690E+03  0.15117781422E+03  0.00000000000E+00 0. -1.
        -14    1    4    4    0    0 -0.28508508768E+02 -0.14346134475E+02  0.15414017702E+03  0.15740946864E+03  0.00000000000E+00 0.  1.
</event>
<event>
12    1  0.8494789E-002  0.2097311E+03  0.7818608E-02  0.1141973E+00
         21   -1    0    0  503  502  0.00000000000E+00  0.00000000000E+00  0.46578381782E+03  0.46578381782E+03  0.00000000000E+00 0.  1.
         21   -1    0    0  501  503 -0.00000000000E+00 -0.00000000000E+00 -0.10107181986E+03  0.10107181986E+03  0.00000000000E+00 0.  1.
          6    2    1    2  501    0 -0.11893691551E+03 -0.10725580822E+02  0.25773696079E+03  0.33228823950E+03  0.17241260162E+03 0.  0.
         24    2    3    3    0    0  0.52331631038E+01 -0.24149110851E+02  0.12326330598E+03  0.14870269154E+03  0.79423436845E+02 0.  0.
         -6    2    1    2    0  502  0.11893691551E+03  0.10725580822E+02  0.10697503716E+03  0.23456739818E+03  0.17122259710E+03 0.  0.
        -24    2    5    5    0    0  0.75663033954E+02  0.38337685575E+00  0.14136482125E+03  0.17813746589E+03  0.77613802780E+02 0.  0.
          5    1    3    3  501    0 -0.12417007861E+03  0.13423530029E+02  0.13447365481E+03  0.18358554796E+03  0.47000000000E+01 0. -1.
        -13    1    4    4    0    0  0.55629712146E+01  0.87121780746E+01 -0.81999051308E+01  0.13194208566E+02  0.00000000000E+00 0.  1.
         14    1    4    4    0    0 -0.32980811085E+00 -0.32861288926E+02  0.13146321111E+03  0.13550848298E+03  0.00000000000E+00 0. -1.
         -5    1    5    5    0  502  0.43273881552E+02  0.10342203966E+02 -0.34389784092E+02  0.56429932282E+02  0.47000000000E+01 0.  1.
         11    1    6    6    0    0  0.70249860627E+02  0.24802811699E+02  0.68895637226E+02  0.10147330297E+03  0.00000000000E+00 0. -1.
        -12    1    6    6    0    0  0.54131733263E+01 -0.24419434843E+02  0.72469184028E+02  0.76664162926E+02  0.00000000000E+00 0.  1.
</event>
<event>
12    1  0.8494789E-002  0.1850305E+03  0.7818608E-02  0.1163170E+00
         21   -1    0    0  503  502  0.00000000000E+00  0.00000000000E+00  0.28581485744E+02  0.28581485744E+02  0.00000000000E+00 0.  1.
         21   -1    0    0  501  503 -0.00000000000E+00 -0.00000000000E+00 -0.13008905164E+04  0.13008905164E+04  0.00000000000E+00 0.  1.
          6    2    1    2  501    0 -0.22243145303E+02  0.63495235203E+02 -0.82792682397E+03  0.84835082298E+03  0.17236557257E+03 0.  0.
         24    2    3    3    0    0  0.38097982616E+02  0.81331249096E+02 -0.59227340515E+03  0.60439632126E+03  0.80255207615E+02 0.  0.
         -6    2    1    2    0  502  0.22243145303E+02 -0.63495235203E+02 -0.44438220669E+03  0.48112117916E+03  0.17168471396E+03 0.  0.
        -24    2    5    5    0    0 -0.30582069208E+02  0.89969482984E+01 -0.29061406396E+03  0.30304155743E+03  0.79758656725E+02 0.  0.
          5    1    3    3  501    0 -0.60341127919E+02 -0.17836013893E+02 -0.23565341882E+03  0.24395450172E+03  0.47000000000E+01 0. -1.
        -13    1    4    4    0    0 -0.91377000912E-02 -0.15717910875E+02 -0.61289950006E+02  0.63273302249E+02  0.00000000000E+00 0.  1.
         14    1    4    4    0    0  0.38107120316E+02  0.97049159971E+02 -0.53098345515E+03  0.54112301902E+03  0.00000000000E+00 0. -1.
         -5    1    5    5    0  502  0.52825214512E+02 -0.72492183502E+02 -0.15376814274E+03  0.17807962174E+03  0.47000000000E+01 0.  1.
         11    1    6    6    0    0  0.10885753765E+02 -0.26610511724E+02 -0.13724254582E+03  0.14022173637E+03  0.00000000000E+00 0. -1.
        -12    1    6    6    0    0 -0.41467822973E+02  0.35607460023E+02 -0.15337151814E+03  0.16281982105E+03  0.00000000000E+00 0.  1.
</event>
<event>
12    1  0.8494789E-002  0.2738416E+03  0.7818608E-02  0.1100000E+00
         21   -1    0    0  501  502  0.00000000000E+00  0.00000000000E+00  0.21466105800E+03  0.21466105800E+03  0.00000000000E+00 0.  1.
         21   -1    0    0  502  503 -0.00000000000E+00 -0.00000000000E+00 -0.40689927043E+03  0.40689927043E+03  0.00000000000E+00 0.  1.
         -6    2    1    2    0  503 -0.20197275632E+03  0.32744155469E+02 -0.22181196951E+03  0.35240568533E+03  0.18200011874E+03 0.  0.
        -24    2    3    3    0    0 -0.86994406578E+02  0.80552457250E+02 -0.92435050437E+02  0.17277792629E+03  0.85154260723E+02 0.  0.
          6    2    1    2  501    0  0.20197275632E+03 -0.32744155469E+02  0.29573757082E+02  0.26915464311E+03  0.17234976294E+03 0.  0.
         24    2    5    5    0    0  0.22150801940E+03 -0.50115643002E+02  0.31952374620E+02  0.24248738032E+03  0.78751476433E+02 0.  0.
          5    1    5    5  501    0 -0.19535263084E+02  0.17371487533E+02 -0.23786175382E+01  0.26667262782E+02  0.47000000000E+01 0. -1.
        -13    1    6    6    0    0  0.15518683623E+03  0.29260382601E+01  0.25775133475E+02  0.15733999284E+03  0.00000000000E+00 0.  1.
         14    1    6    6    0    0  0.66321183166E+02 -0.53041681262E+02  0.61772411446E+01  0.85147387487E+02  0.00000000000E+00 0. -1.
         -5    1    3    3    0  503 -0.11497834974E+03 -0.47808301781E+02 -0.12937691907E+03  0.17962775903E+03  0.47000000000E+01 0.  1.
         11    1    4    4    0    0 -0.46460252696E+02  0.32632660820E+02  0.48730963382E+01  0.56984144293E+02  0.00000000000E+00 0. -1.
        -12    1    4    4    0    0 -0.40534153881E+02  0.47919796430E+02 -0.97308146775E+02  0.11579378200E+03  0.00000000000E+00 0.  1.
</event>
<event>
12    1  0.8494789E-002  0.1800740E+03  0.7818608E-02  0.1167885E+00
         21   -1    0    0  503  502  0.00000000000E+00  0.00000000000E+00  0.57382839151E+03  0.57382839151E+03  0.00000000000E+00 0. -1.
         21   -1    0    0  501  503 -0.00000000000E+00 -0.00000000000E+00 -0.56332999312E+02  0.56332999312E+02  0.00000000000E+00 0. -1.
          6    2    1    2  501    0 -0.39824819110E+02 -0.35622059591E+02  0.26553952346E+03  0.32083933653E+03  0.17196422303E+03 0.  0.
         24    2    3    3    0    0 -0.74991858125E+02  0.19528567009E+02  0.91119758075E+02  0.13449917231E+03  0.61498563600E+02 0.  0.
         -6    2    1    2    0  502  0.39824819110E+02  0.35622059591E+02  0.25195586874E+03  0.30932205429E+03  0.17129922980E+03 0.  0.
        -24    2    5    5    0    0  0.77161343075E+02  0.93495132048E+01  0.12761452858E+03  0.17678103578E+03  0.94471056116E+02 0.  0.
          5    1    3    3  501    0  0.35167039016E+02 -0.55150626600E+02  0.17441976538E+03  0.18634016422E+03  0.47000000000E+01 0. -1.
        -13    1    4    4    0    0 -0.15328464573E+01  0.18488755062E+00  0.46246193405E+02  0.46271959177E+02  0.00000000000E+00 0.  1.
         14    1    4    4    0    0 -0.73459011668E+02  0.19343679458E+02  0.44873564670E+02  0.88227213129E+02  0.00000000000E+00 0. -1.
         -5    1    5    5    0  502 -0.37336523965E+02  0.26272546386E+02  0.12434134017E+03  0.13254101852E+03  0.47000000000E+01 0.  1.
         13    1    6    6    0    0  0.46935131062E+02  0.28599879895E+02  0.12972007525E+03  0.14088348938E+03  0.00000000000E+00 0. -1.
        -14    1    6    6    0    0  0.30226212013E+02 -0.19250366690E+02 -0.21055466710E+01  0.35897546395E+02  0.00000000000E+00 0.  1.
</event>
<event>
12    1  0.8494789E-002  0.2264630E+03  0.7818608E-02  0.1129389E+00
         21   -1    0    0  503  502  0.00000000000E+00  0.00000000000E+00  0.40614410471E+03  0.40614410471E+03  0.00000000000E+00 0. -1.
         21   -1    0    0  501  503 -0.00000000000E+00 -0.00000000000E+00 -0.13482179695E+03  0.13482179695E+03  0.00000000000E+00 0.  1.
          6    2    1    2  501    0  0.14404897969E+03  0.20232637677E+02  0.65087968579E+02  0.23563089855E+03  0.17356845485E+03 0.  0.
         24    2    3    3    0    0  0.64587518908E+02 -0.43226753448E+02 -0.46225193336E+01  0.11224994298E+03  0.80861500125E+02 0.  0.
         -6    2    1    2    0  502 -0.14404897969E+03 -0.20232637677E+02  0.20623433919E+03  0.30533500311E+03  0.17186446198E+03 0.  0.
        -24    2    5    5    0    0 -0.77088581673E+02  0.47616565185E+02  0.15846465493E+03  0.19860524173E+03  0.78249654795E+02 0.  0.
          5    1    3    3  501    0  0.79461460779E+02  0.63459391124E+02  0.69710487912E+02  0.12338095556E+03  0.47000000000E+01 0. -1.
        -13    1    4    4    0    0 -0.14212256784E+02 -0.27564898993E+02  0.47095230565E+01  0.31368638906E+02  0.00000000000E+00 0.  1.
         14    1    4    4    0    0  0.78799775692E+02 -0.15661854454E+02 -0.93320423902E+01  0.80881304077E+02  0.00000000000E+00 0. -1.
         -5    1    5    5    0  502 -0.66960398014E+02 -0.67849202861E+02  0.47769684256E+02  0.10672976138E+03  0.47000000000E+01 0.  1.
         13    1    6    6    0    0  0.63106219883E+01  0.34749391604E+02  0.48278643122E+02  0.59817819657E+02  0.00000000000E+00 0. -1.
        -14    1    6    6    0    0 -0.83399203661E+02  0.12867173580E+02  0.11018601181E+03  0.13878742207E+03  0.00000000000E+00 0.  1.
</event>
<event>
12    1  0.8494789E-002  0.2285344E+03  0.7818608E-02  0.1127900E+00
         21   -1    0    0  501  502  0.00000000000E+00  0.00000000000E+00  0.12688128331E+03  0.12688128331E+03  0.00000000000E+00 0.  1.
         21   -1    0    0  502  503 -0.00000000000E+00 -0.00000000000E+00 -0.40971213653E+03  0.40971213653E+03  0.00000000000E+00 0. -1.
         -6    2    1    2    0  503  0.86676531777E+02  0.12183104230E+03 -0.13397872806E+03  0.26491181361E+03  0.17283618079E+03 0.  0.
        -24    2    3    3    0    0  0.74010998959E+02  0.25638608091E+01 -0.74515936439E+02  0.13096036759E+03  0.78190739529E+02 0.  0.
          6    2    1    2  501    0 -0.86676531777E+02 -0.12183104230E+03 -0.14885212516E+03  0.27168160622E+03  0.17116750849E+03 0.  0.
         24    2    5    5    0    0 -0.11255464848E+03 -0.60261177358E+02 -0.63730583474E+02  0.16338436686E+03  0.79579555617E+02 0.  0.
          5    1    5    5  501    0  0.25878116705E+02 -0.61569864946E+02 -0.85121541687E+02  0.10829723936E+03  0.47000000000E+01 0. -1.
        -13    1    6    6    0    0 -0.20081830924E+02 -0.13755795520E+01  0.17713055135E+02  0.26812767007E+02  0.00000000000E+00 0.  1.
         14    1    6    6    0    0 -0.92472817557E+02 -0.58885597806E+02 -0.81443638608E+02  0.13657159985E+03  0.00000000000E+00 0. -1.
         -5    1    3    3    0  503  0.12665532818E+02  0.11926718149E+03 -0.59462791620E+02  0.13395144602E+03  0.47000000000E+01 0.  1.
         11    1    4    4    0    0 -0.26986141385E+01  0.22342707071E+02 -0.44832391725E+00  0.22509555124E+02  0.00000000000E+00 0. -1.
        -12    1    4    4    0    0  0.76709613097E+02 -0.19778846262E+02 -0.74067612522E+02  0.10845081247E+03  0.00000000000E+00 0.  1.
</event>
<event>
12    1  0.8494789E-002  0.1969410E+03  0.7818608E-02  0.1152541E+00
         21   -1    0    0  501  502  0.00000000000E+00  0.00000000000E+00  0.31746067476E+03  0.31746067476E+03  0.00000000000E+00 0. -1.
         21   -1    0    0  502  503 -0.00000000000E+00 -0.00000000000E+00 -0.14169216746E+03  0.14169216746E+03  0.00000000000E+00 0.  1.
         -6    2    1    2    0  503 -0.26721108319E+02  0.90466532348E+02  0.16361625174E+01  0.19694775833E+03  0.17288010695E+03 0.  0.
        -24    2    3    3    0    0  0.13804969643E+02  0.18855106527E+01  0.49332911898E+02  0.88384273214E+02  0.71999383456E+02 0.  0.
          6    2    1    2  501    0  0.26721108319E+02 -0.90466532348E+02  0.17413234478E+03  0.26220508389E+03  0.17184650539E+03 0.  0.
         24    2    5    5    0    0  0.75483867381E+02 -0.52112546120E+02  0.69937804942E+02  0.14084847277E+03  0.80829846118E+02 0.  0.
          5    1    5    5  501    0 -0.48762759062E+02 -0.38353986227E+02  0.10419453984E+03  0.12135661112E+03  0.47000000000E+01 0. -1.
        -13    1    6    6    0    0  0.18608569186E+02  0.21084274678E+02  0.75649612966E+01  0.29121368877E+02  0.00000000000E+00 0.  1.
         14    1    6    6    0    0  0.56875298194E+02 -0.73196820799E+02  0.62372843646E+02  0.11172710389E+03  0.00000000000E+00 0. -1.
         -5    1    3    3    0  503 -0.40526077961E+02  0.88581021695E+02 -0.47696749380E+02  0.10856348512E+03  0.47000000000E+01 0.  1.
         13    1    4    4    0    0 -0.19262116157E+02 -0.99410142899E+01  0.48648691605E+02  0.53259253457E+02  0.00000000000E+00 0. -1.
        -14    1    4    4    0    0  0.33067085799E+02  0.11826524943E+02  0.68422029252E+00  0.35125019756E+02  0.00000000000E+00 0.  1.
</event>
<event>
12    1  0.8494789E-002  0.2046728E+03  0.7818608E-02  0.1145992E+00
         21   -1    0    0  501  502  0.00000000000E+00  0.00000000000E+00  0.39805743845E+03  0.39805743845E+03  0.00000000000E+00 0. -1.
         21   -1    0    0  502  503 -0.00000000000E+00 -0.00000000000E+00 -0.10780557399E+03  0.10780557399E+03  0.00000000000E+00 0.  1.
         -6    2    1    2    0  503 -0.11229820067E+03  0.44638960787E+01  0.10380449406E+03  0.22949144254E+03  0.17105594691E+03 0.  0.
        -24    2    3    3    0    0 -0.10839307334E+03 -0.10801087725E+02  0.11098028290E+02  0.13533811788E+03  0.79545698033E+02 0.  0.
          6    2    1    2  501    0  0.11229820067E+03 -0.44638960787E+01  0.18644737040E+03  0.27637156989E+03  0.17025807021E+03 0.  0.
         24    2    5    5    0    0  0.68261668998E+02  0.26563766392E+02  0.31401476533E+02  0.11216666386E+03  0.78930466948E+02 0.  0.
          5    1    5    5  501    0  0.44036531675E+02 -0.31027662471E+02  0.15504589387E+03  0.16420490603E+03  0.47000000000E+01 0. -1.
        -13    1    6    6    0    0  0.40071414153E+02  0.50402106612E+02  0.37848059035E+02  0.74689799544E+02  0.00000000000E+00 0.  1.
         14    1    6    6    0    0  0.28190254845E+02 -0.23838340220E+02 -0.64465825020E+01  0.37476864312E+02  0.00000000000E+00 0. -1.
         -5    1    3    3    0  503 -0.39051273335E+01  0.15264983804E+02  0.92706465769E+02  0.94153324664E+02  0.47000000000E+01 0.  1.
         11    1    4    4    0    0 -0.19573152180E+02 -0.17044216516E+02  0.34597294628E+02  0.43250276282E+02  0.00000000000E+00 0. -1.
        -12    1    4    4    0    0 -0.88819921160E+02  0.62431287907E+01 -0.23499266338E+02  0.92087841599E+02  0.00000000000E+00 0.  1.
</event>
<event>
12    1  0.8494789E-002  0.2104075E+03  0.7818608E-02  0.1141447E+00
         21   -1    0    0  501  502  0.00000000000E+00  0.00000000000E+00  0.53323635077E+02  0.53323635077E+02  0.00000000000E+00 0. -1.
         21   -1    0    0  502  503 -0.00000000000E+00 -0.00000000000E+00 -0.87308844111E+03  0.87308844111E+03  0.00000000000E+00 0.  1.
         -6    2    1    2    0  503 -0.11895766775E+03 -0.12150164825E+02 -0.51819245091E+03  0.55928053105E+03  0.17312637872E+03 0.  0.
        -24    2    3    3    0    0 -0.44406812311E+01  0.22171193014E+02 -0.28718168011E+03  0.29912641897E+03  0.80573045656E+02 0.  0.
          6    2    1    2  501    0  0.11895766775E+03  0.12150164825E+02 -0.30157235512E+03  0.36713154514E+03  0.17187534099E+03 0.  0.
         24    2    5    5    0    0  0.11849806366E+03  0.42449892970E+02 -0.30144613032E+03  0.33646575484E+03  0.80595596625E+02 0.  0.
          5    1    5    5  501    0  0.45960408944E+00 -0.30299728146E+02 -0.12622480161E+00  0.30665790293E+02  0.47000000000E+01 0. -1.
        -11    1    6    6    0    0 -0.20592800614E+01  0.20546182126E+02 -0.16986062599E+02  0.26737848772E+02  0.00000000000E+00 0.  1.
         12    1    6    6    0    0  0.12055734372E+03  0.21903710844E+02 -0.28446006772E+03  0.30972790607E+03  0.00000000000E+00 0. -1.
         -5    1    3    3    0  503 -0.11451698652E+03 -0.34321357838E+02 -0.23101077081E+03  0.26015411208E+03  0.47000000000E+01 0.  1.
         13    1    4    4    0    0  0.19556909216E+01 -0.26956590250E+02 -0.50116837550E+02  0.56940143053E+02  0.00000000000E+00 0. -1.
        -14    1    4    4    0    0 -0.63963721527E+01  0.49127783264E+02 -0.23706484256E+03  0.24218627592E+03  0.00000000000E+00 0.  1.
</event>
<event>
12    1  0.8494789E-002  0.2290430E+03  0.7818608E-02  0.1127852E+00
         21   -1    0    0  501  502  0.00000000000E+00  0.00000000000E+00  0.50762347485E+03  0.50762347485E+03  0.00000000000E+00 0. -1.
         21   -1    0    0  502  503 -0.00000000000E+00 -0.00000000000E+00 -0.11669386919E+03  0.11669386919E+03  0.00000000000E+00 0.  1.
         -6    2    1    2    0  503 -0.11855595797E+03 -0.97874646851E+02  0.83535489307E+02  0.24097438963E+03  0.16569706340E+03 0.  0.
        -24    2    3    3    0    0 -0.16626806509E+02 -0.87578380905E+02  0.22379943547E+02  0.12156896352E+03  0.79572152923E+02 0.  0.
          6    2    1    2  501    0  0.11855595797E+03  0.97874646851E+02  0.30739411635E+03  0.38334295440E+03  0.16978137784E+03 0.  0.
         24    2    5    5    0    0  0.85816912370E+02  0.28925730686E+02  0.89785271020E+02  0.15268845583E+03  0.83971002780E+02 0.  0.
          5    1    5    5  501    0  0.32739045596E+02  0.68948916165E+02  0.21760884533E+03  0.23065449857E+03  0.47000000000E+01 0. -1.
        -13    1    6    6    0    0  0.57826597655E+02  0.58738011101E+02  0.63863632871E+02  0.10427191831E+03  0.00000000000E+00 0.  1.
         14    1    6    6    0    0  0.27990314714E+02 -0.29812280415E+02  0.25921638148E+02  0.48416537522E+02  0.00000000000E+00 0. -1.
         -5    1    3    3    0  503 -0.10192915146E+03 -0.10296265946E+02  0.61155545760E+02  0.11940542612E+03  0.47000000000E+01 0.  1.
         13    1    4    4    0    0  0.10106203422E+02 -0.20396542573E+02  0.41008461341E+02  0.46902539357E+02  0.00000000000E+00 0. -1.
        -14    1    4    4    0    0 -0.26733009931E+02 -0.67181838332E+02 -0.18628517794E+02  0.74666424160E+02  0.00000000000E+00 0.  1.
</event>
<event>
12    1  0.8494789E-002  0.2636619E+03  0.7818608E-02  0.1106315E+00
         21   -1    0    0  503  502  0.00000000000E+00  0.00000000000E+00  0.60275139444E+03  0.60275139444E+03  0.00000000000E+00 0. -1.
         21   -1    0    0  501  503 -0.00000000000E+00 -0.00000000000E+00 -0.12128322243E+03  0.12128322243E+03  0.00000000000E+00 0. -1.
          6    2    1    2  501    0 -0.12214790329E+03 -0.14180083179E+03  0.13373748662E+03  0.28764691619E+03  0.17270624451E+03 0.  0.
         24    2    3    3    0    0 -0.61365458499E+02 -0.10770257945E+03  0.13160655613E+02  0.14829822197E+03  0.80334268309E+02 0.  0.
         -6    2    1    2    0  502  0.12214790329E+03  0.14180083179E+03  0.34773068539E+03  0.43638770068E+03  0.18571486091E+03 0.  0.
        -24    2    5    5    0    0  0.64126224785E+02  0.10625983926E+03  0.90372086602E+02  0.17014492482E+03  0.73340679425E+02 0.  0.
          5    1    3    3  501    0 -0.60782444790E+02 -0.34098252336E+02  0.12057683101E+03  0.13934869423E+03  0.47000000000E+01 0. -1.
        -11    1    4    4    0    0  0.18568284192E+02 -0.34961281331E+02  0.52316977627E+01  0.39930477477E+02  0.00000000000E+00 0.  1.
         12    1    4    4    0    0 -0.79933742691E+02 -0.72741298121E+02  0.79289578499E+01  0.10836774449E+03  0.00000000000E+00 0. -1.
         -5    1    5    5    0  502  0.58021678504E+02  0.35540992527E+02  0.25735859879E+03  0.26624277586E+03  0.47000000000E+01 0.  1.
         13    1    6    6    0    0  0.70583465914E+02  0.11238146159E+03  0.91472289752E+02  0.16117939807E+03  0.00000000000E+00 0. -1.
        -14    1    6    6    0    0 -0.64572411286E+01 -0.61216223258E+01 -0.11002031500E+01  0.89655267478E+01  0.00000000000E+00 0.  1.
</event>
<event>
12    1  0.8494789E-002  0.1824302E+03  0.7818608E-02  0.1165496E+00
         21   -1    0    0  501  502  0.00000000000E+00  0.00000000000E+00  0.11049853269E+04  0.11049853269E+04  0.00000000000E+00 0.  1.
         21   -1    0    0  502  503 -0.00000000000E+00 -0.00000000000E+00 -0.42276593768E+02  0.42276593768E+02  0.00000000000E+00 0.  1.
         -6    2    1    2    0  503  0.50852909413E+02  0.28273989802E+02  0.22342313670E+03  0.28837830095E+03  0.17279672899E+03 0.  0.
        -24    2    3    3    0    0  0.22758411860E+02  0.23383115037E+02  0.24016208729E+03  0.25497914054E+03  0.79194813978E+02 0.  0.
          6    2    1    2  501    0 -0.50852909413E+02 -0.28273989802E+02  0.83928559646E+03  0.85888361975E+03  0.17290264010E+03 0.  0.
         24    2    5    5    0    0  0.24908258013E+02 -0.55698508422E+02  0.57408828012E+03  0.58167690031E+03  0.71048700335E+02 0.  0.
          5    1    5    5  501    0 -0.75761167425E+02  0.27424518620E+02  0.26519731634E+03  0.27720671944E+03  0.47000000000E+01 0. -1.
        -13    1    6    6    0    0 -0.73323472910E+01 -0.57749241147E+02  0.29210442261E+03  0.29784850491E+03  0.00000000000E+00 0.  1.
         14    1    6    6    0    0  0.32240605304E+02  0.20507327253E+01  0.28198385752E+03  0.28382839540E+03  0.00000000000E+00 0. -1.
         -5    1    3    3    0  503  0.28094497553E+02  0.48908747656E+01 -0.16738950591E+02  0.33399160403E+02  0.47000000000E+01 0.  1.
         13    1    4    4    0    0 -0.29489866367E+02  0.13019411287E+02  0.83305173537E+02  0.89324740283E+02  0.00000000000E+00 0. -1.
        -14    1    4    4    0    0  0.52248278227E+02  0.10363703750E+02  0.15685691376E+03  0.16565440026E+03  0.00000000000E+00 0.  1.
</event>
<event>
12    1  0.8494789E-002  0.2536796E+03  0.7818608E-02  0.1111026E+00
         21   -1    0    0  503  502  0.00000000000E+00  0.00000000000E+00  0.10312124756E+04  0.10312124756E+04  0.00000000000E+00 0.  1.
         21   -1    0    0  501  503 -0.00000000000E+00 -0.00000000000E+00 -0.11357937630E+03  0.11357937630E+03  0.00000000000E+00 0.  1.
          6    2    1    2  501    0 -0.16368659871E+03  0.89576755089E+02  0.74381154836E+02  0.26420841193E+03  0.17162817685E+03 0.  0.
         24    2    3    3    0    0 -0.18527209281E+03  0.83252413962E+02  0.36129121785E+02  0.21958511220E+03  0.75203691779E+02 0.  0.
         -6    2    1    2    0  502  0.16368659871E+03 -0.89576755089E+02  0.84325194448E+03  0.88058343999E+03  0.17186056923E+03 0.  0.
        -24    2    5    5    0    0  0.72732525121E+02 -0.96254490808E+02  0.34698125307E+03  0.37598070039E+03  0.80065909539E+02 0.  0.
          5    1    3    3  501    0  0.21585494094E+02  0.63243411276E+01  0.38252033051E+02  0.44623299727E+02  0.47000000000E+01 0. -1.
        -11    1    4    4    0    0 -0.11064082101E+03  0.74399393692E+02 -0.59321616768E+01  0.13346104899E+03  0.00000000000E+00 0.  1.
         12    1    4    4    0    0 -0.74631271796E+02  0.88530202695E+01  0.42061283462E+02  0.86124063213E+02  0.00000000000E+00 0. -1.
         -5    1    5    5    0  502  0.90954073590E+02  0.66777357186E+01  0.49627069141E+03  0.50460273960E+03  0.47000000000E+01 0.  1.
         13    1    6    6    0    0  0.80440208411E+02 -0.56108620337E+02  0.19070473868E+03  0.21444603461E+03  0.00000000000E+00 0. -1.
        -14    1    6    6    0    0 -0.77076832895E+01 -0.40145870471E+02  0.15627651439E+03  0.16153466578E+03  0.00000000000E+00 0.  1.
</event>
<event>
12    1  0.8494789E-002  0.1813135E+03  0.7818608E-02  0.1166730E+00
         21   -1    0    0  501  502  0.00000000000E+00  0.00000000000E+00  0.24310577928E+04  0.24310577928E+04  0.00000000000E+00 0. -1.
         21   -1    0    0  502  503 -0.00000000000E+00 -0.00000000000E+00 -0.65010685160E+02  0.65010685160E+02  0.00000000000E+00 0. -1.
         -6    2    1    2    0  503  0.29885531649E+02 -0.46113815072E+02  0.71163122578E+02  0.19403305426E+03  0.17194477947E+03 0.  0.
        -24    2    3    3    0    0  0.55746205846E+02  0.96839524624E+01 -0.29673783577E+01  0.97598690568E+02  0.79468740173E+02 0.  0.
          6    2    1    2  501    0 -0.29885531649E+02  0.46113815072E+02  0.22948839851E+04  0.23020354237E+04  0.17278587365E+03 0.  0.
         24    2    5    5    0    0 -0.51694293814E+02  0.63967952919E+00  0.20384086369E+04  0.20406062491E+04  0.79318243359E+02 0.  0.
          5    1    5    5  501    0  0.21808762165E+02  0.45474135543E+02  0.25647534822E+03  0.26142917464E+03  0.47000000000E+01 0. -1.
        -13    1    6    6    0    0 -0.32807175437E+02 -0.24865274671E+02  0.44958841692E+03  0.45146908783E+03  0.00000000000E+00 0.  1.
         14    1    6    6    0    0 -0.18887118377E+02  0.25504954200E+02  0.15888202200E+04  0.15891371613E+04  0.00000000000E+00 0. -1.
         -5    1    3    3    0  503 -0.25860674198E+02 -0.55797767535E+02  0.74130500936E+02  0.96434363693E+02  0.47000000000E+01 0.  1.
         11    1    4    4    0    0  0.27423144650E+02  0.43899520374E+02 -0.97357887986E+01  0.52668608630E+02  0.00000000000E+00 0. -1.
        -12    1    4    4    0    0  0.28323061197E+02 -0.34215567911E+02  0.67684104409E+01  0.44930081938E+02  0.00000000000E+00 0.  1.
</event>
<event>
12    1  0.8494789E-002  0.2255604E+03  0.7818608E-02  0.1129888E+00
         21   -1    0    0  501  502  0.00000000000E+00  0.00000000000E+00  0.10758758668E+04  0.10758758668E+04  0.00000000000E+00 0.  1.
         21   -1    0    0  502  503 -0.00000000000E+00 -0.00000000000E+00 -0.51728444927E+02  0.51728444927E+02  0.00000000000E+00 0. -1.
         -6    2    1    2    0  503  0.94799560832E+02  0.11028896872E+03  0.34463399702E+03  0.41163225114E+03  0.17180775571E+03 0.  0.
        -24    2    3    3    0    0 -0.30778385723E+01  0.36052540348E+02  0.80643906726E+02  0.12042117583E+03  0.81783623911E+02 0.  0.
          6    2    1    2  501    0 -0.94799560832E+02 -0.11028896872E+03  0.67951342490E+03  0.71597206063E+03  0.17241485907E+03 0.  0.
         24    2    5    5    0    0 -0.25887372076E+02 -0.11960597740E+03  0.34632046154E+03  0.37556739374E+03  0.78340661819E+02 0.  0.
          5    1    5    5  501    0 -0.68912188756E+02  0.93170086812E+01  0.33319296336E+03  0.34040466689E+03  0.47000000000E+01 0. -1.
        -11    1    6    6    0    0 -0.86097821388E+01 -0.12419484263E+03  0.32315922933E+03  0.34630965159E+03  0.00000000000E+00 0.  1.
         12    1    6    6    0    0 -0.17277589937E+02  0.45888652238E+01  0.23161232212E+02  0.29257742149E+02  0.00000000000E+00 0. -1.
         -5    1    3    3    0  503  0.97877399404E+02  0.74236428376E+02  0.26399009029E+03  0.29121107531E+03  0.47000000000E+01 0.  1.
         13    1    4    4    0    0  0.11488931425E+02 -0.10832781406E+02 -0.90276007170E+01  0.18189070151E+02  0.00000000000E+00 0. -1.
        -14    1    4    4    0    0 -0.14566769997E+02  0.46885321754E+02  0.89671507443E+02  0.10223210568E+03  0.00000000000E+00 0.  1.
</event>
<event>
12    1  0.8494789E-002  0.2899952E+03  0.7818608E-02  0.1091443E+00
         21   -1    0    0  503  502  0.00000000000E+00  0.00000000000E+00  0.17006109209E+04  0.17006109209E+04  0.00000000000E+00 0.  1.
         21   -1    0    0  501  503 -0.00000000000E+00 -0.00000000000E+00 -0.27718913604E+03  0.27718913604E+03  0.00000000000E+00 0. -1.
          6    2    1    2  501    0 -0.11497610924E+03  0.20286959193E+03 -0.18914706640E+03  0.33936313775E+03  0.15816178270E+03 0.  0.
         24    2    3    3    0    0 -0.10526620929E+03  0.19889961548E+03 -0.11895330848E+03  0.26823440571E+03  0.84603634390E+02 0.  0.
         -6    2    1    2    0  502  0.11497610924E+03 -0.20286959193E+03  0.16125688513E+04  0.16384369192E+04  0.17239971325E+03 0.  0.
        -24    2    5    5    0    0  0.68008183354E+02 -0.12749707959E+03  0.65093031619E+03  0.67269483986E+03  0.89036243935E+02 0.  0.
          5    1    3    3  501    0 -0.97098999544E+01  0.39699764481E+01 -0.70193757922E+02  0.71128732038E+02  0.47000000000E+01 0. -1.
        -11    1    4    4    0    0 -0.45774606432E+01  0.89594103513E+02 -0.27916775957E+02  0.93954259669E+02  0.00000000000E+00 0.  1.
         12    1    4    4    0    0 -0.10068874865E+03  0.10930551197E+03 -0.91036532518E+02  0.17428014604E+03  0.00000000000E+00 0. -1.
         -5    1    5    5    0  502  0.46967925889E+02 -0.75372512336E+02  0.96163853506E+03  0.96574207933E+03  0.47000000000E+01 0.  1.
         13    1    6    6    0    0 -0.50649595974E+01  0.11454695597E+02  0.57566202166E+02  0.58912914533E+02  0.00000000000E+00 0. -1.
        -14    1    6    6    0    0  0.73073142951E+02 -0.13895177519E+03  0.59336411402E+03  0.61378192533E+03  0.00000000000E+00 0.  1.
</event>
<event>
12    1  0.8494789E-002  0.1965182E+03  0.7818608E-02  0.1153150E+00
         21   -1    0    0  501  502  0.00000000000E+00  0.00000000000E+00  0.74621485869E+02  0.74621485869E+02  0.00000000000E+00 0. -1.
         21   -1    0    0  502  503 -0.00000000000E+00 -0.00000000000E+00 -0.72893626867E+03  0.72893626867E+03  0.00000000000E+00 0. -1.
         -6    2    1    2    0  503 -0.90905543433E+02  0.81759268690E+01 -0.54742192277E+03  0.58162717862E+03  0.17403663342E+03 0.  0.
        -24    2    3    3    0    0 -0.11616515119E+03 -0.23855328636E+02 -0.36038102189E+03  0.39013191049E+03  0.90912087150E+02 0.  0.
          6    2    1    2  501    0  0.90905543433E+02 -0.81759268690E+01 -0.10689286003E+03  0.22193057592E+03  0.17174525727E+03 0.  0.
         24    2    5    5    0    0  0.11054172874E+03 -0.39509724527E+02 -0.32474991976E+02  0.13869899697E+03  0.66349789224E+02 0.  0.
          5    1    5    5  501    0 -0.19636185310E+02  0.31333797658E+02 -0.74417868058E+02  0.83231578956E+02  0.47000000000E+01 0. -1.
        -13    1    6    6    0    0  0.33853813160E+02 -0.15373441212E+02 -0.43861647016E+02  0.57500151644E+02  0.00000000000E+00 0.  1.
         14    1    6    6    0    0  0.76687915583E+02 -0.24136283315E+02  0.11386655040E+02  0.81198845323E+02  0.00000000000E+00 0. -1.
         -5    1    3    3    0  503  0.25259607755E+02  0.32031255505E+02 -0.18704090088E+03  0.19149526813E+03  0.47000000000E+01 0.  1.
         11    1    4    4    0    0  0.11297546801E+02  0.10392038006E+02 -0.61854866080E+02  0.63731102889E+02  0.00000000000E+00 0. -1.
        -12    1    4    4    0    0 -0.12746269799E+03 -0.34247366642E+02 -0.29852615581E+03  0.32640080760E+03  0.00000000000E+00 0.  1.
</event>
<event>
12    1  0.8494789E-002  0.2647044E+03  0.7818608E-02  0.1104367E+00
         21   -1    0    0  503  502  0.00000000000E+00  0.00000000000E+00  0.40604516025E+03  0.40604516025E+03  0.00000000000E+00 0.  1.
         21   -1    0    0  501  503 -0.00000000000E+00 -0.00000000000E+00 -0.17884173057E+03  0.17884173057E+03  0.00000000000E+00 0. -1.
          6    2    1    2  501    0 -0.17910743646E+03 -0.91844602094E+02  0.16875562076E+03  0.31392179127E+03  0.17191139221E+03 0.  0.
         24    2    3    3    0    0 -0.77728803944E+02 -0.88864764632E+02  0.15836190995E+03  0.21185991893E+03  0.76599069000E+02 0.  0.
         -6    2    1    2    0  502  0.17910743646E+03  0.91844602094E+02  0.58447808923E+02  0.27096509955E+03  0.17172953759E+03 0.  0.
        -24    2    5    5    0    0  0.93651789647E+02  0.42957191205E+02 -0.35050224251E+02  0.13510996081E+03  0.80063757781E+02 0.  0.
          5    1    3    3  501    0 -0.10137863251E+03 -0.29798374627E+01  0.10393710808E+02  0.10206187234E+03  0.47000000000E+01 0. -1.
        -11    1    4    4    0    0 -0.77200635385E+02 -0.31925477316E+02  0.87909358234E+02  0.12127336670E+03  0.00000000000E+00 0.  1.
         12    1    4    4    0    0 -0.52816855850E+00 -0.56939287316E+02  0.70452551716E+02  0.90586552233E+02  0.00000000000E+00 0. -1.
         -5    1    5    5    0  502  0.85455646809E+02  0.48887410890E+02  0.93498033174E+02  0.13585513874E+03  0.47000000000E+01 0.  1.
         11    1    6    6    0    0  0.10035867604E+03  0.50029309919E+02 -0.15419207648E+02  0.11319252481E+03  0.00000000000E+00 0. -1.
        -12    1    6    6    0    0 -0.67068863926E+01 -0.70721187142E+01 -0.19631016603E+02  0.21917436006E+02  0.00000000000E+00 0.  1.
</event>
<event>
12    1  0.8494789E-002  0.2337980E+03  0.7818608E-02  0.1124163E+00
         21   -1    0    0  501  502  0.00000000000E+00  0.00000000000E+00  0.29905220910E+03  0.29905220910E+03  0.00000000000E+00 0.  1.
         21   -1    0    0  502  503 -0.00000000000E+00 -0.00000000000E+00 -0.28040041500E+03  0.28040041500E+03  0.00000000000E+00 0.  1.
         -6    2    1    2    0  503 -0.14552078853E+03  0.57938623236E+02 -0.16227224187E+03  0.28459403984E+03  0.17357506466E+03 0.  0.
        -24    2    3    3    0    0 -0.54540507180E+02 -0.88133096920E+01 -0.13838428947E+03  0.16915593342E+03  0.80069825069E+02 0.  0.
          6    2    1    2  501    0  0.14552078853E+03 -0.57938623236E+02  0.18092403597E+03  0.29485858426E+03  0.17226402401E+03 0.  0.
         24    2    5    5    0    0  0.16841686574E+03 -0.19096149806E+02  0.13961795721E+03  0.23352955169E+03  0.79460518090E+02 0.  0.
          5    1    5    5  501    0 -0.22896077214E+02 -0.38842473429E+02  0.41306078753E+02  0.61329032569E+02  0.47000000000E+01 0. -1.
        -11    1    6    6    0    0  0.82088550174E+02 -0.22654088923E+02  0.11610360373E+03  0.14398536250E+03  0.00000000000E+00 0.  1.
         12    1    6    6    0    0  0.86328315566E+02  0.35579391169E+01  0.23514353485E+02  0.89544189197E+02  0.00000000000E+00 0. -1.
         -5    1    3    3    0  503 -0.90980281345E+02  0.66751932928E+02 -0.23887952400E+02  0.11543810642E+03  0.47000000000E+01 0.  1.
         13    1    4    4    0    0 -0.10032721398E+02 -0.27980342188E+02 -0.90974854722E+01  0.31085676598E+02  0.00000000000E+00 0. -1.
        -14    1    4    4    0    0 -0.44507785782E+02  0.19167032496E+02 -0.12928680400E+03  0.13807025682E+03  0.00000000000E+00 0.  1.
</event>
<event>
12    1  0.8494789E-002  0.2873846E+03  0.7818608E-02  0.1091806E+00
         21   -1    0    0  503  502  0.00000000000E+00  0.00000000000E+00  0.10487749611E+03  0.10487749611E+03  0.00000000000E+00 0. -1.
         21   -1    0    0  501  503 -0.00000000000E+00 -0.00000000000E+00 -0.83285153586E+03  0.83285153586E+03  0.00000000000E+00 0. -1.
          6    2    1    2  501    0 -0.22079017831E+03 -0.66069085312E+02 -0.47584601618E+03  0.55589508564E+03  0.17168718139E+03 0.  0.
         24    2    3    3    0    0 -0.23687955628E+03 -0.51475673405E+02 -0.37334959618E+03  0.45101686165E+03  0.72557696957E+02 0.  0.
         -6    2    1    2    0  502  0.22079017831E+03  0.66069085312E+02 -0.25212802358E+03  0.38183394633E+03  0.17063175385E+03 0.  0.
        -24    2    5    5    0    0  0.21026908883E+03  0.34553946578E+02 -0.14589521726E+03  0.27042749933E+03  0.80240594688E+02 0.  0.
          5    1    3    3  501    0  0.16089377971E+02 -0.14593411906E+02 -0.10249642000E+03  0.10487822399E+03  0.47000000000E+01 0. -1.
        -13    1    4    4    0    0 -0.47280858150E+02 -0.16248148641E+02 -0.33230001146E+02  0.60030949166E+02  0.00000000000E+00 0.  1.
         14    1    4    4    0    0 -0.18959869813E+03 -0.35227524764E+02 -0.34011959503E+03  0.39098591248E+03  0.00000000000E+00 0. -1.
         -5    1    5    5    0  502  0.10521089482E+02  0.31515138733E+02 -0.10623280632E+03  0.11140644700E+03  0.47000000000E+01 0.  1.
         13    1    6    6    0    0  0.13686668215E+03  0.53552176626E+02 -0.12176653920E+03  0.19085967194E+03  0.00000000000E+00 0. -1.
        -14    1    6    6    0    0  0.73402406682E+02 -0.18998230048E+02 -0.24128678056E+02  0.79567827395E+02  0.00000000000E+00 0.  1.
</event>
<event>
12    1  0.8494789E-002  0.1806650E+03  0.7818608E-02  0.1167193E+00
         21   -1    0    0  501  502  0.00000000000E+00  0.00000000000E+00  0.14978186879E+04  0.14978186879E+04  0.00000000000E+00 0. -1.
         21   -1    0    0  502  503 -0.00000000000E+00 -0.00000000000E+00 -0.96190969672E+02  0.96190969672E+02  0.00000000000E+00 0. -1.
         -6    2    1    2    0  503 -0.54120135361E+02 -0.12169811658E+02 -0.25737086039E+00  0.18053109931E+03  0.17179731724E+03 0.  0.
        -24    2    3    3    0    0 -0.89730452809E+02  0.13757716298E+02  0.31924261773E+02  0.12577638359E+03  0.80992044418E+02 0.  0.
          6    2    1    2  501    0  0.54120135361E+02  0.12169811658E+02  0.14018850891E+04  0.14134785583E+04  0.17193818164E+03 0.  0.
         24    2    5    5    0    0 -0.31131782206E+02 -0.18298778797E+02  0.78075898415E+03  0.78577165797E+03  0.80922641817E+02 0.  0.
          5    1    5    5  501    0  0.85251917568E+02  0.30468590454E+02  0.62112610493E+03  0.62770690030E+03  0.47000000000E+01 0. -1.
        -11    1    6    6    0    0 -0.17800914594E+02  0.28933552036E+02  0.46304982899E+03  0.46429426781E+03  0.00000000000E+00 0.  1.
         12    1    6    6    0    0 -0.13330867613E+02 -0.47232330832E+02  0.31770915516E+03  0.32147739015E+03  0.00000000000E+00 0. -1.
         -5    1    3    3    0  503  0.35610317448E+02 -0.25927527956E+02 -0.32181632633E+02  0.54754715720E+02  0.47000000000E+01 0.  1.
         13    1    4    4    0    0 -0.12374568183E+02  0.38101471290E+02  0.15967181292E+02  0.43125432527E+02  0.00000000000E+00 0. -1.
        -14    1    4    4    0    0 -0.77355884626E+02 -0.24343754992E+02  0.15957080481E+02  0.82650951059E+02  0.00000000000E+00 0.  1.
</event>
<event>
12    1  0.8494789E-002  0.2184695E+03  0.7818608E-02  0.1135031E+00
         21   -1    0    0  501  502  0.00000000000E+00  0.00000000000E+00  0.79815284557E+03  0.79815284557E+03  0.00000000000E+00 0.  1.
         21   -1    0    0  502  503 -0.00000000000E+00 -0.00000000000E+00 -0.60431091097E+02  0.60431091097E+02  0.00000000000E+00 0. -1.
         -6    2    1    2    0  503  0.89444459477E+02 -0.99418181828E+02  0.32486102475E+03  0.39148898513E+03  0.17275605305E+03 0.  0.
        -24    2    3    3    0    0  0.46184518251E+02 -0.12171902337E+03  0.30010091344E+03  0.33668111014E+03  0.79656018636E+02 0.  0.
          6    2    1    2  501    0 -0.89444459477E+02  0.99418181828E+02  0.41286072972E+03  0.46709495153E+03  0.17274091987E+03 0.  0.
         24    2    5    5    0    0 -0.50545581825E+02  0.88155896266E+02  0.13781726893E+03  0.18904647180E+03  0.80116483928E+02 0.  0.
          5    1    5    5  501    0 -0.38898877651E+02  0.11262285561E+02  0.27504346079E+03  0.27804847973E+03  0.47000000000E+01 0. -1.
        -11    1    6    6    0    0  0.38466227480E+01  0.23628320702E+02  0.87665996354E+02  0.90875854673E+02  0.00000000000E+00 0.  1.
         12    1    6    6    0    0 -0.54392204573E+02  0.64527575564E+02  0.50151272574E+02  0.98170617128E+02  0.00000000000E+00 0. -1.
         -5    1    3    3    0  503  0.43259941226E+02  0.22300841543E+02  0.24760111318E+02  0.54807874989E+02  0.47000000000E+01 0.  1.
         11    1    4    4    0    0  0.37614614519E+02 -0.14060768790E+02  0.49088270643E+02  0.63420996200E+02  0.00000000000E+00 0. -1.
        -12    1    4    4    0    0  0.85699037324E+01 -0.10765825458E+03  0.25101264279E+03  0.27326011394E+03  0.00000000000E+00 0.  1.
</event>
<event>
12    1  0.8494789E-002  0.2206757E+03  0.7818608E-02  0.1133823E+00
         21   -1    0    0  503  502  0.00000000000E+00  0.00000000000E+00  0.51617434485E+03  0.51617434485E+03  0.00000000000E+00 0. -1.
         21   -1    0    0  501  503 -0.00000000000E+00 -0.00000000000E+00 -0.15965158995E+03  0.15965158995E+03  0.00000000000E+00 0. -1.
          6    2    1    2  501    0  0.12917507647E+03 -0.32485660675E+02 -0.38964458611E+02  0.22408923611E+03  0.17594384949E+03 0.  0.
         24    2    3    3    0    0  0.51614182196E+02  0.10267249745E+02  0.40280809351E+02  0.10515477447E+03  0.81642775379E+02 0.  0.
         -6    2    1    2    0  502 -0.12917507647E+03  0.32485660675E+02  0.39548721352E+03  0.45173669869E+03  0.17295777044E+03 0.  0.
        -24    2    5    5    0    0 -0.74157972406E+02  0.70933817103E+01  0.36898076668E+03  0.38543186256E+03  0.82832321942E+02 0.  0.
          5    1    3    3  501    0  0.77560894278E+02 -0.42752910419E+02 -0.79245267962E+02  0.11893446164E+03  0.47000000000E+01 0. -1.
        -13    1    4    4    0    0  0.61155468058E+02 -0.13335905740E+02  0.47632872071E+02  0.78655757304E+02  0.00000000000E+00 0.  1.
         14    1    4    4    0    0 -0.95412858626E+01  0.23603155484E+02 -0.73520627198E+01  0.26499017170E+02  0.00000000000E+00 0. -1.
         -5    1    5    5    0  502 -0.55017104067E+02  0.25392278964E+02  0.26506446838E+02  0.66304836135E+02  0.47000000000E+01 0.  1.
         11    1    6    6    0    0 -0.16445132209E+02  0.26798657057E+02  0.24764056010E+03  0.24962863899E+03  0.00000000000E+00 0. -1.
        -12    1    6    6    0    0 -0.57712840197E+02 -0.19705275347E+02  0.12134020657E+03  0.13580322357E+03  0.00000000000E+00 0.  1.
</event>
<event>
12    1  0.8494789E-002  0.2408966E+03  0.7818608E-02  0.1120466E+00
         21   -1    0    0  503  502  0.00000000000E+00  0.00000000000E+00  0.48318887400E+02  0.48318887400E+02  0.00000000000E+00 0. -1.
         21   -1    0    0  501  503 -0.00000000000E+00 -0.00000000000E+00 -0.11949758126E+04  0.11949758126E+04  0.00000000000E+00 0. -1.
          6    2    1    2  501    0 -0.11810820005E+03  0.12123398625E+03 -0.46403805755E+03  0.51941648135E+03  0.16067027074E+03 0.  0.
         24    2    3    3    0    0 -0.58029640772E+02  0.11169581166E+03 -0.41562813907E+03  0.44153182133E+03  0.79750897843E+02 0.  0.
         -6    2    1    2    0  502  0.11810820005E+03 -0.12123398625E+03 -0.68261886763E+03  0.72387821863E+03  0.17141741633E+03 0.  0.
        -24    2    5    5    0    0  0.39086803685E+02 -0.93993805374E+02 -0.22921607233E+03  0.26281141943E+03  0.78531654116E+02 0.  0.
          5    1    3    3  501    0 -0.60078559277E+02  0.95381745934E+01 -0.48409918475E+02  0.77884660018E+02  0.47000000000E+01 0. -1.
        -13    1    4    4    0    0 -0.86786260570E+01  0.27828299589E+02 -0.23097302841E+03  0.23280522473E+03  0.00000000000E+00 0.  1.
         14    1    4    4    0    0 -0.49351014715E+02  0.83867512070E+02 -0.18465511066E+03  0.20872659660E+03  0.00000000000E+00 0. -1.
         -5    1    5    5    0  502  0.79021396364E+02 -0.27240180878E+02 -0.45340279531E+03  0.46106679920E+03  0.47000000000E+01 0.  1.
         13    1    6    6    0    0  0.62327318039E+02 -0.79754566761E+02 -0.18457298968E+03  0.21050575767E+03  0.00000000000E+00 0. -1.
        -14    1    6    6    0    0 -0.23240514354E+02 -0.14239238613E+02 -0.44643082649E+02  0.52305661760E+02  0.00000000000E+00 0.  1.
</event>
<event>
12    1  0.8494789E-002  0.1984715E+03  0.7818608E-02  0.1151040E+00
         21   -1    0    0  501  502  0.00000000000E+00  0.00000000000E+00  0.31516638126E+03  0.31516638126E+03  0.00000000000E+00 0.  1.
         21   -1    0    0  502  503 -0.00000000000E+00 -0.00000000000E+00 -0.25600021941E+03  0.25600021941E+03  0.00000000000E+00 0.  1.
         -6    2    1    2    0  503 -0.50232112161E+02  0.84943487116E+02 -0.17473187013E+03  0.26441065393E+03  0.17217173512E+03 0.  0.
        -24    2    3    3    0    0  0.62939097358E+01 -0.58935698617E+01 -0.33447662660E+02  0.87125913038E+02  0.79986443350E+02 0.  0.
          6    2    1    2  501    0  0.50232112161E+02 -0.84943487116E+02  0.23389803198E+03  0.30675594674E+03  0.17219831707E+03 0.  0.
         24    2    5    5    0    0  0.70910137263E+02 -0.10042736322E+03  0.23857262214E+03  0.28008624605E+03  0.80109339920E+02 0.  0.
          5    1    5    5  501    0 -0.20678025103E+02  0.15483876108E+02 -0.46745901620E+01  0.26669700685E+02  0.47000000000E+01 0. -1.
        -11    1    6    6    0    0  0.77878434322E+02 -0.80812185382E+02  0.14046477924E+03  0.17979436600E+03  0.00000000000E+00 0.  1.
         12    1    6    6    0    0 -0.69682970591E+01 -0.19615177842E+02  0.98107842904E+02  0.10029188005E+03  0.00000000000E+00 0. -1.
         -5    1    3    3    0  503 -0.56526021897E+02  0.90837056978E+02 -0.14128420747E+03  0.17728474089E+03  0.47000000000E+01 0.  1.
         11    1    4    4    0    0 -0.24487370739E+02  0.25825584811E+02 -0.94070704463E+01  0.36811480966E+02  0.00000000000E+00 0. -1.
        -12    1    4    4    0    0  0.30781280474E+02 -0.31719154672E+02 -0.24040592214E+02  0.50314432072E+02  0.00000000000E+00 0.  1.
</event>
<event>
12    1  0.8494789E-002  0.2520623E+03  0.7818608E-02  0.1112304E+00
         21   -1    0    0  501  502  0.00000000000E+00  0.00000000000E+00  0.11884393556E+03  0.11884393556E+03  0.00000000000E+00 0.  1.
         21   -1    0    0  502  503 -0.00000000000E+00 -0.00000000000E+00 -0.53172690843E+03  0.53172690843E+03  0.00000000000E+00 0.  1.
         -6    2    1    2    0  503 -0.17004377618E+03 -0.64037141544E+02 -0.22202905102E+03  0.33590518888E+03  0.17469904150E+03 0.  0.
        -24    2    3    3    0    0 -0.11047742040E+03  0.30305462361E+02 -0.11149147457E+03  0.17877682269E+03  0.80044499885E+02 0.  0.
          6    2    1    2  501    0  0.17004377618E+03  0.64037141544E+02 -0.19085392184E+03  0.31466565511E+03  0.17196980464E+03 0.  0.
         24    2    5    5    0    0  0.16889972793E+03  0.10085896629E+03 -0.15416603331E+03  0.26246175881E+03  0.80120907583E+02 0.  0.
          5    1    5    5  501    0  0.11440482540E+01 -0.36821824751E+02 -0.36687888532E+02  0.52203896304E+02  0.47000000000E+01 0. -1.
        -13    1    6    6    0    0  0.14257695612E+03  0.81553173880E+02 -0.15999958036E+03  0.22930105604E+03  0.00000000000E+00 0.  1.
         14    1    6    6    0    0  0.26322771808E+02  0.19305792414E+02  0.58335470521E+01  0.33160702762E+02  0.00000000000E+00 0. -1.
         -5    1    3    3    0  503 -0.59566355784E+02 -0.94342603904E+02 -0.11053757645E+03  0.15712836619E+03  0.47000000000E+01 0.  1.
         11    1    4    4    0    0  0.10994425717E+02  0.59824375814E+01 -0.24146881983E+02  0.27198140852E+02  0.00000000000E+00 0. -1.
        -12    1    4    4    0    0 -0.12147184612E+03  0.24323024779E+02 -0.87344592588E+02  0.15157868184E+03  0.00000000000E+00 0.  1.
</event>
<event>
12    1  0.8494789E-002  0.1908773E+03  0.7818608E-02  0.1158201E+00
         21   -1    0    0  501  502  0.00000000000E+00  0.00000000000E+00  0.15102588169E+03  0.15102588169E+03  0.00000000000E+00 0.  1.
         21   -1    0    0  502  503 -0.00000000000E+00 -0.00000000000E+00 -0.31133918764E+03  0.31133918764E+03  0.00000000000E+00 0.  1.
         -6    2    1    2    0  503 -0.57692091394E+02 -0.48834501424E+02 -0.19175560950E+03  0.26891540468E+03  0.17271970114E+03 0.  0.
        -24    2    3    3    0    0 -0.10683637268E+02 -0.59908521776E+02 -0.19367730060E+03  0.22035398396E+03  0.85684364911E+02 0.  0.
          6    2    1    2  501    0  0.57692091394E+02  0.48834501424E+02  0.31442303551E+02  0.19344966465E+03  0.17527398084E+03 0.  0.
         24    2    5    5    0    0 -0.35074689621E+02  0.35005618203E+02  0.42436033222E+01  0.95680687129E+02  0.81738354292E+02 0.  0.
          5    1    5    5  501    0  0.92766781016E+02  0.13828883221E+02  0.27198700229E+02  0.97768977520E+02  0.47000000000E+01 0. -1.
        -13    1    6    6    0    0 -0.30889150837E+02 -0.53826403190E+01  0.33309372743E+02  0.45745237662E+02  0.00000000000E+00 0.  1.
         14    1    6    6    0    0 -0.41855387843E+01  0.40388258522E+02 -0.29065769421E+02  0.49935449466E+02  0.00000000000E+00 0. -1.
         -5    1    3    3    0  503 -0.47008454126E+02  0.11074020352E+02  0.19216911057E+01  0.48561420725E+02  0.47000000000E+01 0.  1.
         11    1    4    4    0    0  0.14570146945E+02  0.95394708994E+01 -0.56213830596E+01  0.18300017337E+02  0.00000000000E+00 0. -1.
        -12    1    4    4    0    0 -0.25253784213E+02 -0.69447992675E+02 -0.18805591754E+03  0.20205396662E+03  0.00000000000E+00 0.  1.
</event>
<event>
12    1  0.8494789E-002  0.2151646E+03  0.7818608E-02  0.1137821E+00
         21   -1    0    0  503  502  0.00000000000E+00  0.00000000000E+00  0.25448666416E+03  0.25448666416E+03  0.00000000000E+00 0. -1.
         21   -1    0    0  501  503 -0.00000000000E+00 -0.00000000000E+00 -0.11067484849E+04  0.11067484849E+04  0.00000000000E+00 0. -1.
          6    2    1    2  501    0  0.46397037167E+02  0.12009726781E+03 -0.10484783928E+04  0.10700363647E+04  0.17057210463E+03 0.  0.
         24    2    3    3    0    0  0.97892666869E+02  0.56873690452E+02 -0.59703743709E+03  0.61126621846E+03  0.66144520960E+02 0.  0.
         -6    2    1    2    0  502 -0.46397037167E+02 -0.12009726781E+03  0.19621657199E+03  0.29119878440E+03  0.17239417077E+03 0.  0.
        -24    2    5    5    0    0  0.21393077556E+02 -0.12216961670E+03  0.13006771305E+03  0.19634333741E+03  0.79057050005E+02 0.  0.
          5    1    3    3  501    0 -0.51495629702E+02  0.63223577360E+02 -0.45144095569E+03  0.45877014625E+03  0.47000000000E+01 0. -1.
        -11    1    4    4    0    0  0.58272613058E+01  0.14441128667E+02 -0.22881610520E+03  0.22934540145E+03  0.00000000000E+00 0.  1.
         12    1    4    4    0    0  0.92065405563E+02  0.42432561785E+02 -0.36822133189E+03  0.38192081700E+03  0.00000000000E+00 0. -1.
         -5    1    5    5    0  502 -0.67790114723E+02  0.20723488869E+01  0.66148858941E+02  0.94855446988E+02  0.47000000000E+01 0.  1.
         13    1    6    6    0    0 -0.21150555969E+02 -0.11581749170E+02  0.43016268565E+02  0.49314118596E+02  0.00000000000E+00 0. -1.
        -14    1    6    6    0    0  0.42543633525E+02 -0.11058786753E+03  0.87051444486E+02  0.14702921881E+03  0.00000000000E+00 0.  1.
</event>
<event>
12    1  0.8494789E-002  0.1858921E+03  0.7818608E-02  0.1162752E+00
         21   -1    0    0  503  502  0.00000000000E+00  0.00000000000E+00  0.55020843547E+02  0.55020843547E+02  0.00000000000E+00 0.  1.
         21   -1    0    0  501  503 -0.00000000000E+00 -0.00000000000E+00 -0.87820469457E+03  0.87820469457E+03  0.00000000000E+00 0.  1.
          6    2    1    2  501    0 -0.56497872563E+02  0.32376284755E+02 -0.66621707279E+03  0.69166542800E+03  0.17411387882E+03 0.  0.
         24    2    3    3    0    0 -0.19688123761E+02 -0.50220304957E+02 -0.29861288866E+03  0.31307319297E+03  0.77041973193E+02 0.  0.
         -6    2    1    2    0  502  0.56497872563E+02 -0.32376284755E+02 -0.15696677823E+03  0.24156011011E+03  0.17167551925E+03 0.  0.
        -24    2    5    5    0    0 -0.29461708855E+02  0.10876607065E+02 -0.80553645409E+02  0.11859296346E+03  0.81173322733E+02 0.  0.
          5    1    3    3  501    0 -0.36809748802E+02  0.82596589711E+02 -0.36760418412E+03  0.37859223503E+03  0.47000000000E+01 0. -1.
        -11    1    4    4    0    0 -0.49171442222E-01 -0.81791511509E+01 -0.23056596789E+03  0.23071100208E+03  0.00000000000E+00 0.  1.
         12    1    4    4    0    0 -0.19638952319E+02 -0.42041153806E+02 -0.68046920771E+02  0.82362190888E+02  0.00000000000E+00 0. -1.
         -5    1    5    5    0  502  0.85959581418E+02 -0.43252891820E+02 -0.76413132823E+02  0.12296714665E+03  0.47000000000E+01 0.  1.
         13    1    6    6    0    0 -0.10804416764E+02 -0.12653577618E+02 -0.86410411029E+02  0.87997770326E+02  0.00000000000E+00 0. -1.
        -14    1    6    6    0    0 -0.18657292091E+02  0.23530184682E+02  0.58567656203E+01  0.30595193134E+02  0.00000000000E+00 0.  1.
</event>
<event>
12    1  0.8494789E-002  0.1989886E+03  0.7818608E-02  0.1150978E+00
         21   -1    0    0  501  502  0.00000000000E+00  0.00000000000E+00  0.37629774279E+03  0.37629774279E+03  0.00000000000E+00 0. -1.
         21   -1    0    0  502  503 -0.00000000000E+00 -0.00000000000E+00 -0.11686540568E+03  0.11686540568E+03  0.00000000000E+00 0. -1.
         -6    2    1    2    0  503 -0.64208651493E+02  0.72190310568E+02  0.21011252582E+03  0.28815366293E+03  0.17190424104E+03 0.  0.
        -24    2    3    3    0    0 -0.55161292880E+02  0.97490171363E+02  0.21933956125E+03  0.25935842310E+03  0.81300964099E+02 0.  0.
          6    2    1    2  501    0  0.64208651493E+02 -0.72190310568E+02  0.49319811294E+02  0.20500948554E+03  0.17396049410E+03 0.  0.
         24    2    5    5    0    0  0.10524534724E+03 -0.53515141986E+02  0.54673133189E+01  0.14193885927E+03  0.78589405881E+02 0.  0.
          5    1    5    5  501    0 -0.41036695749E+02 -0.18675168582E+02  0.43852497975E+02  0.63070626271E+02  0.47000000000E+01 0. -1.
        -11    1    6    6    0    0  0.10188063767E+02 -0.12041371255E+02 -0.28696579810E+02  0.32745762441E+02  0.00000000000E+00 0.  1.
         12    1    6    6    0    0  0.95057283475E+02 -0.41473770731E+02  0.34163893129E+02  0.10919309682E+03  0.00000000000E+00 0. -1.
         -5    1    3    3    0  503 -0.90473586123E+01 -0.25299860795E+02 -0.92270354207E+01  0.28795239828E+02  0.47000000000E+01 0.  1.
         11    1    4    4    0    0  0.10213904015E+02  0.61727153752E+02  0.82461484955E+02  0.10351068470E+03  0.00000000000E+00 0. -1.
        -12    1    4    4    0    0 -0.65375196896E+02  0.35763017612E+02  0.13687807629E+03  0.15584773841E+03  0.00000000000E+00 0.  1.
</event>
<event>
12    1  0.8494789E-002  0.2086997E+03  0.7818608E-02  0.1142916E+00
         21   -1    0    0  503  502  0.00000000000E+00  0.00000000000E+00  0.40450148761E+03  0.40450148761E+03  0.00000000000E+00 0. -1.
         21   -1    0    0  501  503 -0.00000000000E+00 -0.00000000000E+00 -0.19176283865E+03  0.19176283865E+03  0.00000000000E+00 0. -1.
          6    2    1    2  501    0  0.10971939104E+03  0.35574610549E+02 -0.92224723088E+02  0.22672649159E+03  0.17203373144E+03 0.  0.
         24    2    3    3    0    0  0.24423546762E+01 -0.25596561904E+02 -0.41797239139E+02  0.93252539043E+02  0.79296139632E+02 0.  0.
         -6    2    1    2    0  502 -0.10971939104E+03 -0.35574610549E+02  0.30496337205E+03  0.36953783467E+03  0.17393002982E+03 0.  0.
        -24    2    5    5    0    0  0.23275251440E+00 -0.12809453078E+02  0.10398666561E+03  0.13927395822E+03  0.91759863504E+02 0.  0.
          5    1    3    3  501    0  0.10727703637E+03  0.61171172453E+02 -0.50427483949E+02  0.13347395255E+03  0.47000000000E+01 0. -1.
        -13    1    4    4    0    0 -0.22755657374E+02 -0.15199689537E+02 -0.56137344391E+02  0.62451997085E+02  0.00000000000E+00 0.  1.
         14    1    4    4    0    0  0.25198012050E+02 -0.10396872367E+02  0.14340105252E+02  0.30800541958E+02  0.00000000000E+00 0. -1.
         -5    1    5    5    0  502 -0.10995214356E+03 -0.22765157471E+02  0.20097670644E+03  0.23026387645E+03  0.47000000000E+01 0.  1.
         13    1    6    6    0    0 -0.38332901198E+02  0.18805562912E+02  0.45006678617E+02  0.62037582406E+02  0.00000000000E+00 0. -1.
        -14    1    6    6    0    0  0.38565653712E+02 -0.31615015990E+02  0.58979986997E+02  0.77236375811E+02  0.00000000000E+00 0.  1.
</event>
<event>
12    1  0.8494789E-002  0.1791874E+03  0.7818608E-02  0.1170278E+00
         21   -1    0    0  503  502  0.00000000000E+00  0.00000000000E+00  0.14567321401E+04  0.14567321401E+04  0.00000000000E+00 0. -1.
         21   -1    0    0  501  503 -0.00000000000E+00 -0.00000000000E+00 -0.36666856342E+02  0.36666856342E+02  0.00000000000E+00 0. -1.
          6    2    1    2  501    0 -0.90698004436E+01 -0.10539149723E+02  0.21741726772E+03  0.27747533213E+03  0.17183991585E+03 0.  0.
         24    2    3    3    0    0 -0.21628395567E+02 -0.41837178697E+02  0.22402257327E+03  0.24279096980E+03  0.80890077650E+02 0.  0.
         -6    2    1    2    0  502  0.90698004436E+01  0.10539149723E+02  0.12026480161E+04  0.12159236643E+04  0.17864705988E+03 0.  0.
        -24    2    5    5    0    0  0.75419528905E+02  0.25854524445E+02  0.75923700595E+03  0.76728989269E+03  0.77047949058E+02 0.  0.
          5    1    3    3  501    0  0.12558595124E+02  0.31298028975E+02 -0.66053055504E+01  0.34684362335E+02  0.47000000000E+01 0. -1.
        -11    1    4    4    0    0 -0.51043320829E+02 -0.19879041635E+02  0.10795512682E+03  0.12105745043E+03  0.00000000000E+00 0.  1.
         12    1    4    4    0    0  0.29414925261E+02 -0.21958137062E+02  0.11606744645E+03  0.12173351937E+03  0.00000000000E+00 0. -1.
         -5    1    5    5    0  502 -0.66349728462E+02 -0.15315374723E+02  0.44341101012E+03  0.44863377165E+03  0.47000000000E+01 0.  1.
         13    1    6    6    0    0  0.14082596658E+02 -0.23927787251E+02  0.30251382589E+03  0.30378524221E+03  0.00000000000E+00 0. -1.
        -14    1    6    6    0    0  0.61336932248E+02  0.49782311696E+02  0.45672318005E+03  0.46350465048E+03  0.00000000000E+00 0.  1.
</event>
<event>
12    1  0.8494789E-002  0.2197930E+03  0.7818608E-02  0.1137568E+00
         21   -1    0    0  503  502  0.00000000000E+00  0.00000000000E+00  0.91938272943E+02  0.91938272943E+02  0.00000000000E+00 0.  1.
         21   -1    0    0  501  503 -0.00000000000E+00 -0.00000000000E+00 -0.61069168977E+03  0.61069168977E+03  0.00000000000E+00 0.  1.
          6    2    1    2  501    0  0.85378180807E+02 -0.63778368802E+02 -0.41102377267E+03  0.45785525457E+03  0.17127106689E+03 0.  0.
         24    2    3    3    0    0  0.36887961936E+02  0.25911495535E+02 -0.25612228164E+03  0.27235017374E+03  0.80894169417E+02 0.  0.
         -6    2    1    2    0  502 -0.85378180807E+02  0.63778368802E+02 -0.10772964416E+03  0.24477470815E+03  0.19222868525E+03 0.  0.
        -24    2    5    5    0    0 -0.82567370095E+02 -0.19343713322E+02 -0.11230781479E+03  0.16134671021E+03  0.78918728980E+02 0.  0.
          5    1    3    3  501    0  0.48490218870E+02 -0.89689864337E+02 -0.15490149102E+03  0.18550508083E+03  0.47000000000E+01 0. -1.
        -11    1    4    4    0    0  0.48836800003E+02  0.47056781225E+02 -0.17545763391E+03  0.18810835971E+03  0.00000000000E+00 0.  1.
         12    1    4    4    0    0 -0.11948838067E+02 -0.21145285690E+02 -0.80664647729E+02  0.84241814031E+02  0.00000000000E+00 0. -1.
         -5    1    5    5    0  502 -0.28108107122E+01  0.83122082124E+02  0.45781706273E+01  0.83427997937E+02  0.47000000000E+01 0.  1.
         13    1    6    6    0    0 -0.29654699256E-01  0.22560116816E+02 -0.29573366362E+02  0.37196017907E+02  0.00000000000E+00 0. -1.
        -14    1    6    6    0    0 -0.82537715395E+02 -0.41903830139E+02 -0.82734448426E+02  0.12415069230E+03  0.00000000000E+00 0.  1.
</event>
<event>
12    1  0.8494789E-002  0.1819124E+03  0.7818608E-02  0.1167695E+00
         21   -1    0    0  503  502  0.00000000000E+00  0.00000000000E+00  0.77309872622E+02  0.77309872622E+02  0.00000000000E+00 0. -1.
         21   -1    0    0  501  503 -0.00000000000E+00 -0.00000000000E+00 -0.41191570596E+03  0.41191570596E+03  0.00000000000E+00 0. -1.
          6    2    1    2  501    0 -0.15274998075E+02  0.21133221156E+02 -0.15627610155E+03  0.23448329187E+03  0.17285906297E+03 0.  0.
         24    2    3    3    0    0  0.24562431861E+02  0.75188376212E+02 -0.10826309296E+03  0.15180125267E+03  0.71176667812E+02 0.  0.
         -6    2    1    2    0  502  0.15274998075E+02 -0.21133221156E+02 -0.17832973179E+03  0.25474228671E+03  0.18003388791E+03 0.  0.
        -24    2    5    5    0    0 -0.31324132999E+02 -0.20066012083E+02 -0.18717976899E+03  0.20706597068E+03  0.80350508057E+02 0.  0.
          5    1    3    3  501    0 -0.39837429935E+02 -0.54055155056E+02 -0.48013008592E+02  0.82682039198E+02  0.47000000000E+01 0. -1.
        -13    1    4    4    0    0 -0.66160825543E+01  0.19372109617E+02 -0.78780838699E+02  0.81397000716E+02  0.00000000000E+00 0.  1.
         14    1    4    4    0    0  0.31178514415E+02  0.55816266595E+02 -0.29482254256E+02  0.70404251958E+02  0.00000000000E+00 0. -1.
         -5    1    5    5    0  502  0.46599131074E+02 -0.10672090732E+01  0.88500371970E+01  0.47676316033E+02  0.47000000000E+01 0.  1.
         11    1    6    6    0    0  0.18098089123E+02 -0.29864232845E+02 -0.10516632897E+03  0.11081231873E+03  0.00000000000E+00 0. -1.
        -12    1    6    6    0    0 -0.49422222122E+02  0.97982207624E+01 -0.82013440022E+02  0.96253651951E+02  0.00000000000E+00 0.  1.
</event>
<event>
12    1  0.8494789E-002  0.1731726E+03  0.7818608E-02  0.1175712E+00
         21   -1    0    0  503  502  0.00000000000E+00  0.00000000000E+00  0.26543569972E+02  0.26543569972E+02  0.00000000000E+00 0.  1.
         21   -1    0    0  501  503 -0.00000000000E+00 -0.00000000000E+00 -0.23144832913E+04  0.23144832913E+04  0.00000000000E+00 0.  1.
          6    2    1    2  501    0 -0.13924008963E+02 -0.13556137885E+02 -0.19843849989E+04  0.19915497867E+04  0.16765763308E+03 0.  0.
         24    2    3    3    0    0  0.49753558215E+02  0.20826322673E+02 -0.11604356641E+04  0.11644152253E+04  0.79641284927E+02 0.  0.
         -6    2    1    2    0  502  0.13924008963E+02  0.13556137885E+02 -0.30355472242E+03  0.34947707462E+03  0.17207878800E+03 0.  0.
        -24    2    5    5    0    0  0.44279093321E+02  0.38511920833E+02 -0.29188292928E+03  0.30821519143E+03  0.79731760758E+02 0.  0.
          5    1    3    3  501    0 -0.63677567178E+02 -0.34382460557E+02 -0.82394933488E+03  0.82713456136E+03  0.47000000000E+01 0. -1.
        -11    1    4    4    0    0  0.24994350634E+02 -0.23554590149E+02 -0.75884080315E+03  0.75961760169E+03  0.00000000000E+00 0.  1.
         12    1    4    4    0    0  0.24759207581E+02  0.44380912822E+02 -0.40159486091E+03  0.40479762362E+03  0.00000000000E+00 0. -1.
         -5    1    5    5    0  502 -0.30355084358E+02 -0.24955782948E+02 -0.11671793141E+02  0.41261883186E+02  0.47000000000E+01 0.  1.
         11    1    6    6    0    0  0.27008082052E+02 -0.22645067085E+02 -0.11381464008E+03  0.11914700104E+03  0.00000000000E+00 0. -1.
        -12    1    6    6    0    0  0.17271011269E+02  0.61156987917E+02 -0.17806828920E+03  0.18906819040E+03  0.00000000000E+00 0.  1.
</event>
<event>
12    1  0.8494789E-002  0.1975137E+03  0.7818608E-02  0.1152019E+00
         21   -1    0    0  501  502  0.00000000000E+00  0.00000000000E+00  0.45283132243E+02  0.45283132243E+02  0.00000000000E+00 0.  1.
         21   -1    0    0  502  503 -0.00000000000E+00 -0.00000000000E+00 -0.12729973759E+04  0.12729973759E+04  0.00000000000E+00 0.  1.
         -6    2    1    2    0  503  0.87267893572E+01 -0.97231717529E+02 -0.98932515089E+03  0.10086985257E+04  0.17081656169E+03 0.  0.
        -24    2    3    3    0    0  0.69748422330E+02 -0.85384867121E+02 -0.63090525349E+03  0.64489789289E+03  0.75474733661E+02 0.  0.
          6    2    1    2  501    0 -0.87267893572E+01  0.97231717529E+02 -0.23838909273E+03  0.30958198244E+03  0.17170171977E+03 0.  0.
         24    2    5    5    0    0 -0.51024373859E+02  0.80641133693E+02 -0.23206965973E+03  0.26346952902E+03  0.80332973207E+02 0.  0.
          5    1    5    5  501    0  0.42297584502E+02  0.16590583836E+02 -0.63194329961E+01  0.46112453417E+02  0.47000000000E+01 0. -1.
        -13    1    6    6    0    0 -0.53343418460E+02  0.10482822678E+02 -0.10832325847E+03  0.12119957999E+03  0.00000000000E+00 0.  1.
         14    1    6    6    0    0  0.23190446008E+01  0.70158311015E+02 -0.12374640126E+03  0.14226994903E+03  0.00000000000E+00 0. -1.
         -5    1    3    3    0  503 -0.61021632973E+02 -0.11846850407E+02 -0.35841989740E+03  0.36380063277E+03  0.47000000000E+01 0.  1.
         11    1    4    4    0    0 -0.11791031757E+02 -0.23722068960E+01 -0.13452157379E+03  0.13505817121E+03  0.00000000000E+00 0. -1.
        -12    1    4    4    0    0  0.81539454087E+02 -0.83012660225E+02 -0.49638367970E+03  0.50983972168E+03  0.00000000000E+00 0.  1.
</event>
<event>
12    1  0.8494789E-002  0.2545119E+03  0.7818608E-02  0.1111264E+00
         21   -1    0    0  503  502  0.00000000000E+00  0.00000000000E+00  0.13554571706E+04  0.13554571706E+04  0.00000000000E+00 0. -1.
         21   -1    0    0  501  503 -0.00000000000E+00 -0.00000000000E+00 -0.27499488880E+03  0.27499488880E+03  0.00000000000E+00 0.  1.
          6    2    1    2  501    0 -0.83363183243E+02 -0.16056730364E+03 -0.20138139574E+03  0.32454704739E+03  0.17901128483E+03 0.  0.
         24    2    3    3    0    0 -0.88186509052E+02 -0.13788707960E+03 -0.22618355585E+03  0.29027031795E+03  0.79423859463E+02 0.  0.
         -6    2    1    2    0  502  0.83363183243E+02  0.16056730364E+03  0.12818436775E+04  0.13059050120E+04  0.17185286564E+03 0.  0.
        -24    2    5    5    0    0  0.10117627881E+03  0.63738279531E+02  0.59825616412E+03  0.61524797354E+03  0.79501090361E+02 0.  0.
          5    1    3    3  501    0  0.48233258095E+01 -0.22680224049E+02  0.24802160105E+02  0.34276729433E+02  0.47000000000E+01 0. -1.
        -13    1    4    4    0    0 -0.34291701657E+02 -0.54730857144E+02 -0.15599601494E+03  0.16883762674E+03  0.00000000000E+00 0.  1.
         14    1    4    4    0    0 -0.53894807395E+02 -0.83156222452E+02 -0.70187540902E+02  0.12143269121E+03  0.00000000000E+00 0. -1.
         -5    1    5    5    0  502 -0.17813095570E+02  0.96829024114E+02  0.68358751339E+03  0.69065703844E+03  0.47000000000E+01 0.  1.
         11    1    6    6    0    0  0.60992145198E+02  0.40083766791E+02  0.51217236911E+03  0.51734638862E+03  0.00000000000E+00 0. -1.
        -12    1    6    6    0    0  0.40184133614E+02  0.23654512740E+02  0.86083795002E+02  0.97901584917E+02  0.00000000000E+00 0.  1.
</event>
<event>
12    1  0.8494789E-002  0.2397072E+03  0.7818608E-02  0.1120141E+00
         21   -1    0    0  503  502  0.00000000000E+00  0.00000000000E+00  0.13529870101E+04  0.13529870101E+04  0.00000000000E+00 0.  1.
         21   -1    0    0  501  503 -0.00000000000E+00 -0.00000000000E+00 -0.69472518258E+02  0.69472518258E+02  0.00000000000E+00 0.  1.
          6    2    1    2  501    0 -0.16469384726E+03  0.31400604154E+02  0.19625663283E+03  0.30909112903E+03  0.17003117022E+03 0.  0.
         24    2    3    3    0    0 -0.14831814656E+03 -0.33644037114E+02  0.14902216985E+03  0.22691964112E+03  0.78452040051E+02 0.  0.
         -6    2    1    2    0  502  0.16469384726E+03 -0.31400604154E+02  0.10872578590E+04  0.11133683993E+04  0.17131689754E+03 0.  0.
        -24    2    5    5    0    0  0.35601772015E+02  0.36142030914E+02  0.44813626568E+03  0.45783405812E+03  0.78817381269E+02 0.  0.
          5    1    3    3  501    0 -0.16375700702E+02  0.65044641268E+02  0.47234462983E+02  0.82171487905E+02  0.47000000000E+01 0. -1.
        -11    1    4    4    0    0 -0.14251544710E+03 -0.79273442954E+01  0.13735321709E+03  0.19808937805E+03  0.00000000000E+00 0.  1.
         12    1    4    4    0    0 -0.58026994588E+01 -0.25716692819E+02  0.11668952763E+02  0.28830263078E+02  0.00000000000E+00 0. -1.
         -5    1    5    5    0  502  0.12909207525E+03 -0.67542635068E+02  0.63912159335E+03  0.65553434123E+03  0.47000000000E+01 0.  1.
         13    1    6    6    0    0  0.50684886438E+02  0.17097977135E+02  0.16061179463E+03  0.16928510599E+03  0.00000000000E+00 0. -1.
        -14    1    6    6    0    0 -0.15083114423E+02  0.19044053779E+02  0.28752447104E+03  0.28854895213E+03  0.00000000000E+00 0.  1.
</event>
<event>
12    1  0.8494789E-002  0.1780134E+03  0.7818608E-02  0.1169740E+00
         21   -1    0    0  503  502  0.00000000000E+00  0.00000000000E+00  0.46467474065E+03  0.46467474065E+03  0.00000000000E+00 0. -1.
         21   -1    0    0  501  503 -0.00000000000E+00 -0.00000000000E+00 -0.11215007951E+03  0.11215007951E+03  0.00000000000E+00 0. -1.
          6    2    1    2  501    0  0.16909441831E+02 -0.43316164469E+02 -0.42961783888E+01  0.17806440267E+03  0.17183205470E+03 0.  0.
         24    2    3    3    0    0 -0.32051824800E+02 -0.59314450785E+02  0.37713226852E+02  0.11143084563E+03  0.80305805098E+02 0.  0.
         -6    2    1    2    0  502 -0.16909441831E+02  0.43316164469E+02  0.35682083952E+03  0.39876041749E+03  0.17183288309E+03 0.  0.
        -24    2    5    5    0    0 -0.46347552190E+02  0.17944220578E+02  0.34469769821E+03  0.35777995344E+03  0.81975004029E+02 0.  0.
          5    1    3    3  501    0  0.48961266631E+02  0.15998286316E+02 -0.42009405241E+02  0.66633557040E+02  0.47000000000E+01 0. -1.
        -11    1    4    4    0    0 -0.38287415285E+02 -0.75103147588E+02  0.19484536070E+02  0.86521997739E+02  0.00000000000E+00 0.  1.
         12    1    4    4    0    0  0.62355904844E+01  0.15788696804E+02  0.18228690782E+02  0.24908847888E+02  0.00000000000E+00 0. -1.
         -5    1    5    5    0  502  0.29438110359E+02  0.25371943891E+02  0.12123141310E+02  0.40980464047E+02  0.47000000000E+01 0.  1.
         11    1    6    6    0    0 -0.15989699904E+02 -0.32661091391E+02  0.14933250757E+03  0.15369650358E+03  0.00000000000E+00 0. -1.
        -12    1    6    6    0    0 -0.30357852286E+02  0.50605311969E+02  0.19536519064E+03  0.20408344986E+03  0.00000000000E+00 0.  1.
</event>
<event>
12    1  0.8494789E-002  0.1733380E+03  0.7818608E-02  0.1174657E+00
         21   -1    0    0  501  502  0.00000000000E+00  0.00000000000E+00  0.66918885213E+03  0.66918885213E+03  0.00000000000E+00 0.  1.
         21   -1    0    0  502  503 -0.00000000000E+00 -0.00000000000E+00 -0.48260972148E+02  0.48260972148E+02  0.00000000000E+00 0.  1.
         -6    2    1    2    0  503  0.32182730166E+01  0.24016536014E+02  0.40940275765E+03  0.44458596450E+03  0.17163598275E+03 0.  0.
        -24    2    3    3    0    0 -0.13880040462E+02  0.19456143242E+02  0.83529134352E+02  0.11819837609E+03  0.80140768599E+02 0.  0.
          6    2    1    2  501    0 -0.32182730166E+01 -0.24016536014E+02  0.21152512234E+03  0.27286385978E+03  0.17065947765E+03 0.  0.
         24    2    5    5    0    0  0.23709001600E+02 -0.30918175955E+02  0.36677795127E+02  0.95758273806E+02  0.79412442260E+02 0.  0.
          5    1    5    5  501    0 -0.26927274617E+02  0.69016399405E+01  0.17484732721E+03  0.17710558598E+03  0.47000000000E+01 0. -1.
        -13    1    6    6    0    0 -0.13487850402E+00  0.26385847529E+02  0.10604702092E+02  0.28437490193E+02  0.00000000000E+00 0.  1.
         14    1    6    6    0    0  0.23843880104E+02 -0.57304023484E+02  0.26073093035E+02  0.67320783613E+02  0.00000000000E+00 0. -1.
         -5    1    3    3    0  503  0.17098313478E+02  0.45603927725E+01  0.32587362330E+03  0.32638758841E+03  0.47000000000E+01 0.  1.
         11    1    4    4    0    0  0.31117034720E+02  0.22254218222E+02  0.33477054861E+02  0.50835354633E+02  0.00000000000E+00 0. -1.
        -12    1    4    4    0    0 -0.44997075182E+02 -0.27980749804E+01  0.50052079491E+02  0.67363021458E+02  0.00000000000E+00 0.  1.
</event>
<event>
12    1  0.8494789E-002  0.1852736E+03  0.7818608E-02  0.1162902E+00
         21   -1    0    0  501  502  0.00000000000E+00  0.00000000000E+00  0.29543535103E+03  0.29543535103E+03  0.00000000000E+00 0. -1.
         21   -1    0    0  502  503 -0.00000000000E+00 -0.00000000000E+00 -0.14608639678E+03  0.14608639678E+03  0.00000000000E+00 0.  1.
         -6    2    1    2    0  503  0.29702821000E+02 -0.61600189134E+02  0.17509674917E+03  0.25492191220E+03  0.17219021131E+03 0.  0.
        -24    2    3    3    0    0  0.10484148434E+02  0.48148018202E+01  0.16738036739E+03  0.18519429252E+03  0.78406880502E+02 0.  0.
          6    2    1    2  501    0 -0.29702821000E+02  0.61600189134E+02 -0.25747794929E+02  0.18659983561E+03  0.17169656034E+03 0.  0.
         24    2    5    5    0    0 -0.14870249053E+02  0.81273133856E+02 -0.71040541027E+02  0.13482578040E+03  0.79402682551E+02 0.  0.
          5    1    5    5  501    0 -0.14832571947E+02 -0.19672944723E+02  0.45292746098E+02  0.51774055218E+02  0.47000000000E+01 0. -1.
        -13    1    6    6    0    0  0.14959155510E+02  0.81745883226E+02 -0.41686473952E+02  0.92972726477E+02  0.00000000000E+00 0.  1.
         14    1    6    6    0    0 -0.29829404563E+02 -0.47274937006E+00 -0.29354067074E+02  0.41853053919E+02  0.00000000000E+00 0. -1.
         -5    1    3    3    0  503  0.19218672566E+02 -0.66414990954E+02  0.77163817877E+01  0.69727619682E+02  0.47000000000E+01 0.  1.
         11    1    4    4    0    0  0.32298704929E+02 -0.22726775354E+02  0.56906317296E+02  0.69267897372E+02  0.00000000000E+00 0. -1.
        -12    1    4    4    0    0 -0.21814556495E+02  0.27541577175E+02  0.11047405009E+03  0.11592639515E+03  0.00000000000E+00 0.  1.
</event>
<event>
12    1  0.8494789E-002  0.1891269E+03  0.7818608E-02  0.1159331E+00
         21   -1    0    0  503  502  0.00000000000E+00  0.00000000000E+00  0.34594568528E+03  0.34594568528E+03  0.00000000000E+00 0. -1.
         21   -1    0    0  501  503 -0.00000000000E+00 -0.00000000000E+00 -0.12566856126E+03  0.12566856126E+03  0.00000000000E+00 0. -1.
          6    2    1    2  501    0  0.66916516434E+02  0.40476224412E+02  0.10352207708E+02  0.18905903192E+03  0.17181386566E+03 0.  0.
         24    2    3    3    0    0  0.69899577323E+02  0.86491496975E+02  0.29502287019E+02  0.13890806485E+03  0.77835310631E+02 0.  0.
         -6    2    1    2    0  502 -0.66916516434E+02 -0.40476224412E+02  0.20992491632E+03  0.28255521462E+03  0.17219998230E+03 0.  0.
        -24    2    5    5    0    0 -0.72826029097E+02 -0.86473878784E+02  0.18294376266E+03  0.22869633234E+03  0.77796078972E+02 0.  0.
          5    1    3    3  501    0 -0.29830608892E+01 -0.46015272563E+02 -0.19150079311E+02  0.50150967079E+02  0.47000000000E+01 0. -1.
        -11    1    4    4    0    0  0.29276030025E+02  0.89394069313E+02  0.28034292515E+02  0.98154506362E+02  0.00000000000E+00 0.  1.
         12    1    4    4    0    0  0.40623547298E+02 -0.29025723382E+01  0.14679945047E+01  0.40753558484E+02  0.00000000000E+00 0. -1.
         -5    1    5    5    0  502  0.59095126630E+01  0.45997654372E+02  0.26981153652E+02  0.53858882277E+02  0.47000000000E+01 0.  1.
         13    1    6    6    0    0 -0.32948231168E+02 -0.11669247375E+02  0.11458539965E+03  0.11979804291E+03  0.00000000000E+00 0. -1.
        -14    1    6    6    0    0 -0.39877797929E+02 -0.74804631410E+02  0.68358363012E+02  0.10889828943E+03  0.00000000000E+00 0.  1.
</event>
<event>
12    1  0.8494789E-002  0.2056526E+03  0.7818608E-02  0.1145602E+00
         21   -1    0    0  503  502  0.00000000000E+00  0.00000000000E+00  0.25026248464E+03  0.25026248464E+03  0.00000000000E+00 0.  1.
         21   -1    0    0  501  503 -0.00000000000E+00 -0.00000000000E+00 -0.18626936475E+03  0.18626936475E+03  0.00000000000E+00 0.  1.
          6    2    1    2  501    0 -0.86772872591E+02  0.68920804786E+02 -0.38365335779E+02  0.20920064590E+03  0.17324376614E+03 0.  0.
         24    2    3    3    0    0 -0.12699821827E+03  0.42103886916E+02 -0.15351300699E+02  0.15545158703E+03  0.77641797625E+02 0.  0.
         -6    2    1    2    0  502  0.86772872591E+02 -0.68920804786E+02  0.10235845567E+03  0.22733120349E+03  0.17006649842E+03 0.  0.
        -24    2    5    5    0    0  0.47084142155E+02 -0.10483229129E+03  0.10896805694E+03  0.17319612230E+03  0.70115145333E+02 0.  0.
          5    1    3    3  501    0  0.40225345681E+02  0.26816917869E+02 -0.23014035080E+02  0.53749058874E+02  0.47000000000E+01 0. -1.
        -13    1    4    4    0    0 -0.11877039563E+03  0.11976278199E+02  0.26539639903E+01  0.11940218441E+03  0.00000000000E+00 0.  1.
         14    1    4    4    0    0 -0.82278226431E+01  0.30127608717E+02 -0.18005264689E+02  0.36049402616E+02  0.00000000000E+00 0. -1.
         -5    1    5    5    0  502  0.39688730437E+02  0.35911486508E+02 -0.66096012721E+01  0.54135081194E+02  0.47000000000E+01 0.  1.
         13    1    6    6    0    0  0.37344496687E+01 -0.12877098015E+02  0.57894566132E+02  0.59426816802E+02  0.00000000000E+00 0. -1.
        -14    1    6    6    0    0  0.43349692486E+02 -0.91955193279E+02  0.51073490811E+02  0.11376930550E+03  0.00000000000E+00 0.  1.
</event>
<event>
12    1  0.8494789E-002  0.1783423E+03  0.7818608E-02  0.1169902E+00
         21   -1    0    0  501  502  0.00000000000E+00  0.00000000000E+00  0.26319922686E+03  0.26319922686E+03  0.00000000000E+00 0.  1.
         21   -1    0    0  502  503 -0.00000000000E+00 -0.00000000000E+00 -0.14484263143E+03  0.14484263143E+03  0.00000000000E+00 0.  1.
         -6    2    1    2    0  503 -0.27237174064E+02  0.35823377498E+02 -0.25868537731E+02  0.18020867162E+03  0.17257116230E+03 0.  0.
        -24    2    3    3    0    0  0.47234197920E+02  0.99140273423E+00  0.76549519733E+01  0.91297670764E+02  0.77747116118E+02 0.  0.
          6    2    1    2  501    0  0.27237174064E+02 -0.35823377498E+02  0.14422513316E+03  0.22783318667E+03  0.17053414287E+03 0.  0.
         24    2    5    5    0    0 -0.22328291874E+01 -0.80441190812E+02  0.13196039377E+03  0.17277190999E+03  0.77206325219E+02 0.  0.
          5    1    5    5  501    0  0.29470003252E+02  0.44617813314E+02  0.12264739393E+02  0.55061276674E+02  0.47000000000E+01 0. -1.
        -13    1    6    6    0    0  0.32635904829E+02 -0.51489726646E+02  0.10070165831E+03  0.11771626149E+03  0.00000000000E+00 0.  1.
         14    1    6    6    0    0 -0.34868734016E+02 -0.28951464166E+02  0.31258735464E+02  0.55055648502E+02  0.00000000000E+00 0. -1.
         -5    1    3    3    0  503 -0.74471371984E+02  0.34831974763E+02 -0.33523489705E+02  0.88911000855E+02  0.47000000000E+01 0.  1.
         13    1    4    4    0    0  0.33134151828E+02 -0.32936487193E+02  0.22271052090E+02  0.51756004166E+02  0.00000000000E+00 0. -1.
        -14    1    4    4    0    0  0.14100046092E+02  0.33927889927E+02 -0.14616100117E+02  0.39541666598E+02  0.00000000000E+00 0.  1.
</event>
<event>
12    1  0.8494789E-002  0.2082417E+03  0.7818608E-02  0.1143222E+00
         21   -1    0    0  503  502  0.00000000000E+00  0.00000000000E+00  0.24982592197E+03  0.24982592197E+03  0.00000000000E+00 0. -1.
         21   -1    0    0  501  503 -0.00000000000E+00 -0.00000000000E+00 -0.44915928721E+03  0.44915928721E+03  0.00000000000E+00 0.  1.
          6    2    1    2  501    0  0.83909932213E+02 -0.77490091425E+02 -0.37382961316E+03  0.42729872353E+03  0.17259788080E+03 0.  0.
         24    2    3    3    0    0  0.15020324647E+02  0.21675996118E+02 -0.17477660180E+03  0.19443850305E+03  0.81018590275E+02 0.  0.
         -6    2    1    2    0  502 -0.83909932213E+02  0.77490091425E+02  0.17449624792E+03  0.27168648566E+03  0.17412356233E+03 0.  0.
        -24    2    5    5    0    0  0.41473910434E+01 -0.44815215712E+01  0.40009359463E+02  0.91180943686E+02  0.81706369145E+02 0.  0.
          5    1    3    3  501    0  0.68889607566E+02 -0.99166087543E+02 -0.19905301136E+03  0.23286022048E+03  0.47000000000E+01 0. -1.
        -11    1    4    4    0    0 -0.50164725914E+01 -0.25864573359E+02 -0.10122442556E+03  0.10459696689E+03  0.00000000000E+00 0.  1.
         12    1    4    4    0    0  0.20036797238E+02  0.47540569477E+02 -0.73552176243E+02  0.89841536161E+02  0.00000000000E+00 0. -1.
         -5    1    5    5    0  502 -0.88057323256E+02  0.81971612996E+02  0.13448688846E+03  0.18050554198E+03  0.47000000000E+01 0.  1.
         11    1    6    6    0    0  0.27184830910E+02 -0.11967755157E+02  0.55132384372E+02  0.62624452107E+02  0.00000000000E+00 0. -1.
        -12    1    6    6    0    0 -0.23037439867E+02  0.74862335860E+01 -0.15123024909E+02  0.28556491579E+02  0.00000000000E+00 0.  1.
</event>
<event>
12    1  0.8494789E-002  0.2356934E+03  0.7818608E-02  0.1122799E+00
         21   -1    0    0  501  502  0.00000000000E+00  0.00000000000E+00  0.22909185920E+03  0.22909185920E+03  0.00000000000E+00 0. -1.
         21   -1    0    0  502  503 -0.00000000000E+00 -0.00000000000E+00 -0.26205004061E+03  0.26205004061E+03  0.00000000000E+00 0.  1.
         -6    2    1    2    0  503 -0.90457851184E+02 -0.13295736263E+03 -0.84620337815E+02  0.24985293398E+03  0.17148062261E+03 0.  0.
        -24    2    3    3    0    0 -0.39676920212E+02 -0.87438607253E+02 -0.12242988192E+03  0.17173563970E+03  0.72693094023E+02 0.  0.
          6    2    1    2  501    0  0.90457851184E+02  0.13295736263E+03  0.51662156404E+02  0.24128896582E+03  0.17231106611E+03 0.  0.
         24    2    5    5    0    0  0.22124439298E+02  0.89470357753E+02 -0.29930635725E+02  0.12622355616E+03  0.80883295210E+02 0.  0.
          5    1    5    5  501    0  0.68333411886E+02  0.43487004878E+02  0.81592792129E+02  0.11506540966E+03  0.47000000000E+01 0. -1.
        -11    1    6    6    0    0  0.40396897124E+02  0.78898124330E+02  0.11563060464E+01  0.88646265368E+02  0.00000000000E+00 0.  1.
         12    1    6    6    0    0 -0.18272457826E+02  0.10572233423E+02 -0.31086941771E+02  0.37577290791E+02  0.00000000000E+00 0. -1.
         -5    1    3    3    0  503 -0.50780930972E+02 -0.45518755377E+02  0.37809544105E+02  0.78117294288E+02  0.47000000000E+01 0.  1.
         13    1    4    4    0    0 -0.34784583737E+02 -0.20012630032E+01 -0.36589901145E+02  0.50525173777E+02  0.00000000000E+00 0. -1.
        -14    1    4    4    0    0 -0.48923364752E+01 -0.85437344250E+02 -0.85839980775E+02  0.12121046592E+03  0.00000000000E+00 0.  1.
</event>
<event>
12    1  0.8494789E-002  0.1755591E+03  0.7818608E-02  0.1172428E+00
         21   -1    0    0  501  502  0.00000000000E+00  0.00000000000E+00  0.97922061966E+03  0.97922061966E+03  0.00000000000E+00 0.  1.
         21   -1    0    0  502  503 -0.00000000000E+00 -0.00000000000E+00 -0.38895791655E+02  0.38895791655E+02  0.00000000000E+00 0. -1.
         -6    2    1    2    0  503  0.30704434783E+02  0.29521515947E+01  0.24398517597E+03  0.29998695150E+03  0.17179035906E+03 0.  0.
        -24    2    3    3    0    0  0.15673553034E+02 -0.45337164237E+01  0.25852734930E+03  0.27728165628E+03  0.98906580789E+02 0.  0.
          6    2    1    2  501    0 -0.30704434783E+02 -0.29521515947E+01  0.69633965204E+03  0.71812945981E+03  0.17282804325E+03 0.  0.
         24    2    5    5    0    0 -0.32599851101E+02 -0.52560590864E+02  0.61203381381E+03  0.62017970632E+03  0.78816958081E+02 0.  0.
          5    1    5    5  501    0  0.18954163181E+01  0.49608439269E+02  0.84305838227E+02  0.97949753491E+02  0.47000000000E+01 0. -1.
        -11    1    6    6    0    0 -0.42802229689E+02 -0.15844832083E+02  0.49496782570E+03  0.49706763931E+03  0.00000000000E+00 0.  1.
         12    1    6    6    0    0  0.10202378588E+02 -0.36715758781E+02  0.11706598811E+03  0.12311206702E+03  0.00000000000E+00 0. -1.
         -5    1    3    3    0  503  0.15030881749E+02  0.74858680184E+01 -0.14542173331E+02  0.22705295227E+02  0.47000000000E+01 0.  1.
         11    1    4    4    0    0 -0.31992619918E+02 -0.14296203529E+02  0.39013187378E+02  0.52439850819E+02  0.00000000000E+00 0. -1.
        -12    1    4    4    0    0  0.47666172952E+02  0.97624871049E+01  0.21951416192E+03  0.22484180546E+03  0.00000000000E+00 0.  1.
</event>
<event>
12    1  0.8494789E-002  0.2422307E+03  0.7818608E-02  0.1118490E+00
         21   -1    0    0  503  502  0.00000000000E+00  0.00000000000E+00  0.61905741110E+03  0.61905741110E+03  0.00000000000E+00 0.  1.
         21   -1    0    0  501  503 -0.00000000000E+00 -0.00000000000E+00 -0.18274816159E+03  0.18274816159E+03  0.00000000000E+00 0. -1.
          6    2    1    2  501    0 -0.15847104970E+03  0.54032385154E+02 -0.60888462203E+02  0.24874024502E+03  0.17358494296E+03 0.  0.
         24    2    3    3    0    0 -0.16619508063E+03  0.16192547196E+02 -0.84246836681E+02  0.20336164159E+03  0.79846254567E+02 0.  0.
         -6    2    1    2    0  502  0.15847104970E+03 -0.54032385154E+02  0.49719771171E+03  0.55306532767E+03  0.17505176349E+03 0.  0.
        -24    2    5    5    0    0  0.11474691277E+03 -0.77356152052E+02  0.22308376771E+03  0.27446823051E+03  0.80097527367E+02 0.  0.
          5    1    3    3  501    0  0.77240309328E+01  0.37839837958E+02  0.23358374478E+02  0.45378603425E+02  0.47000000000E+01 0. -1.
        -11    1    4    4    0    0 -0.12526876606E+03  0.70549215138E+01 -0.20607108818E+02  0.12714829374E+03  0.00000000000E+00 0.  1.
         12    1    4    4    0    0 -0.40926314572E+02  0.91376256817E+01 -0.63639727863E+02  0.76213347847E+02  0.00000000000E+00 0. -1.
         -5    1    5    5    0  502  0.43724136927E+02  0.23323766898E+02  0.27411394400E+03  0.27859709716E+03  0.47000000000E+01 0.  1.
         11    1    6    6    0    0  0.51359472353E+02 -0.56835390035E+02  0.17865983951E+03  0.19438980224E+03  0.00000000000E+00 0. -1.
        -12    1    6    6    0    0  0.63387440421E+02 -0.20520762016E+02  0.44423928197E+02  0.80078428265E+02  0.00000000000E+00 0.  1.
</event>
<event>
12    1  0.8494789E-002  0.1761363E+03  0.7818608E-02  0.1171881E+00
         21   -1    0    0  501  502  0.00000000000E+00  0.00000000000E+00  0.57176416127E+02  0.57176416127E+02  0.00000000000E+00 0. -1.
         21   -1    0    0  502  503 -0.00000000000E+00 -0.00000000000E+00 -0.55258074439E+03  0.55258074439E+03  0.00000000000E+00 0. -1.
         -6    2    1    2    0  503 -0.16721453447E+02 -0.25630052696E+02 -0.19927825283E+03  0.26520725296E+03  0.17229787684E+03 0.  0.
        -24    2    3    3    0    0 -0.22147724077E+02  0.50142610323E+02 -0.88758809007E+02  0.13101493448E+03  0.79258966873E+02 0.  0.
          6    2    1    2  501    0  0.16721453447E+02  0.25630052696E+02 -0.29612607543E+03  0.34454990756E+03  0.17345742890E+03 0.  0.
         24    2    5    5    0    0 -0.39931722292E+02  0.22056582765E+02 -0.78848188439E+02  0.11992995701E+03  0.78007195052E+02 0.  0.
          5    1    5    5  501    0  0.56653175740E+02  0.35734699312E+01 -0.21727788699E+03  0.22461995055E+03  0.47000000000E+01 0. -1.
        -13    1    6    6    0    0 -0.56610102182E+02 -0.37058767134E+01 -0.64955938656E+02  0.86242165777E+02  0.00000000000E+00 0.  1.
         14    1    6    6    0    0  0.16678379890E+02  0.25762459478E+02 -0.13892249783E+02  0.33687791233E+02  0.00000000000E+00 0. -1.
         -5    1    3    3    0  503  0.54262706300E+01 -0.75772663019E+02 -0.11051944382E+03  0.13419231847E+03  0.47000000000E+01 0.  1.
         13    1    4    4    0    0 -0.28966318538E+02  0.53852592877E+02 -0.23836558715E+02  0.65630259032E+02  0.00000000000E+00 0. -1.
        -14    1    4    4    0    0  0.68185944606E+01 -0.37099825547E+01 -0.64922250292E+02  0.65384675452E+02  0.00000000000E+00 0.  1.
</event>
<event>
12    1  0.8494789E-002  0.1728460E+03  0.7818608E-02  0.1175717E+00
         21   -1    0    0  503  502  0.00000000000E+00  0.00000000000E+00  0.17669618656E+03  0.17669618656E+03  0.00000000000E+00 0. -1.
         21   -1    0    0  501  503 -0.00000000000E+00 -0.00000000000E+00 -0.16865093016E+03  0.16865093016E+03  0.00000000000E+00 0. -1.
          6    2    1    2  501    0  0.23701370025E+01  0.67094413513E+01 -0.17433924117E+02  0.17372303164E+03  0.17269949583E+03 0.  0.
         24    2    3    3    0    0 -0.16110561553E+02  0.69463071023E+02 -0.17413149026E+02  0.10813610697E+03  0.79407376493E+02 0.  0.
         -6    2    1    2    0  502 -0.23701370025E+01 -0.67094413513E+01  0.25479180518E+02  0.17162408508E+03  0.16957300430E+03 0.  0.
        -24    2    5    5    0    0 -0.60808121865E+02 -0.17165275269E+02 -0.76486912387E+01  0.10347815031E+03  0.81590138834E+02 0.  0.
          5    1    3    3  501    0  0.18480698556E+02 -0.62753629671E+02 -0.20775091481E-01  0.65586924670E+02  0.47000000000E+01 0. -1.
        -11    1    4    4    0    0 -0.14801527894E+02  0.52690832541E+02  0.26720470717E+02  0.60904783204E+02  0.00000000000E+00 0.  1.
         12    1    4    4    0    0 -0.13090336598E+01  0.16772238482E+02 -0.44133619743E+02  0.47231323763E+02  0.00000000000E+00 0. -1.
         -5    1    5    5    0  502  0.58437984862E+02  0.10455833918E+02  0.33127871756E+02  0.68145934763E+02  0.47000000000E+01 0.  1.
         11    1    6    6    0    0 -0.22968502784E+02  0.31480700154E+02  0.82448252451E+01  0.39831692729E+02  0.00000000000E+00 0. -1.
        -12    1    6    6    0    0 -0.37839619080E+02 -0.48645975422E+02 -0.15893516484E+02  0.63646457585E+02  0.00000000000E+00 0.  1.
</event>
<event>
12    1  0.8494789E-002  0.2988123E+03  0.7818608E-02  0.1086174E+00
         21   -1    0    0  503  502  0.00000000000E+00  0.00000000000E+00  0.19290838521E+04  0.19290838521E+04  0.00000000000E+00 0. -1.
         21   -1    0    0  501  503 -0.00000000000E+00 -0.00000000000E+00 -0.52156523370E+02  0.52156523370E+02  0.00000000000E+00 0.  1.
          6    2    1    2  501    0 -0.99666989708E+02  0.22220895551E+03  0.12786261419E+04  0.13124705320E+04  0.16847479868E+03 0.  0.
         24    2    3    3    0    0 -0.91166515576E+02  0.23652673844E+03  0.12567011038E+04  0.12845410805E+04  0.80572274429E+02 0.  0.
         -6    2    1    2    0  502  0.99666989708E+02 -0.22220895551E+03  0.59830118677E+03  0.66876984344E+03  0.17314290242E+03 0.  0.
        -24    2    5    5    0    0  0.12614731274E+03 -0.20051451762E+03  0.43392445345E+03  0.50080063019E+03  0.79947630415E+02 0.  0.
          5    1    3    3  501    0 -0.85004741317E+01 -0.14317782929E+02  0.21925038070E+02  0.27929451532E+02  0.47000000000E+01 0. -1.
        -13    1    4    4    0    0  0.53994930899E+01  0.33836045715E+02  0.87329156625E+02  0.93810522395E+02  0.00000000000E+00 0.  1.
         14    1    4    4    0    0 -0.96566008666E+02  0.20269069272E+03  0.11693719472E+04  0.11907305581E+04  0.00000000000E+00 0. -1.
         -5    1    5    5    0  502 -0.26480323032E+02 -0.21694437893E+02  0.16437673332E+03  0.16796921325E+03  0.47000000000E+01 0.  1.
         13    1    6    6    0    0  0.11569015297E+01 -0.66866359699E+02  0.12414499177E+03  0.14101215359E+03  0.00000000000E+00 0. -1.
        -14    1    6    6    0    0  0.12499041121E+03 -0.13364815792E+03  0.30977946168E+03  0.35978847659E+03  0.00000000000E+00 0.  1.
</event>
<event>
12    1  0.8494789E-002  0.2502798E+03  0.7818608E-02  0.1113491E+00
         21   -1    0    0  503  502  0.00000000000E+00  0.00000000000E+00  0.27242200420E+03  0.27242200420E+03  0.00000000000E+00 0. -1.
         21   -1    0    0  501  503 -0.00000000000E+00 -0.00000000000E+00 -0.50192485288E+03  0.50192485288E+03  0.00000000000E+00 0.  1.
          6    2    1    2  501    0  0.16878175250E+03  0.66371502721E+02 -0.40061925945E+03  0.47116241913E+03  0.16913242684E+03 0.  0.
         24    2    3    3    0    0  0.13142379823E+03  0.58911093455E+02 -0.16755292711E+03  0.23495640794E+03  0.79923704712E+02 0.  0.
         -6    2    1    2    0  502 -0.16878175250E+03 -0.66371502721E+02  0.17111641077E+03  0.30318443795E+03  0.17247469679E+03 0.  0.
        -24    2    5    5    0    0 -0.11655071696E+03 -0.89993665676E+02  0.17893141356E+03  0.24513918039E+03  0.79961475226E+02 0.  0.
          5    1    3    3  501    0  0.37357954268E+02  0.74604092656E+01 -0.23306633234E+03  0.23620601119E+03  0.47000000000E+01 0. -1.
        -11    1    4    4    0    0  0.34560140967E+02  0.12745773073E+02 -0.10380327471E+03  0.11014525826E+03  0.00000000000E+00 0.  1.
         12    1    4    4    0    0  0.96863657266E+02  0.46165320383E+02 -0.63749652398E+02  0.12481114969E+03  0.00000000000E+00 0. -1.
         -5    1    5    5    0  502 -0.52231035543E+02  0.23622162955E+02 -0.78150027899E+01  0.58045257560E+02  0.47000000000E+01 0.  1.
         11    1    6    6    0    0 -0.48915257816E+02 -0.59067256520E+02  0.14361419756E+03  0.16280872514E+03  0.00000000000E+00 0. -1.
        -12    1    6    6    0    0 -0.67635459143E+02 -0.30926409156E+02  0.35317215998E+02  0.82330455256E+02  0.00000000000E+00 0.  1.
</event>
<event>
12    1  0.8494789E-002  0.2211963E+03  0.7818608E-02  0.1133029E+00
         21   -1    0    0  501  502  0.00000000000E+00  0.00000000000E+00  0.17062820769E+03  0.17062820769E+03  0.00000000000E+00 0. -1.
         21   -1    0    0  502  503 -0.00000000000E+00 -0.00000000000E+00 -0.34532013095E+03  0.34532013095E+03  0.00000000000E+00 0.  1.
         -6    2    1    2    0  503  0.13852850946E+03 -0.14465609896E+02  0.19149805076E+02  0.22183541573E+03  0.17159497322E+03 0.  0.
        -24    2    3    3    0    0  0.11827714171E+03  0.69299698861E+01 -0.46730820805E+02  0.14951504795E+03  0.78316493892E+02 0.  0.
          6    2    1    2  501    0 -0.13852850946E+03  0.14465609896E+02 -0.19384172834E+03  0.29411292292E+03  0.17183827856E+03 0.  0.
         24    2    5    5    0    0 -0.15435480607E+03 -0.25039000938E+02 -0.17321118828E+03  0.24658613968E+03  0.79688460963E+02 0.  0.
          5    1    5    5  501    0  0.15826296613E+02  0.39504610834E+02 -0.20630540057E+02  0.47526783235E+02  0.47000000000E+01 0. -1.
        -13    1    6    6    0    0 -0.11675932370E+02 -0.84723741315E+01 -0.65446010990E+02  0.67017078977E+02  0.00000000000E+00 0.  1.
         14    1    6    6    0    0 -0.14267887370E+03 -0.16566626807E+02 -0.10776517729E+03  0.17956906070E+03  0.00000000000E+00 0. -1.
         -5    1    3    3    0  503  0.20251367748E+02 -0.21395579782E+02  0.65880625881E+02  0.72320367783E+02  0.47000000000E+01 0.  1.
         13    1    4    4    0    0  0.60183077021E+02 -0.35653180466E+00  0.17428003952E+02  0.62656725069E+02  0.00000000000E+00 0. -1.
        -14    1    4    4    0    0  0.58094064692E+02  0.72865016907E+01 -0.64158824756E+02  0.86858322880E+02  0.00000000000E+00 0.  1.
</event>
<event>
12    1  0.8494789E-002  0.2361319E+03  0.7818608E-02  0.1122431E+00
         21   -1    0    0  503  502  0.00000000000E+00  0.00000000000E+00  0.30693858507E+03  0.30693858507E+03  0.00000000000E+00 0. -1.
         21   -1    0    0  501  503 -0.00000000000E+00 -0.00000000000E+00 -0.20994164346E+03  0.20994164346E+03  0.00000000000E+00 0. -1.
          6    2    1    2  501    0  0.63032568008E+02 -0.14937569906E+03 -0.46599264862E+02  0.24068598441E+03  0.17167424824E+03 0.  0.
         24    2    3    3    0    0  0.74513325317E+02 -0.35410193788E+02  0.37466382687E+01  0.11547917892E+03  0.80717321511E+02 0.  0.
         -6    2    1    2    0  502 -0.63032568008E+02  0.14937569906E+03  0.14359620647E+03  0.27619424413E+03  0.17139774175E+03 0.  0.
        -24    2    5    5    0    0 -0.18118898472E+02  0.70241273732E+02  0.15060698089E+03  0.18481188292E+03  0.78808872315E+02 0.  0.
          5    1    3    3  501    0 -0.11480757309E+02 -0.11396550527E+03 -0.50345903131E+02  0.12520680549E+03  0.47000000000E+01 0. -1.
        -11    1    4    4    0    0  0.62180349989E+02 -0.31146877348E+01 -0.28255757744E+02  0.68370205866E+02  0.00000000000E+00 0.  1.
         12    1    4    4    0    0  0.12332975328E+02 -0.32295506053E+02  0.32002396013E+02  0.47108973054E+02  0.00000000000E+00 0. -1.
         -5    1    5    5    0  502 -0.44913669536E+02  0.79134425323E+02 -0.70107744204E+01  0.91382361210E+02  0.47000000000E+01 0.  1.
         13    1    6    6    0    0 -0.26785644672E+02  0.78085417985E+02  0.86202753044E+02  0.11935542675E+03  0.00000000000E+00 0. -1.
        -14    1    6    6    0    0  0.86667461994E+01 -0.78441442537E+01  0.64404227850E+02  0.65456456165E+02  0.00000000000E+00 0.  1.
</event>
<event>
12    1  0.8494789E-002  0.2113672E+03  0.7818608E-02  0.1140764E+00
         21   -1    0    0  501  502  0.00000000000E+00  0.00000000000E+00  0.37046687954E+03  0.37046687954E+03  0.00000000000E+00 0. -1.
         21   -1    0    0  502  503 -0.00000000000E+00 -0.00000000000E+00 -0.15498759048E+03  0.15498759048E+03  0.00000000000E+00 0.  1.
         -6    2    1    2    0  503 -0.10264334515E+03  0.64940246481E+02 -0.17732143731E+02  0.21071064263E+03  0.17126486529E+03 0.  0.
        -24    2    3    3    0    0 -0.18358984059E+02 -0.23863904875E+02 -0.14577810701E+02  0.88146085606E+02  0.81551711149E+02 0.  0.
          6    2    1    2  501    0  0.10264334515E+03 -0.64940246481E+02  0.23321143279E+03  0.31474382738E+03  0.17298327252E+03 0.  0.
         24    2    5    5    0    0  0.74998001075E+02  0.29342437024E+02  0.11566940168E+03  0.16147377637E+03  0.78795248555E+02 0.  0.
          5    1    5    5  501    0  0.27645344077E+02 -0.94282683504E+02  0.11754203111E+03  0.15327005100E+03  0.47000000000E+01 0. -1.
        -13    1    6    6    0    0 -0.59126635384E+01 -0.15019242756E+02  0.40303741594E+01  0.16636741236E+02  0.00000000000E+00 0.  1.
         14    1    6    6    0    0  0.80910664613E+02  0.44361679780E+02  0.11163902752E+03  0.14483703514E+03  0.00000000000E+00 0. -1.
         -5    1    3    3    0  503 -0.84284361093E+02  0.88804151355E+02 -0.31543330298E+01  0.12256455703E+03  0.47000000000E+01 0.  1.
         11    1    4    4    0    0 -0.40719833727E+02  0.13471629065E+02 -0.24126286484E+01  0.42958240483E+02  0.00000000000E+00 0. -1.
        -12    1    4    4    0    0  0.22360849668E+02 -0.37335533940E+02 -0.12165182053E+02  0.45187845123E+02  0.00000000000E+00 0.  1.
</event>
<event>
12    1  0.8494789E-002  0.1848729E+03  0.7818608E-02  0.1164602E+00
         21   -1    0    0  503  502  0.00000000000E+00  0.00000000000E+00  0.21594851004E+03  0.21594851004E+03  0.00000000000E+00 0. -1.
         21   -1    0    0  501  503 -0.00000000000E+00 -0.00000000000E+00 -0.16564538419E+03  0.16564538419E+03  0.00000000000E+00 0. -1.
          6    2    1    2  501    0  0.41527813326E+02  0.24286489580E+02 -0.26853369038E+02  0.18681300090E+03  0.17850378433E+03 0.  0.
         24    2    3    3    0    0 -0.20159995840E+01  0.36432652844E+01 -0.80096978218E+02  0.11484649292E+03  0.82200081389E+02 0.  0.
         -6    2    1    2    0  502 -0.41527813326E+02 -0.24286489580E+02  0.77156494885E+02  0.19478089333E+03  0.17225585287E+03 0.  0.
        -24    2    5    5    0    0 -0.68863584576E+02 -0.36254915514E+02  0.84804532972E+00  0.11271045357E+03  0.81524934738E+02 0.  0.
          5    1    3    3  501    0  0.43543812910E+02  0.20643224296E+02  0.53243609180E+02  0.71966507978E+02  0.47000000000E+01 0. -1.
        -11    1    4    4    0    0  0.58596439823E+01 -0.37264083203E+02 -0.23046099215E+02  0.44204864140E+02  0.00000000000E+00 0.  1.
         12    1    4    4    0    0 -0.78756435663E+01  0.40907348488E+02 -0.57050879003E+02  0.70641628781E+02  0.00000000000E+00 0. -1.
         -5    1    5    5    0  502  0.27335771250E+02  0.11968425934E+02  0.76308449555E+02  0.82070439762E+02  0.47000000000E+01 0.  1.
         13    1    6    6    0    0 -0.48392498098E+01 -0.21138778777E+02 -0.32410718231E+02  0.38996422440E+02  0.00000000000E+00 0. -1.
        -14    1    6    6    0    0 -0.64024334767E+02 -0.15116136737E+02  0.33258763561E+02  0.73714031132E+02  0.00000000000E+00 0.  1.
</event>
<event>
12    1  0.8494789E-002  0.1935012E+03  0.7818608E-02  0.1155749E+00
         21   -1    0    0  501  502  0.00000000000E+00  0.00000000000E+00  0.35123733346E+03  0.35123733346E+03  0.00000000000E+00 0. -1.
         21   -1    0    0  502  503 -0.00000000000E+00 -0.00000000000E+00 -0.11519886092E+03  0.11519886092E+03  0.00000000000E+00 0. -1.
         -6    2    1    2    0  503  0.83797099278E+02  0.10069313105E+02  0.51181632559E+02  0.20015559783E+03  0.17412455002E+03 0.  0.
        -24    2    3    3    0    0  0.20909033340E+02 -0.39967008932E+02 -0.19536847979E+02  0.93002735761E+02  0.78951066820E+02 0.  0.
          6    2    1    2  501    0 -0.83797099278E+02 -0.10069313105E+02  0.18485683998E+03  0.26628059655E+03  0.17207544827E+03 0.  0.
         24    2    5    5    0    0 -0.77242183987E+02  0.79621118067E+01  0.20804679990E+03  0.23581810421E+03  0.79353368611E+02 0.  0.
          5    1    5    5  501    0 -0.65549152918E+01 -0.18031424912E+02 -0.23189959919E+02  0.30462492345E+02  0.47000000000E+01 0. -1.
        -13    1    6    6    0    0 -0.38891282257E+01  0.31315935494E+02  0.39767640894E+02  0.50766902570E+02  0.00000000000E+00 0.  1.
         14    1    6    6    0    0 -0.73353055761E+02 -0.23353823688E+02  0.16827915901E+03  0.18505120164E+03  0.00000000000E+00 0. -1.
         -5    1    3    3    0  503  0.62888065938E+02  0.50036322037E+02  0.70718480538E+02  0.10715286207E+03  0.47000000000E+01 0.  1.
         11    1    4    4    0    0  0.35172489316E+02  0.30044490235E+01  0.12598001468E+02  0.37481200082E+02  0.00000000000E+00 0. -1.
        -12    1    4    4    0    0 -0.14263455976E+02 -0.42971457956E+02 -0.32134849447E+02  0.55521535679E+02  0.00000000000E+00 0.  1.
</event>
<event>
12    1  0.8494789E-002  0.2084848E+03  0.7818608E-02  0.1143207E+00
         21   -1    0    0  503  502  0.00000000000E+00  0.00000000000E+00  0.42200200761E+03  0.42200200761E+03  0.00000000000E+00 0. -1.
         21   -1    0    0  501  503 -0.00000000000E+00 -0.00000000000E+00 -0.17342866392E+03  0.17342866392E+03  0.00000000000E+00 0.  1.
          6    2    1    2  501    0 -0.25570991397E+02  0.11124020916E+03 -0.66484493198E+02  0.21882896139E+03  0.17446394118E+03 0.  0.
         24    2    3    3    0    0 -0.57091314035E+02  0.11413802387E+03 -0.92870977038E+02  0.17735288878E+03  0.80883386137E+02 0.  0.
         -6    2    1    2    0  502  0.25570991397E+02 -0.11124020916E+03  0.31505783689E+03  0.37660171015E+03  0.17186956614E+03 0.  0.
        -24    2    5    5    0    0  0.24850374055E+01 -0.13004455157E+03  0.30337862112E+03  0.34427434332E+03  0.97818581619E+02 0.  0.
          5    1    3    3  501    0  0.31520322638E+02 -0.28978147105E+01  0.26386483840E+02  0.41476072605E+02  0.47000000000E+01 0. -1.
        -11    1    4    4    0    0 -0.34566225702E+02  0.12029356934E+03 -0.89248213141E+02  0.15372251082E+03  0.00000000000E+00 0.  1.
         12    1    4    4    0    0 -0.22525088332E+02 -0.61555454716E+01 -0.36227638966E+01  0.23630377963E+02  0.00000000000E+00 0. -1.
         -5    1    5    5    0  502  0.23085953991E+02  0.18804342409E+02  0.11679215768E+02  0.32327366828E+02  0.47000000000E+01 0.  1.
         13    1    6    6    0    0  0.15466166778E+02 -0.13690290531E+02  0.14950544217E+03  0.15092549025E+03  0.00000000000E+00 0. -1.
        -14    1    6    6    0    0 -0.12981129372E+02 -0.11635426104E+03  0.15387317895E+03  0.19334885307E+03  0.00000000000E+00 0.  1.
</event>
<event>
12    1  0.8494789E-002  0.1701018E+03  0.7818608E-02  0.1179128E+00
         21   -1    0    0  501  502  0.00000000000E+00  0.00000000000E+00  0.21192096754E+03  0.21192096754E+03  0.00000000000E+00 0. -1.
         21   -1    0    0  502  503 -0.00000000000E+00 -0.00000000000E+00 -0.20279936117E+03  0.20279936117E+03  0.00000000000E+00 0. -1.
         -6    2    1    2    0  503  0.23430007428E+02 -0.27131866108E+02 -0.11767704813E+03  0.20255878647E+03  0.16092566890E+03 0.  0.
        -24    2    3    3    0    0  0.36760890104E+02  0.40573444220E+02 -0.66415888695E+02  0.11646861312E+03  0.78462093745E+02 0.  0.
          6    2    1    2  501    0 -0.23430007428E+02  0.27131866108E+02  0.12679865450E+03  0.21216154225E+03  0.16628144160E+03 0.  0.
         24    2    5    5    0    0 -0.39745993035E+02 -0.38665388697E+02  0.49824767314E+02  0.10948457582E+03  0.80184840585E+02 0.  0.
          5    1    5    5  501    0  0.16315985607E+02  0.65797254804E+02  0.76973887183E+02  0.10267696642E+03  0.47000000000E+01 0. -1.
        -13    1    6    6    0    0 -0.40884128043E+02 -0.42578956886E+02  0.68468002519E+02  0.90401033535E+02  0.00000000000E+00 0.  1.
         14    1    6    6    0    0  0.11381350075E+01  0.39135681891E+01 -0.18643235206E+02  0.19083542286E+02  0.00000000000E+00 0. -1.
         -5    1    3    3    0  503 -0.13330882676E+02 -0.67705310328E+02 -0.51261159436E+02  0.86090173344E+02  0.47000000000E+01 0.  1.
         11    1    4    4    0    0 -0.15498088354E+02  0.29039008278E+02 -0.51134643627E+02  0.60812881229E+02  0.00000000000E+00 0. -1.
        -12    1    4    4    0    0  0.52258978458E+02  0.11534435942E+02 -0.15281245068E+02  0.55655731896E+02  0.00000000000E+00 0.  1.
</event>
<event>
12    1  0.8494789E-002  0.2115996E+03  0.7818608E-02  0.1140462E+00
         21   -1    0    0  501  502  0.00000000000E+00  0.00000000000E+00  0.39536384537E+03  0.39536384537E+03  0.00000000000E+00 0. -1.
         21   -1    0    0  502  503 -0.00000000000E+00 -0.00000000000E+00 -0.17297401275E+03  0.17297401275E+03  0.00000000000E+00 0.  1.
         -6    2    1    2    0  503  0.12279260380E+03  0.66847534233E+01 -0.56243195824E+02  0.21894681257E+03  0.17219669039E+03 0.  0.
        -24    2    3    3    0    0 -0.59832017783E+01 -0.98809213226E+01 -0.12229333610E+02  0.81771961560E+02  0.80022907890E+02 0.  0.
          6    2    1    2  501    0 -0.12279260380E+03 -0.66847534233E+01  0.27863302844E+03  0.34939104555E+03  0.17121632135E+03 0.  0.
         24    2    5    5    0    0  0.93900639558E+00  0.22575129794E+02  0.97626553460E+02  0.12814212214E+03  0.79868274721E+02 0.  0.
          5    1    5    5  501    0 -0.12373161020E+03 -0.29259883218E+02  0.18100647498E+03  0.22124892342E+03  0.47000000000E+01 0. -1.
        -13    1    6    6    0    0  0.85750935595E+01 -0.22797629591E+02  0.52137534456E+01  0.24908780972E+02  0.00000000000E+00 0.  1.
         14    1    6    6    0    0 -0.76360871639E+01  0.45372759386E+02  0.92412800014E+02  0.10323334116E+03  0.00000000000E+00 0. -1.
         -5    1    3    3    0  503  0.12877580558E+03  0.16565674746E+02 -0.44013862214E+02  0.13717485101E+03  0.47000000000E+01 0.  1.
         13    1    4    4    0    0 -0.52666714240E+01 -0.22855779888E+02 -0.42660142378E+02  0.48682771592E+02  0.00000000000E+00 0. -1.
        -14    1    4    4    0    0 -0.71653035432E+00  0.12974858565E+02  0.30430808768E+02  0.33089189969E+02  0.00000000000E+00 0.  1.
</event>
<event>
12    1  0.8494789E-002  0.1818930E+03  0.7818608E-02  0.1166420E+00
         21   -1    0    0  503  502  0.00000000000E+00  0.00000000000E+00  0.86127551626E+03  0.86127551626E+03  0.00000000000E+00 0. -1.
         21   -1    0    0  501  503 -0.00000000000E+00 -0.00000000000E+00 -0.38065068632E+02  0.38065068632E+02  0.00000000000E+00 0. -1.
          6    2    1    2  501    0 -0.19062136727E+02  0.50026195292E+02  0.42302081506E+03  0.45975350349E+03  0.17193222133E+03 0.  0.
         24    2    3    3    0    0  0.42942466656E+02 -0.45680585983E+01  0.16460516676E+03  0.18841268334E+03  0.80867519540E+02 0.  0.
         -6    2    1    2    0  502  0.19062136727E+02 -0.50026195292E+02  0.40018963258E+03  0.43958708140E+03  0.17383634500E+03 0.  0.
        -24    2    5    5    0    0  0.50459477245E+02 -0.16525304572E+02  0.37488288641E+03  0.38695036350E+03  0.79838341359E+02 0.  0.
          5    1    3    3  501    0 -0.62004603383E+02  0.54594253890E+02  0.25841564830E+03  0.27134082016E+03  0.47000000000E+01 0. -1.
        -13    1    4    4    0    0  0.63867649926E+02  0.78947639046E+01  0.95658993313E+02  0.11529114019E+03  0.00000000000E+00 0.  1.
         14    1    4    4    0    0 -0.20925183270E+02 -0.12462822503E+02  0.68946173446E+02  0.73121543148E+02  0.00000000000E+00 0. -1.
         -5    1    5    5    0  502 -0.31397340518E+02 -0.33500890719E+02  0.25306746166E+02  0.52636717908E+02  0.47000000000E+01 0.  1.
         13    1    6    6    0    0  0.56533506842E+02 -0.38779518316E+02  0.22222314669E+03  0.23255755280E+03  0.00000000000E+00 0. -1.
        -14    1    6    6    0    0 -0.60740295967E+01  0.22254213744E+02  0.15265973972E+03  0.15439281070E+03  0.00000000000E+00 0.  1.
</event>
<event>
12    1  0.8494789E-002  0.1973026E+03  0.7818608E-02  0.1153424E+00
         21   -1    0    0  501  502  0.00000000000E+00  0.00000000000E+00  0.73760315946E+03  0.73760315946E+03  0.00000000000E+00 0. -1.
         21   -1    0    0  502  503 -0.00000000000E+00 -0.00000000000E+00 -0.80420547134E+02  0.80420547134E+02  0.00000000000E+00 0. -1.
         -6    2    1    2    0  503  0.84264514594E+02 -0.44759523358E+02  0.85020543256E+02  0.21484137229E+03  0.17269742071E+03 0.  0.
        -24    2    3    3    0    0  0.10068702011E+03 -0.16156130202E+02  0.66618395404E+01  0.12969426878E+03  0.79858166063E+02 0.  0.
          6    2    1    2  501    0 -0.84264514594E+02  0.44759523358E+02  0.57216206907E+03  0.60318233431E+03  0.16539519880E+03 0.  0.
         24    2    5    5    0    0 -0.10683361299E+03  0.71115373507E+02  0.50825914727E+03  0.53031486245E+03  0.80222661029E+02 0.  0.
          5    1    5    5  501    0  0.22569098400E+02 -0.26355850149E+02  0.63902921801E+02  0.72867471854E+02  0.47000000000E+01 0. -1.
        -11    1    6    6    0    0 -0.36444110502E+01 -0.11052924161E+02  0.11578732477E+02  0.16416939732E+02  0.00000000000E+00 0.  1.
         12    1    6    6    0    0 -0.10318920194E+03  0.82168297668E+02  0.49668041479E+03  0.51389792272E+03  0.00000000000E+00 0. -1.
         -5    1    3    3    0  503 -0.16422505515E+02 -0.28603393156E+02  0.78358703716E+02  0.85147103506E+02  0.47000000000E+01 0.  1.
         11    1    4    4    0    0  0.10744181855E+03 -0.25269747252E+02 -0.85661657432E+01  0.11070539144E+03  0.00000000000E+00 0. -1.
        -12    1    4    4    0    0 -0.67547984377E+01  0.91136170498E+01  0.15228005284E+02  0.18988877339E+02  0.00000000000E+00 0.  1.
</event>
<event>
12    1  0.8494789E-002  0.1832087E+03  0.7818608E-02  0.1164957E+00
         21   -1    0    0  503  502  0.00000000000E+00  0.00000000000E+00  0.11124178596E+03  0.11124178596E+03  0.00000000000E+00 0.  1.
         21   -1    0    0  501  503 -0.00000000000E+00 -0.00000000000E+00 -0.30064954772E+03  0.30064954772E+03  0.00000000000E+00 0.  1.
          6    2    1    2  501    0 -0.58227241393E+02  0.70034442847E+01 -0.10256097987E+03  0.20914077306E+03  0.17257360312E+03 0.  0.
         24    2    3    3    0    0 -0.65819566505E+02  0.63809137743E+02 -0.83497392849E+02  0.14855991338E+03  0.81819385580E+02 0.  0.
         -6    2    1    2    0  502  0.58227241393E+02 -0.70034442847E+01 -0.86846781898E+02  0.20275056062E+03  0.17356833361E+03 0.  0.
        -24    2    5    5    0    0 -0.20701119164E+02 -0.20177281589E+02 -0.32579202789E+00  0.84804777405E+02  0.79725059443E+02 0.  0.
          5    1    3    3  501    0  0.75923251126E+01 -0.56805693459E+02 -0.19063587019E+02  0.60580859683E+02  0.47000000000E+01 0. -1.
        -11    1    4    4    0    0 -0.32674448479E+02  0.30811038311E+02 -0.90726988924E+02  0.10123401693E+03  0.00000000000E+00 0.  1.
         12    1    4    4    0    0 -0.33145118026E+02  0.32998099433E+02  0.72295960755E+01  0.47325896448E+02  0.00000000000E+00 0. -1.
         -5    1    5    5    0  502  0.78928360557E+02  0.13173837305E+02 -0.86520989870E+02  0.11794578321E+03  0.47000000000E+01 0.  1.
         13    1    6    6    0    0 -0.20613378600E+02  0.16025914497E+02 -0.28705408591E+02  0.38803888918E+02  0.00000000000E+00 0. -1.
        -14    1    6    6    0    0 -0.87740564673E-01 -0.36203196087E+02  0.28379616563E+02  0.46000888487E+02  0.00000000000E+00 0.  1.
</event>
<event>
12    1  0.8494789E-002  0.2078487E+03  0.7818608E-02  0.1143461E+00
         21   -1    0    0  501  502  0.00000000000E+00  0.00000000000E+00  0.14219996184E+03  0.14219996184E+03  0.00000000000E+00 0.  1.
         21   -1    0    0  502  503 -0.00000000000E+00 -0.00000000000E+00 -0.58834864572E+03  0.58834864572E+03  0.00000000000E+00 0. -1.
         -6    2    1    2    0  503  0.55674480663E+02 -0.10105978116E+03 -0.47792968906E+03  0.52116971802E+03  0.17288250384E+03 0.  0.
        -24    2    3    3    0    0  0.63975956448E+02 -0.88940582802E+02 -0.48539839522E+03  0.50403317693E+03  0.80215279678E+02 0.  0.
          6    2    1    2  501    0 -0.55674480663E+02  0.10105978116E+03  0.31781005179E+02  0.20937888953E+03  0.17180442348E+03 0.  0.
         24    2    5    5    0    0  0.11588260333E+02  0.10928922642E+03  0.37600488544E+02  0.14120296650E+03  0.80287347812E+02 0.  0.
          5    1    5    5  501    0 -0.67262740996E+02 -0.82294452633E+01 -0.58194833648E+01  0.68175923039E+02  0.47000000000E+01 0. -1.
        -11    1    6    6    0    0  0.38696834394E+02  0.26687352428E+02  0.25352627083E+02  0.53408009434E+02  0.00000000000E+00 0.  1.
         12    1    6    6    0    0 -0.27108574061E+02  0.82601873995E+02  0.12247861461E+02  0.87794957061E+02  0.00000000000E+00 0. -1.
         -5    1    3    3    0  503 -0.83014757850E+01 -0.12119198357E+02  0.74687061549E+01  0.17136541094E+02  0.47000000000E+01 0.  1.
         13    1    4    4    0    0  0.50104933307E+02 -0.96712644551E+02 -0.32326111720E+03  0.34111814647E+03  0.00000000000E+00 0. -1.
        -14    1    4    4    0    0  0.13871023141E+02  0.77720617492E+01 -0.16213727802E+03  0.16291503046E+03  0.00000000000E+00 0.  1.
</event>
<event>
12    1  0.8494789E-002  0.4368673E+03  0.7818608E-02  0.1031734E+00
         21   -1    0    0  501  502  0.00000000000E+00  0.00000000000E+00  0.10732780927E+04  0.10732780927E+04  0.00000000000E+00 0. -1.
         21   -1    0    0  502  503 -0.00000000000E+00 -0.00000000000E+00 -0.20724687923E+03  0.20724687923E+03  0.00000000000E+00 0.  1.
         -6    2    1    2    0  503  0.42051811717E+02  0.39965482757E+03  0.19141656212E+03  0.47696260002E+03  0.17134960023E+03 0.  0.
        -24    2    3    3    0    0  0.35214773669E+02  0.32234340591E+03  0.81952197566E+02  0.34269295299E+03  0.74678951011E+02 0.  0.
          6    2    1    2  501    0 -0.42051811717E+02 -0.39965482757E+03  0.67461465134E+03  0.80356237190E+03  0.17063183075E+03 0.  0.
         24    2    5    5    0    0  0.20030133500E+02 -0.34061186399E+03  0.53552007203E+03  0.64013155638E+03  0.81049452692E+02 0.  0.
          5    1    5    5  501    0 -0.62081945217E+02 -0.59042963581E+02  0.13909457931E+03  0.16343081553E+03  0.47000000000E+01 0. -1.
        -11    1    6    6    0    0  0.25805843233E+02 -0.36810443479E+02  0.48803108570E+02  0.66352797229E+02  0.00000000000E+00 0.  1.
         12    1    6    6    0    0 -0.57757097327E+01 -0.30380142051E+03  0.48671696346E+03  0.57377875915E+03  0.00000000000E+00 0. -1.
         -5    1    3    3    0  503  0.68370380484E+01  0.77311421658E+02  0.10946436455E+03  0.13426964703E+03  0.47000000000E+01 0.  1.
         13    1    4    4    0    0  0.50331893805E+01 -0.30763948793E+01  0.81125587342E+00  0.59544384190E+01  0.00000000000E+00 0. -1.
        -14    1    4    4    0    0  0.30181584288E+02  0.32541980079E+03  0.81140941693E+02  0.33673851457E+03  0.00000000000E+00 0.  1.
</event>
<event>
12    1  0.8494789E-002  0.2605239E+03  0.7818608E-02  0.1107660E+00
         21   -1    0    0  501  502  0.00000000000E+00  0.00000000000E+00  0.97869025597E+02  0.97869025597E+02  0.00000000000E+00 0. -1.
         21   -1    0    0  502  503 -0.00000000000E+00 -0.00000000000E+00 -0.87771639396E+03  0.87771639396E+03  0.00000000000E+00 0. -1.
         -6    2    1    2    0  503  0.57614902037E+02  0.18636716391E+03 -0.61881621276E+03  0.66931148982E+03  0.16429293506E+03 0.  0.
        -24    2    3    3    0    0  0.70642167590E+02  0.20393940167E+03 -0.53318417807E+03  0.58080483159E+03  0.80419458165E+02 0.  0.
          6    2    1    2  501    0 -0.57614902037E+02 -0.18636716391E+03 -0.16103115561E+03  0.30627392974E+03  0.17268610320E+03 0.  0.
         24    2    5    5    0    0 -0.67609492188E+02 -0.20430661815E+03 -0.16720360516E+03  0.28432159537E+03  0.81052368034E+02 0.  0.
          5    1    5    5  501    0  0.99945901500E+01  0.17939454236E+02  0.61724495532E+01  0.21952334364E+02  0.47000000000E+01 0. -1.
        -13    1    6    6    0    0 -0.45547129429E+02 -0.78356611319E+02 -0.11447257203E+03  0.14600777132E+03  0.00000000000E+00 0.  1.
         14    1    6    6    0    0 -0.22062362759E+02 -0.12595000683E+03 -0.52731033127E+02  0.13831382406E+03  0.00000000000E+00 0. -1.
         -5    1    3    3    0  503 -0.13027265552E+02 -0.17572237757E+02 -0.85632034684E+02  0.88506658234E+02  0.47000000000E+01 0.  1.
         11    1    4    4    0    0 -0.30267234489E+01  0.11384744833E+03 -0.27025587537E+03  0.29327229790E+03  0.00000000000E+00 0. -1.
        -12    1    4    4    0    0  0.73668891039E+02  0.90091953342E+02 -0.26292830271E+03  0.28753253369E+03  0.00000000000E+00 0.  1.
</event>
<event>
12    1  0.8494789E-002  0.2595115E+03  0.7818608E-02  0.1107458E+00
         21   -1    0    0  503  502  0.00000000000E+00  0.00000000000E+00  0.31039172667E+03  0.31039172667E+03  0.00000000000E+00 0. -1.
         21   -1    0    0  501  503 -0.00000000000E+00 -0.00000000000E+00 -0.72008836804E+03  0.72008836804E+03  0.00000000000E+00 0.  1.
          6    2    1    2  501    0 -0.13546739171E+03 -0.13965777361E+03 -0.63559150664E+03  0.68652953713E+03  0.17172808183E+03 0.  0.
         24    2    3    3    0    0 -0.81371630220E+02 -0.15107521133E+03 -0.56891940125E+03  0.59978872244E+03  0.81438103893E+02 0.  0.
         -6    2    1    2    0  502  0.13546739171E+03  0.13965777361E+03  0.22589486527E+03  0.34395055758E+03  0.17151614489E+03 0.  0.
        -24    2    5    5    0    0  0.11319409148E+03  0.67138550072E+02  0.20007400698E+03  0.26367637488E+03  0.11034099487E+03 0.  0.
          5    1    3    3  501    0 -0.54095761493E+02  0.11417437722E+02 -0.66672105394E+02  0.86740814691E+02  0.47000000000E+01 0. -1.
        -11    1    4    4    0    0 -0.11960023768E+02 -0.93212147442E+02 -0.36196029746E+03  0.37396096526E+03  0.00000000000E+00 0.  1.
         12    1    4    4    0    0 -0.69411606452E+02 -0.57863063886E+02 -0.20695910379E+03  0.22582775718E+03  0.00000000000E+00 0. -1.
         -5    1    5    5    0  502  0.22273300230E+02  0.72519223534E+02  0.25820858291E+02  0.80274182699E+02  0.47000000000E+01 0.  1.
         13    1    6    6    0    0  0.80314879182E+02  0.49543471657E+02  0.45677401045E+02  0.10484016581E+03  0.00000000000E+00 0. -1.
        -14    1    6    6    0    0  0.32879212302E+02  0.17595078414E+02  0.15439660594E+03  0.15883620907E+03  0.00000000000E+00 0.  1.
</event>
<event>
12    1  0.8494789E-002  0.1881224E+03  0.7818608E-02  0.1162222E+00
         21   -1    0    0  503  502  0.00000000000E+00  0.00000000000E+00  0.14271748168E+04  0.14271748168E+04  0.00000000000E+00 0. -1.
         21   -1    0    0  501  503 -0.00000000000E+00 -0.00000000000E+00 -0.50922066167E+02  0.50922066167E+02  0.00000000000E+00 0. -1.
          6    2    1    2  501    0  0.13747865176E+02 -0.74862067075E+02  0.15501861513E+03  0.24376386376E+03  0.17203696509E+03 0.  0.
         24    2    3    3    0    0  0.70728748013E+02 -0.68609484624E+02  0.88790435528E+02  0.15604740254E+03  0.82202391828E+02 0.  0.
         -6    2    1    2    0  502 -0.13747865176E+02  0.74862067075E+02  0.12212341355E+04  0.12343330192E+04  0.16239413688E+03 0.  0.
        -24    2    5    5    0    0  0.22030993159E+02 -0.13810844578E+02  0.62106869438E+03  0.62658006061E+03  0.78741000269E+02 0.  0.
          5    1    3    3  501    0 -0.56980882837E+02 -0.62525824512E+01  0.66228179601E+02  0.87716461222E+02  0.47000000000E+01 0. -1.
        -11    1    4    4    0    0  0.70710762496E+02 -0.70705015628E+02  0.10190175265E+03  0.14276966891E+03  0.00000000000E+00 0.  1.
         12    1    4    4    0    0  0.17985517099E-01  0.20955310046E+01 -0.13111317121E+02  0.13277733629E+02  0.00000000000E+00 0. -1.
         -5    1    5    5    0  502 -0.35778858336E+02  0.88672911653E+02  0.60016544108E+03  0.60775295856E+03  0.47000000000E+01 0.  1.
         13    1    6    6    0    0 -0.46337181492E-01  0.30503143401E+02  0.32194986765E+03  0.32339165292E+03  0.00000000000E+00 0. -1.
        -14    1    6    6    0    0  0.22077330341E+02 -0.44313987979E+02  0.29911882674E+03  0.30318840769E+03  0.00000000000E+00 0.  1.
</event>
<event>
12    1  0.8494789E-002  0.1797831E+03  0.7818608E-02  0.1169089E+00
         21   -1    0    0  501  502  0.00000000000E+00  0.00000000000E+00  0.93033112048E+03  0.93033112048E+03  0.00000000000E+00 0.  1.
         21   -1    0    0  502  503 -0.00000000000E+00 -0.00000000000E+00 -0.48264415577E+02  0.48264415577E+02  0.00000000000E+00 0.  1.
         -6    2    1    2    0  503  0.10330281009E+02 -0.23241397962E+02  0.17029878839E+03  0.24447326271E+03  0.17354717390E+03 0.  0.
        -24    2    3    3    0    0  0.57223741388E+02  0.19239992575E+02  0.15157681049E+03  0.17831989829E+03  0.71956394809E+02 0.  0.
          6    2    1    2  501    0 -0.10330281009E+02  0.23241397962E+02  0.71176791652E+03  0.73412227335E+03  0.17797490822E+03 0.  0.
         24    2    5    5    0    0 -0.43641165909E+02  0.73901761098E+02  0.51891277667E+03  0.53190634319E+03  0.79296068467E+02 0.  0.
          5    1    5    5  501    0  0.33310884900E+02 -0.50660363135E+02  0.19285513985E+03  0.20221593016E+03  0.47000000000E+01 0. -1.
        -11    1    6    6    0    0 -0.37032905482E+02  0.44481882692E+02  0.13594774447E+03  0.14775609363E+03  0.00000000000E+00 0.  1.
         12    1    6    6    0    0 -0.66082604276E+01  0.29419878406E+02  0.38296503220E+03  0.38415024956E+03  0.00000000000E+00 0. -1.
         -5    1    3    3    0  503 -0.46893460379E+02 -0.42481390537E+02  0.18721977896E+02  0.66153364424E+02  0.47000000000E+01 0.  1.
         11    1    4    4    0    0 -0.14032839731E+02  0.17727507742E+02  0.38926070107E+02  0.45015820060E+02  0.00000000000E+00 0. -1.
        -12    1    4    4    0    0  0.71256581119E+02  0.15124848332E+01  0.11265074038E+03  0.13330407823E+03  0.00000000000E+00 0.  1.
</event>
<event>
12    1  0.8494789E-002  0.2038626E+03  0.7818608E-02  0.1147331E+00
         21   -1    0    0  501  502  0.00000000000E+00  0.00000000000E+00  0.16789441585E+03  0.16789441585E+03  0.00000000000E+00 0. -1.
         21   -1    0    0  502  503 -0.00000000000E+00 -0.00000000000E+00 -0.44140051110E+03  0.44140051110E+03  0.00000000000E+00 0. -1.
         -6    2    1    2    0  503  0.73099752013E+02  0.84012620845E+02 -0.34035672323E+03  0.39475133995E+03  0.16608499972E+03 0.  0.
        -24    2    3    3    0    0  0.55223382840E+02  0.15894129925E+01 -0.26163649784E+03  0.27928656759E+03  0.80592689450E+02 0.  0.
          6    2    1    2  501    0 -0.73099752013E+02 -0.84012620845E+02  0.66850627981E+02  0.21454358700E+03  0.17075786968E+03 0.  0.
         24    2    5    5    0    0 -0.79548648503E+02 -0.11601855627E+03  0.78388383134E+02  0.17959823020E+03  0.79514104422E+02 0.  0.
          5    1    5    5  501    0  0.64488964896E+01  0.32005935425E+02 -0.11537755154E+02  0.34945356807E+02  0.47000000000E+01 0. -1.
        -13    1    6    6    0    0 -0.17039990064E+02 -0.92105628245E+02  0.35836887088E+02  0.10029003187E+03  0.00000000000E+00 0.  1.
         14    1    6    6    0    0 -0.62508658439E+02 -0.23912928025E+02  0.42551496046E+02  0.79308198330E+02  0.00000000000E+00 0. -1.
         -5    1    3    3    0  503  0.17876369173E+02  0.82423207852E+02 -0.78720225397E+02  0.11546477235E+03  0.47000000000E+01 0.  1.
         11    1    4    4    0    0 -0.71231434946E+01  0.13245876522E+02 -0.15108940261E+03  0.15183609584E+03  0.00000000000E+00 0. -1.
        -12    1    4    4    0    0  0.62346526335E+02 -0.11656463530E+02 -0.11054709522E+03  0.12745047175E+03  0.00000000000E+00 0.  1.
</event>
<event>
12    1  0.8494789E-002  0.2551042E+03  0.7818608E-02  0.1110462E+00
         21   -1    0    0  501  502  0.00000000000E+00  0.00000000000E+00  0.29826498141E+03  0.29826498141E+03  0.00000000000E+00 0.  1.
         21   -1    0    0  502  503 -0.00000000000E+00 -0.00000000000E+00 -0.42932485288E+03  0.42932485288E+03  0.00000000000E+00 0.  1.
         -6    2    1    2    0  503 -0.97835893845E+02  0.16047518948E+03 -0.32164084682E+03  0.40915730500E+03  0.16921204842E+03 0.  0.
        -24    2    3    3    0    0 -0.99601315752E+02  0.18038187428E+03 -0.31941798270E+03  0.38850727016E+03  0.80324396194E+02 0.  0.
          6    2    1    2  501    0  0.97835893845E+02 -0.16047518948E+03  0.19058097535E+03  0.31843252929E+03  0.17249353317E+03 0.  0.
         24    2    5    5    0    0  0.12632497647E+03 -0.89624771180E+02  0.15259867010E+03  0.23301499530E+03  0.83779679086E+02 0.  0.
          5    1    5    5  501    0 -0.28489082625E+02 -0.70850418300E+02  0.37982305244E+02  0.85417533994E+02  0.47000000000E+01 0. -1.
        -13    1    6    6    0    0  0.94717278603E+02 -0.88565770705E+02  0.15404292343E+03  0.20135660125E+03  0.00000000000E+00 0.  1.
         14    1    6    6    0    0  0.31607697867E+02 -0.10590004749E+01 -0.14442533247E+01  0.31658394055E+02  0.00000000000E+00 0. -1.
         -5    1    3    3    0  503  0.17654219069E+01 -0.19906684796E+02 -0.22228641124E+01  0.20650034841E+02  0.47000000000E+01 0.  1.
         13    1    4    4    0    0 -0.41793432914E+02  0.29647914487E+02 -0.36999404252E+02  0.63203210228E+02  0.00000000000E+00 0. -1.
        -14    1    4    4    0    0 -0.57807882839E+02  0.15073395979E+03 -0.28241857845E+03  0.32530405993E+03  0.00000000000E+00 0.  1.
</event>
<event>
12    1  0.8494789E-002  0.2029614E+03  0.7818608E-02  0.1147794E+00
         21   -1    0    0  503  502  0.00000000000E+00  0.00000000000E+00  0.20902125900E+03  0.20902125900E+03  0.00000000000E+00 0. -1.
         21   -1    0    0  501  503 -0.00000000000E+00 -0.00000000000E+00 -0.19490174878E+03  0.19490174878E+03  0.00000000000E+00 0. -1.
          6    2    1    2  501    0  0.67973381534E+02 -0.73934883057E+02  0.14846563977E+02  0.20350369378E+03  0.17637059106E+03 0.  0.
         24    2    3    3    0    0  0.75830855328E+02 -0.29211649307E+02  0.64674217358E+02  0.13592564577E+03  0.87689153909E+02 0.  0.
         -6    2    1    2    0  502 -0.67973381534E+02  0.73934883057E+02 -0.72705375318E+00  0.20041931399E+03  0.17343766974E+03 0.  0.
        -24    2    5    5    0    0 -0.98081659745E+02  0.72554584898E+02 -0.39511187904E+02  0.15107650599E+03  0.79867370834E+02 0.  0.
          5    1    3    3  501    0 -0.78574737938E+01 -0.44723233750E+02 -0.49827653381E+02  0.67578048010E+02  0.47000000000E+01 0. -1.
        -11    1    4    4    0    0 -0.88129178283E+01 -0.26545516688E+02 -0.21461235014E+01  0.28052412070E+02  0.00000000000E+00 0.  1.
         12    1    4    4    0    0  0.84643773156E+02 -0.26661326197E+01  0.66820340859E+02  0.10787323370E+03  0.00000000000E+00 0. -1.
         -5    1    5    5    0  502  0.30108278212E+02  0.13802981599E+01  0.38784134151E+02  0.49342808004E+02  0.47000000000E+01 0.  1.
         11    1    6    6    0    0 -0.39734738346E+02  0.77457583476E+02 -0.19627640671E+02  0.89239962728E+02  0.00000000000E+00 0. -1.
        -12    1    6    6    0    0 -0.58346921400E+02 -0.49029985782E+01 -0.19883547233E+02  0.61836543261E+02  0.00000000000E+00 0.  1.
</event>
<event>
12    1  0.8494789E-002  0.1815698E+03  0.7818608E-02  0.1166433E+00
         21   -1    0    0  503  502  0.00000000000E+00  0.00000000000E+00  0.13889534725E+04  0.13889534725E+04  0.00000000000E+00 0. -1.
         21   -1    0    0  501  503 -0.00000000000E+00 -0.00000000000E+00 -0.23753080122E+02  0.23753080122E+02  0.00000000000E+00 0. -1.
          6    2    1    2  501    0  0.54615945336E+02  0.21844506683E+02  0.63925099380E+03  0.66453699187E+03  0.17177746223E+03 0.  0.
         24    2    3    3    0    0  0.10523331947E+02 -0.48003076088E+02  0.41650631037E+03  0.42692359289E+03  0.79819870739E+02 0.  0.
         -6    2    1    2    0  502 -0.54615945336E+02 -0.21844506683E+02  0.72594939860E+03  0.74816956077E+03  0.17115805090E+03 0.  0.
        -24    2    5    5    0    0 -0.99078066631E+02 -0.24420776866E+01  0.59873868338E+03  0.61194184499E+03  0.78500851240E+02 0.  0.
          5    1    3    3  501    0  0.44092613389E+02  0.69847582771E+02  0.22274468343E+03  0.23761339897E+03  0.47000000000E+01 0. -1.
        -11    1    4    4    0    0 -0.31241358676E+02 -0.25810248093E+01  0.11697087516E+03  0.12109859543E+03  0.00000000000E+00 0.  1.
         12    1    4    4    0    0  0.41764690623E+02 -0.45422051279E+02  0.29953543521E+03  0.30582499746E+03  0.00000000000E+00 0. -1.
         -5    1    5    5    0  502  0.44462121295E+02 -0.19402428996E+02  0.12721071522E+03  0.13622771578E+03  0.47000000000E+01 0.  1.
         11    1    6    6    0    0 -0.65330762977E+02  0.10193788523E+02  0.18183731230E+03  0.19348599448E+03  0.00000000000E+00 0. -1.
        -12    1    6    6    0    0 -0.33747303654E+02 -0.12635866210E+02  0.41690137108E+03  0.41845585051E+03  0.00000000000E+00 0.  1.
</event>
<event>
12    1  0.8494789E-002  0.2185497E+03  0.7818608E-02  0.1135394E+00
         21   -1    0    0  503  502  0.00000000000E+00  0.00000000000E+00  0.11883748778E+03  0.11883748778E+03  0.00000000000E+00 0. -1.
         21   -1    0    0  501  503 -0.00000000000E+00 -0.00000000000E+00 -0.90373227726E+03  0.90373227726E+03  0.00000000000E+00 0.  1.
          6    2    1    2  501    0 -0.77380125661E+01 -0.13505434038E+03 -0.77410171425E+03  0.80375376454E+03  0.16878121435E+03 0.  0.
         24    2    3    3    0    0 -0.17307219431E+02 -0.96785240125E+02 -0.74085464074E+03  0.75195075641E+03  0.83050700285E+02 0.  0.
         -6    2    1    2    0  502  0.77380125661E+01  0.13505434038E+03 -0.10793075227E+02  0.21881600049E+03  0.17165197321E+03 0.  0.
        -24    2    5    5    0    0 -0.53693551689E+02  0.88193411971E+02 -0.36425015870E+02  0.13727539663E+03  0.82805056186E+02 0.  0.
          5    1    3    3  501    0  0.95692068648E+01 -0.38269100252E+02 -0.33247073517E+02  0.51803008132E+02  0.47000000000E+01 0. -1.
        -13    1    4    4    0    0  0.23655381519E+02 -0.10534043589E+02 -0.28670334641E+03  0.28787037359E+03  0.00000000000E+00 0.  1.
         14    1    4    4    0    0 -0.40962600950E+02 -0.86251196537E+02 -0.45415129433E+03  0.46408038282E+03  0.00000000000E+00 0. -1.
         -5    1    5    5    0  502  0.61431564255E+02  0.46860928406E+02  0.25631940643E+02  0.81540603867E+02  0.47000000000E+01 0.  1.
         11    1    6    6    0    0  0.46211401973E+01  0.30046714691E+02  0.20940099027E+02  0.36914058944E+02  0.00000000000E+00 0. -1.
        -12    1    6    6    0    0 -0.58314691886E+02  0.58146697280E+02 -0.57365114898E+02  0.10036133768E+03  0.00000000000E+00 0.  1.
</event>
<event>
12    1  0.8494789E-002  0.1873291E+03  0.7818608E-02  0.1160898E+00
         21   -1    0    0  503  502  0.00000000000E+00  0.00000000000E+00  0.76069585580E+02  0.76069585580E+02  0.00000000000E+00 0. -1.
         21   -1    0    0  501  503 -0.00000000000E+00 -0.00000000000E+00 -0.67469943471E+03  0.67469943471E+03  0.00000000000E+00 0. -1.
          6    2    1    2  501    0 -0.17900693531E+02 -0.75241427816E+02 -0.88192324185E+02  0.20705092020E+03  0.17061796571E+03 0.  0.
         24    2    3    3    0    0  0.31614328990E+02 -0.32137381354E+02  0.42551167802E+01  0.93568253606E+02  0.81881835508E+02 0.  0.
         -6    2    1    2    0  502  0.17900693531E+02  0.75241427816E+02 -0.51043752494E+03  0.54371810009E+03  0.17059073305E+03 0.  0.
        -24    2    5    5    0    0  0.41835778350E+02  0.94713300573E+02 -0.48942535532E+03  0.50609306340E+03  0.76630077168E+02 0.  0.
          5    1    3    3  501    0 -0.49515022522E+02 -0.43104046462E+02 -0.92447440965E+02  0.11348266660E+03  0.47000000000E+01 0. -1.
        -13    1    4    4    0    0  0.46881548474E+02 -0.31434730050E+02 -0.24085874435E+02  0.61368975777E+02  0.00000000000E+00 0.  1.
         14    1    4    4    0    0 -0.15267219484E+02 -0.70265130402E+00  0.28340991215E+02  0.32199277829E+02  0.00000000000E+00 0. -1.
         -5    1    5    5    0  502 -0.23935084819E+02 -0.19471872757E+02 -0.21012169617E+02  0.37625036690E+02  0.47000000000E+01 0.  1.
         11    1    6    6    0    0  0.19171578740E+02  0.58893486009E+02 -0.12806917146E+03  0.14225928723E+03  0.00000000000E+00 0. -1.
        -12    1    6    6    0    0  0.22664199611E+02  0.35819814564E+02 -0.36135618386E+03  0.36383377616E+03  0.00000000000E+00 0.  1.
</event>
<event>
12    1  0.8494789E-002  0.2444417E+03  0.7818608E-02  0.1116919E+00
         21   -1    0    0  501  502  0.00000000000E+00  0.00000000000E+00  0.16009610261E+03  0.16009610261E+03  0.00000000000E+00 0. -1.
         21   -1    0    0  502  503 -0.00000000000E+00 -0.00000000000E+00 -0.47388351880E+03  0.47388351880E+03  0.00000000000E+00 0. -1.
         -6    2    1    2    0  503  0.17316586559E+03  0.21733048230E+01 -0.30341034279E+03  0.38962747083E+03  0.17251257827E+03 0.  0.
        -24    2    3    3    0    0  0.11713505807E+03 -0.57905264131E+02 -0.14328367925E+03  0.20959546197E+03  0.79538691833E+02 0.  0.
          6    2    1    2  501    0 -0.17316586559E+03 -0.21733048230E+01 -0.10377073409E+02  0.24435215058E+03  0.17207309371E+03 0.  0.
         24    2    5    5    0    0 -0.81066521943E+01 -0.11058777861E+02 -0.30434865338E+01  0.78824608900E+02  0.77563147051E+02 0.  0.
          5    1    5    5  501    0 -0.16505921339E+03  0.88854730385E+01 -0.73335868748E+01  0.16552754168E+03  0.47000000000E+01 0. -1.
        -13    1    6    6    0    0 -0.25735106015E+02  0.12199026015E+01 -0.33059198816E+02  0.41912939176E+02  0.00000000000E+00 0.  1.
         14    1    6    6    0    0  0.17628453821E+02 -0.12278680463E+02  0.30015712283E+02  0.36911669724E+02  0.00000000000E+00 0. -1.
         -5    1    3    3    0  503  0.56030807522E+02  0.60078568954E+02 -0.16012666354E+03  0.18003200886E+03  0.47000000000E+01 0.  1.
         11    1    4    4    0    0  0.41348833860E+02 -0.30098846963E+02 -0.75887614836E+01  0.51703539056E+02  0.00000000000E+00 0. -1.
        -12    1    4    4    0    0  0.75786224206E+02 -0.27806417168E+02 -0.13569491777E+03  0.15789192292E+03  0.00000000000E+00 0.  1.
</event>
<event>
12    1  0.8494789E-002  0.1730270E+03  0.7818608E-02  0.1174838E+00
         21   -1    0    0  501  502  0.00000000000E+00  0.00000000000E+00  0.72392418338E+02  0.72392418338E+02  0.00000000000E+00 0. -1.
         21   -1    0    0  502  503 -0.00000000000E+00 -0.00000000000E+00 -0.50168820252E+03  0.50168820252E+03  0.00000000000E+00 0.  1.
         -6    2    1    2    0  503 -0.13687195085E+02 -0.14350886652E+02 -0.33588390127E+03  0.37783108793E+03  0.17188673194E+03 0.  0.
        -24    2    3    3    0    0 -0.15546159252E+01 -0.25476950209E+02 -0.65436024738E+02  0.10684191344E+03  0.80509808794E+02 0.  0.
          6    2    1    2  501    0  0.13687195085E+02  0.14350886652E+02 -0.93411882910E+02  0.19624953293E+03  0.17144915295E+03 0.  0.
         24    2    5    5    0    0 -0.36458370835E+02 -0.20449934429E+02 -0.10036465027E+03  0.13463698629E+03  0.79414371690E+02 0.  0.
          5    1    5    5  501    0  0.50145565921E+02  0.34800821081E+02  0.69527673602E+01  0.61612546639E+02  0.47000000000E+01 0. -1.
        -11    1    6    6    0    0  0.21537553531E+01 -0.72213484673E+01 -0.92825894080E+02  0.93131268367E+02  0.00000000000E+00 0.  1.
         12    1    6    6    0    0 -0.38612126188E+02 -0.13228585961E+02 -0.75387561899E+01  0.41505717922E+02  0.00000000000E+00 0. -1.
         -5    1    3    3    0  503 -0.12132579160E+02  0.11126063557E+02 -0.27044787653E+03  0.27098917449E+03  0.47000000000E+01 0.  1.
         11    1    4    4    0    0 -0.33173044955E+02 -0.14518487898E+02 -0.34183183330E+01  0.36371998882E+02  0.00000000000E+00 0. -1.
        -12    1    4    4    0    0  0.31618429030E+02 -0.10958462311E+02 -0.62017706405E+02  0.70469914561E+02  0.00000000000E+00 0.  1.
</event>
<event>
12    1  0.8494789E-002  0.2223338E+03  0.7818608E-02  0.1132278E+00
         21   -1    0    0  501  502  0.00000000000E+00  0.00000000000E+00  0.14516222771E+03  0.14516222771E+03  0.00000000000E+00 0.  1.
         21   -1    0    0  502  503 -0.00000000000E+00 -0.00000000000E+00 -0.45165251053E+03  0.45165251053E+03  0.00000000000E+00 0.  1.
         -6    2    1    2    0  503 -0.34327306975E+02 -0.13629069869E+03 -0.30211029028E+03  0.37510389989E+03  0.17227533100E+03 0.  0.
        -24    2    3    3    0    0 -0.12640304881E+02 -0.25098566340E+02 -0.49521533774E+02  0.98233557913E+02  0.80048324487E+02 0.  0.
          6    2    1    2  501    0  0.34327306975E+02  0.13629069869E+03 -0.43799925480E+01  0.22171083835E+03  0.17141468127E+03 0.  0.
         24    2    5    5    0    0 -0.38980701465E+02  0.11265042088E+03  0.71284162016E+01  0.14368866004E+03  0.79912478980E+02 0.  0.
          5    1    5    5  501    0  0.73308008440E+02  0.23640277806E+02 -0.11508408750E+02  0.78022178309E+02  0.47000000000E+01 0. -1.
        -13    1    6    6    0    0 -0.23849201054E+02  0.91621922522E+02 -0.29193928941E+02  0.99073944932E+02  0.00000000000E+00 0.  1.
         14    1    6    6    0    0 -0.15131500411E+02  0.21028498358E+02  0.36322345142E+02  0.44614715111E+02  0.00000000000E+00 0. -1.
         -5    1    3    3    0  503 -0.21687002094E+02 -0.11119213235E+03 -0.25258875650E+03  0.27687034198E+03  0.47000000000E+01 0.  1.
         13    1    4    4    0    0 -0.23284634443E+02 -0.43771879932E+02 -0.63206940531E+01  0.49981024872E+02  0.00000000000E+00 0. -1.
        -14    1    4    4    0    0  0.10644329561E+02  0.18673313592E+02 -0.43200839721E+02  0.48252533041E+02  0.00000000000E+00 0.  1.
</event>
<event>
12    1  0.8494789E-002  0.1855907E+03  0.7818608E-02  0.1163036E+00
         21   -1    0    0  503  502  0.00000000000E+00  0.00000000000E+00  0.55724095851E+02  0.55724095851E+02  0.00000000000E+00 0.  1.
         21   -1    0    0  501  503 -0.00000000000E+00 -0.00000000000E+00 -0.10151334012E+04  0.10151334012E+04  0.00000000000E+00 0.  1.
          6    2    1    2  501    0 -0.49258355437E+02 -0.37483408813E+02 -0.81594813286E+03  0.83628341428E+03  0.17253174189E+03 0.  0.
         24    2    3    3    0    0  0.37758128348E+02 -0.33824463967E+02 -0.36552806719E+03  0.37749633742E+03  0.79516955718E+02 0.  0.
         -6    2    1    2    0  502  0.49258355437E+02  0.37483408813E+02 -0.14346117251E+03  0.23457408279E+03  0.17496428431E+03 0.  0.
        -24    2    5    5    0    0  0.82124480722E+02  0.59272808525E+02 -0.14595337372E+03  0.19478386794E+03  0.79879107064E+02 0.  0.
          5    1    3    3  501    0 -0.87016483785E+02 -0.36589448461E+01 -0.45042006568E+03  0.45878707686E+03  0.47000000000E+01 0. -1.
        -13    1    4    4    0    0  0.19172367279E+02 -0.11747904396E+02 -0.18082290836E+02  0.28854153369E+02  0.00000000000E+00 0.  1.
         14    1    4    4    0    0  0.18585761069E+02 -0.22076559570E+02 -0.34744577635E+03  0.34864218405E+03  0.00000000000E+00 0. -1.
         -5    1    5    5    0  502 -0.32866125284E+02 -0.21789399713E+02  0.24922012144E+01  0.39790214852E+02  0.47000000000E+01 0.  1.
         11    1    6    6    0    0 -0.39636475418E+01 -0.13283063274E+02 -0.30607557045E+02  0.33600190774E+02  0.00000000000E+00 0. -1.
        -12    1    6    6    0    0  0.86088128264E+02  0.72555871800E+02 -0.11534581668E+03  0.16118367717E+03  0.00000000000E+00 0.  1.
</event>
<event>
12    1  0.8494789E-002  0.1923409E+03  0.7818608E-02  0.1156695E+00
         21   -1    0    0  501  502  0.00000000000E+00  0.00000000000E+00  0.98863645269E+03  0.98863645269E+03  0.00000000000E+00 0. -1.
         21   -1    0    0  502  503 -0.00000000000E+00 -0.00000000000E+00 -0.46351617704E+02  0.46351617704E+02  0.00000000000E+00 0. -1.
         -6    2    1    2    0  503  0.47552978343E+02 -0.73226372751E+02  0.23893014937E+03  0.30580851948E+03  0.16972874503E+03 0.  0.
        -24    2    3    3    0    0  0.50589481249E+02  0.81061320709E+01  0.67877911149E+02  0.11632196351E+03  0.79362354947E+02 0.  0.
          6    2    1    2  501    0 -0.47552978343E+02  0.73226372751E+02  0.70335468562E+03  0.72917955092E+03  0.17138149342E+03 0.  0.
         24    2    5    5    0    0  0.12164314528E+02  0.41859105425E+02  0.18481724620E+03  0.20625199704E+03  0.80512834605E+02 0.  0.
          5    1    5    5  501    0 -0.59717292871E+02  0.31367267326E+02  0.51853743942E+03  0.52292755388E+03  0.47000000000E+01 0. -1.
        -11    1    6    6    0    0  0.41896438449E+02  0.33475813563E+01  0.99954542013E+02  0.10843167584E+03  0.00000000000E+00 0.  1.
         12    1    6    6    0    0 -0.29732123921E+02  0.38511524069E+02  0.84862704186E+02  0.97820321205E+02  0.00000000000E+00 0. -1.
         -5    1    3    3    0  503 -0.30365029068E+01 -0.81332504822E+02  0.17105223822E+03  0.18948655597E+03  0.47000000000E+01 0.  1.
         13    1    4    4    0    0  0.39453882198E+02 -0.22356559009E+02  0.50655197636E+01  0.45629859103E+02  0.00000000000E+00 0. -1.
        -14    1    4    4    0    0  0.11135599051E+02  0.30462691080E+02  0.62812391386E+02  0.70692104408E+02  0.00000000000E+00 0.  1.
</event>
<event>
12    1  0.8494789E-002  0.2066104E+03  0.7818608E-02  0.1145468E+00
         21   -1    0    0  501  502  0.00000000000E+00  0.00000000000E+00  0.86001509254E+02  0.86001509254E+02  0.00000000000E+00 0.  1.
         21   -1    0    0  502  503 -0.00000000000E+00 -0.00000000000E+00 -0.54118891773E+03  0.54118891773E+03  0.00000000000E+00 0.  1.
         -6    2    1    2    0  503 -0.29807263164E+02 -0.10959374102E+03 -0.32793413620E+03  0.38453580579E+03  0.16561318559E+03 0.  0.
        -24    2    3    3    0    0  0.38443937971E+02 -0.53375895728E+02 -0.23135487989E+03  0.25350788764E+03  0.80088988218E+02 0.  0.
          6    2    1    2  501    0  0.29807263164E+02  0.10959374102E+03 -0.12725327228E+03  0.24265462120E+03  0.17259376835E+03 0.  0.
         24    2    5    5    0    0  0.53999995202E+02  0.13803857155E+03 -0.11631282106E+03  0.20346048720E+03  0.76790955117E+02 0.  0.
          5    1    5    5  501    0 -0.24192732039E+02 -0.28444830532E+02 -0.10940451216E+02  0.39194134003E+02  0.47000000000E+01 0. -1.
        -13    1    6    6    0    0 -0.13339811615E+02  0.67308014374E+02 -0.56967700420E+02  0.89183172538E+02  0.00000000000E+00 0.  1.
         14    1    6    6    0    0  0.67339806817E+02  0.70730557179E+02 -0.59345120643E+02  0.11427731466E+03  0.00000000000E+00 0. -1.
         -5    1    3    3    0  503 -0.68251201135E+02 -0.56217845293E+02 -0.96579256309E+02  0.13102791815E+03  0.47000000000E+01 0.  1.
         11    1    4    4    0    0  0.75408159139E+01 -0.24836972249E+02 -0.94063557829E+01  0.27608307161E+02  0.00000000000E+00 0. -1.
        -12    1    4    4    0    0  0.30903122057E+02 -0.28538923479E+02 -0.22194852411E+03  0.22589958047E+03  0.00000000000E+00 0.  1.
</event>
<event>
12    1  0.8494789E-002  0.1857372E+03  0.7818608E-02  0.1162370E+00
         21   -1    0    0  501  502  0.00000000000E+00  0.00000000000E+00  0.45982744813E+03  0.45982744813E+03  0.00000000000E+00 0.  1.
         21   -1    0    0  502  503 -0.00000000000E+00 -0.00000000000E+00 -0.76779585657E+02  0.76779585657E+02  0.00000000000E+00 0.  1.
         -6    2    1    2    0  503 -0.55576079541E+02 -0.44325774022E+02  0.15081793535E+03  0.23923683113E+03  0.17156554691E+03 0.  0.
        -24    2    3    3    0    0 -0.18551617166E+02 -0.60495192355E+02  0.16685415672E+03  0.19551599743E+03  0.79889704210E+02 0.  0.
          6    2    1    2  501    0  0.55576079541E+02  0.44325774022E+02  0.23222992712E+03  0.29737020266E+03  0.17159494024E+03 0.  0.
         24    2    5    5    0    0 -0.32274951597E+02  0.44619542274E+02  0.12638170329E+03  0.15973362880E+03  0.80684082645E+02 0.  0.
          5    1    5    5  501    0  0.87851031138E+02 -0.29376825224E+00  0.10584822384E+03  0.13763657385E+03  0.47000000000E+01 0. -1.
        -11    1    6    6    0    0  0.44037509834E+01  0.17364027015E+02  0.10959774475E+03  0.11105209638E+03  0.00000000000E+00 0.  1.
         12    1    6    6    0    0 -0.36678702580E+02  0.27255515259E+02  0.16783958541E+02  0.48681532426E+02  0.00000000000E+00 0. -1.
         -5    1    3    3    0  503 -0.37024462375E+02  0.16169418333E+02 -0.16036221373E+02  0.43720833699E+02  0.47000000000E+01 0.  1.
         13    1    4    4    0    0 -0.21243612391E+02  0.24743579508E+01  0.10518470158E+03  0.10733701580E+03  0.00000000000E+00 0. -1.
        -14    1    4    4    0    0  0.26919952244E+01 -0.62969550306E+02  0.61669455145E+02  0.88178981633E+02  0.00000000000E+00 0.  1.
</event>
<event>
12    1  0.8494789E-002  0.2335571E+03  0.7818608E-02  0.1124295E+00
         21   -1    0    0  501  502  0.00000000000E+00  0.00000000000E+00  0.42850072593E+03  0.42850072593E+03  0.00000000000E+00 0.  1.
         21   -1    0    0  502  503 -0.00000000000E+00 -0.00000000000E+00 -0.18736184427E+03  0.18736184427E+03  0.00000000000E+00 0.  1.
         -6    2    1    2    0  503  0.15129655739E+03 -0.45703057923E+02 -0.54521460133E+02  0.23908150457E+03  0.17090335992E+03 0.  0.
        -24    2    3    3    0    0  0.71645857680E+02  0.39238314552E+02 -0.20777633735E+02  0.11775547051E+03  0.82230569249E+02 0.  0.
          6    2    1    2  501    0 -0.15129655739E+03  0.45703057923E+02  0.29566034180E+03  0.37678106563E+03  0.17195788998E+03 0.  0.
         24    2    5    5    0    0 -0.15180108159E+03  0.78782172350E+02  0.28465161735E+03  0.34159919004E+03  0.80082859122E+02 0.  0.
          5    1    5    5  501    0  0.50452420707E+00 -0.33079114427E+02  0.11008724451E+02  0.35181875590E+02  0.47000000000E+01 0. -1.
        -13    1    6    6    0    0 -0.28987980724E+02  0.20138067951E+02  0.12731762067E+02  0.37522560848E+02  0.00000000000E+00 0.  1.
         14    1    6    6    0    0 -0.12281310087E+03  0.58644104398E+02  0.27191985528E+03  0.30407662919E+03  0.00000000000E+00 0. -1.
         -5    1    3    3    0  503  0.79650699707E+02 -0.84941372474E+02 -0.33743826398E+02  0.12132603406E+03  0.47000000000E+01 0.  1.
         11    1    4    4    0    0  0.65986561824E+02  0.34355503558E+02 -0.48655769477E+02  0.88892693004E+02  0.00000000000E+00 0. -1.
        -12    1    4    4    0    0  0.56592958561E+01  0.48828109939E+01  0.27878135741E+02  0.28862777503E+02  0.00000000000E+00 0.  1.
</event>
<event>
12    1  0.8494789E-002  0.2271664E+03  0.7818608E-02  0.1128801E+00
         21   -1    0    0  501  502  0.00000000000E+00  0.00000000000E+00  0.10206844887E+03  0.10206844887E+03  0.00000000000E+00 0. -1.
         21   -1    0    0  502  503 -0.00000000000E+00 -0.00000000000E+00 -0.74864138043E+03  0.74864138043E+03  0.00000000000E+00 0.  1.
         -6    2    1    2    0  503 -0.10461158196E+03  0.10233042294E+03 -0.56698477774E+03  0.61079974624E+03  0.17375123963E+03 0.  0.
        -24    2    3    3    0    0 -0.54686634084E+01  0.29185715884E+02 -0.12003589026E+03  0.14715671060E+03  0.79779510114E+02 0.  0.
          6    2    1    2  501    0  0.10461158196E+03 -0.10233042294E+03 -0.79588153819E+02  0.23991008306E+03  0.17264841496E+03 0.  0.
         24    2    5    5    0    0  0.80814800803E+02 -0.14106732452E+02 -0.92248163568E+02  0.14754086631E+03  0.80799453097E+02 0.  0.
          5    1    5    5  501    0  0.23796781152E+02 -0.88223690487E+02  0.12660009749E+02  0.92369216751E+02  0.47000000000E+01 0. -1.
        -11    1    6    6    0    0  0.92929026826E+02 -0.13597838659E+01 -0.59452198342E+02  0.11032777042E+03  0.00000000000E+00 0.  1.
         12    1    6    6    0    0 -0.12114226023E+02 -0.12746948586E+02 -0.32795965226E+02  0.37213095887E+02  0.00000000000E+00 0. -1.
         -5    1    3    3    0  503 -0.99142918547E+02  0.73144707055E+02 -0.44694888748E+03  0.46364303563E+03  0.47000000000E+01 0.  1.
         11    1    4    4    0    0 -0.10589354096E+02  0.46799355727E+02 -0.11953632445E+03  0.12880701449E+03  0.00000000000E+00 0. -1.
        -12    1    4    4    0    0  0.51206906872E+01 -0.17613639843E+02 -0.49956580575E+00  0.18349696118E+02  0.00000000000E+00 0.  1.
</event>
<event>
12    1  0.8494789E-002  0.1961303E+03  0.7818608E-02  0.1153802E+00
         21   -1    0    0  501  502  0.00000000000E+00  0.00000000000E+00  0.19919894130E+03  0.19919894130E+03  0.00000000000E+00 0. -1.
         21   -1    0    0  502  503 -0.00000000000E+00 -0.00000000000E+00 -0.70788956896E+03  0.70788956896E+03  0.00000000000E+00 0. -1.
         -6    2    1    2    0  503 -0.42455373640E+02 -0.83856234832E+02 -0.64177262490E+03  0.67006974887E+03  0.16818751264E+03 0.  0.
        -24    2    3    3    0    0 -0.78817052391E+02 -0.14928763666E+02 -0.32722169152E+03  0.34597478184E+03  0.78673493228E+02 0.  0.
          6    2    1    2  501    0  0.42455373640E+02  0.83856234832E+02  0.13308199723E+03  0.23701876140E+03  0.17214165213E+03 0.  0.
         24    2    5    5    0    0  0.34821099704E+02  0.28672722146E+01  0.78321716899E+01  0.87596196161E+02  0.79943858012E+02 0.  0.
          5    1    5    5  501    0  0.76342739357E+01  0.80988962618E+02  0.12524982554E+03  0.14942256524E+03  0.47000000000E+01 0. -1.
        -13    1    6    6    0    0 -0.21614954969E+02 -0.16443139049E+02 -0.16054446320E+01  0.27205891872E+02  0.00000000000E+00 0.  1.
         14    1    6    6    0    0  0.56436054673E+02  0.19310411264E+02  0.94376163219E+01  0.60390304288E+02  0.00000000000E+00 0. -1.
         -5    1    3    3    0  503  0.36361678751E+02 -0.68927471167E+02 -0.31455093338E+03  0.32409496702E+03  0.47000000000E+01 0.  1.
         13    1    4    4    0    0 -0.75555296691E+02  0.98510294165E+01 -0.29768915583E+03  0.30728566374E+03  0.00000000000E+00 0. -1.
        -14    1    4    4    0    0 -0.32617557003E+01 -0.24779793082E+02 -0.29532535686E+02  0.38689118102E+02  0.00000000000E+00 0.  1.
</event>
<event>
12    1  0.8494789E-002  0.2418190E+03  0.7818608E-02  0.1118655E+00
         21   -1    0    0  501  502  0.00000000000E+00  0.00000000000E+00  0.15697051521E+03  0.15697051521E+03  0.00000000000E+00 0.  1.
         21   -1    0    0  502  503 -0.00000000000E+00 -0.00000000000E+00 -0.40505182823E+03  0.40505182823E+03  0.00000000000E+00 0. -1.
         -6    2    1    2    0  503 -0.14246863694E+03 -0.92509703624E+02 -0.20453864756E+03  0.31672143437E+03  0.17210767230E+03 0.  0.
        -24    2    3    3    0    0 -0.80059727823E+02 -0.11927437902E+03 -0.18154110095E+03  0.24487300406E+03  0.79810270485E+02 0.  0.
          6    2    1    2  501    0  0.14246863694E+03  0.92509703624E+02 -0.43542665464E+02  0.24530090908E+03  0.17152613358E+03 0.  0.
         24    2    5    5    0    0  0.79815730914E+02  0.28580572972E+01 -0.69758583662E+02  0.13273018157E+03  0.79826823270E+02 0.  0.
          5    1    5    5  501    0  0.62652906031E+02  0.89651646327E+02  0.26215918198E+02  0.11257072750E+03  0.47000000000E+01 0. -1.
        -11    1    6    6    0    0  0.74643029726E+01  0.18882266004E+02  0.11026325635E+02  0.23104883582E+02  0.00000000000E+00 0.  1.
         12    1    6    6    0    0  0.72351427941E+02 -0.16024208707E+02 -0.80784909296E+02  0.10962529799E+03  0.00000000000E+00 0. -1.
         -5    1    3    3    0  503 -0.62408909122E+02  0.26764675397E+02 -0.22997546609E+02  0.71848430303E+02  0.47000000000E+01 0.  1.
         13    1    4    4    0    0 -0.92841490097E+02 -0.11307324440E+03 -0.17765535785E+03  0.23014457859E+03  0.00000000000E+00 0. -1.
        -14    1    4    4    0    0  0.12781762274E+02 -0.62011346212E+01 -0.38857431005E+01  0.14728425472E+02  0.00000000000E+00 0.  1.
</event>
<event>
12    1  0.8494789E-002  0.2100030E+03  0.7818608E-02  0.1141577E+00
         21   -1    0    0  501  502  0.00000000000E+00  0.00000000000E+00  0.94272217118E+02  0.94272217118E+02  0.00000000000E+00 0.  1.
         21   -1    0    0  502  503 -0.00000000000E+00 -0.00000000000E+00 -0.49982373287E+03  0.49982373287E+03  0.00000000000E+00 0. -1.
         -6    2    1    2    0  503 -0.90440718059E+02 -0.79907171661E+02 -0.27810154770E+03  0.34844421699E+03  0.17177957375E+03 0.  0.
        -24    2    3    3    0    0 -0.30504485481E+02  0.20025925553E+02 -0.81069114367E+02  0.11948385868E+03  0.79828753293E+02 0.  0.
          6    2    1    2  501    0  0.90440718059E+02  0.79907171661E+02 -0.12744996805E+03  0.24565173299E+03  0.17186215407E+03 0.  0.
         24    2    5    5    0    0  0.62786197463E+02 -0.21223699621E+01 -0.12232191802E+03  0.15880701464E+03  0.79438059054E+02 0.  0.
          5    1    5    5  501    0  0.27654520596E+02  0.82029541623E+02 -0.51280500370E+01  0.86844718351E+02  0.47000000000E+01 0. -1.
        -13    1    6    6    0    0  0.46944797938E+02 -0.36418979495E+02 -0.51896090573E+02  0.78888277568E+02  0.00000000000E+00 0.  1.
         14    1    6    6    0    0  0.15841399525E+02  0.34296609533E+02 -0.70425827445E+02  0.79918737075E+02  0.00000000000E+00 0. -1.
         -5    1    3    3    0  503 -0.59936232578E+02 -0.99933097214E+02 -0.19703243333E+03  0.22896035831E+03  0.47000000000E+01 0.  1.
         11    1    4    4    0    0 -0.14111768295E+02 -0.26540562751E+02 -0.57269917268E+02  0.64679107133E+02  0.00000000000E+00 0. -1.
        -12    1    4    4    0    0 -0.16392717187E+02  0.46566488304E+02 -0.23799197098E+02  0.54804751548E+02  0.00000000000E+00 0.  1.
</event>
<event>
12    1  0.8494789E-002  0.4076069E+03  0.7818608E-02  0.1041325E+00
         21   -1    0    0  501  502  0.00000000000E+00  0.00000000000E+00  0.96184374499E+03  0.96184374499E+03  0.00000000000E+00 0. -1.
         21   -1    0    0  502  503 -0.00000000000E+00 -0.00000000000E+00 -0.17288467881E+03  0.17288467881E+03  0.00000000000E+00 0.  1.
         -6    2    1    2    0  503 -0.83514009749E+02  0.36014459218E+03  0.43429255475E+03  0.59442138117E+03  0.16747548531E+03 0.  0.
        -24    2    3    3    0    0 -0.39878489990E+02  0.16588759709E+03  0.30109595499E+03  0.35483160068E+03  0.78343486657E+02 0.  0.
          6    2    1    2  501    0  0.83514009749E+02 -0.36014459218E+03  0.35466651143E+03  0.54030704262E+03  0.17165269842E+03 0.  0.
         24    2    5    5    0    0  0.99159931905E+02 -0.23693103476E+03  0.17147685571E+03  0.31893198626E+03  0.79651067117E+02 0.  0.
          5    1    5    5  501    0 -0.15645922156E+02 -0.12321355742E+03  0.18318965573E+03  0.22137505636E+03  0.47000000000E+01 0. -1.
        -11    1    6    6    0    0  0.69886042552E+02 -0.22217825431E+03  0.16521589281E+03  0.28555827228E+03  0.00000000000E+00 0.  1.
         12    1    6    6    0    0  0.29273889353E+02 -0.14752780452E+02  0.62609629000E+01  0.33373713988E+02  0.00000000000E+00 0. -1.
         -5    1    3    3    0  503 -0.43635519759E+02  0.19425699509E+03  0.13319659977E+03  0.23958978049E+03  0.47000000000E+01 0.  1.
         13    1    4    4    0    0 -0.60188455429E+02  0.14843638350E+03  0.24563935015E+03  0.29324853019E+03  0.00000000000E+00 0. -1.
        -14    1    4    4    0    0  0.20309965440E+02  0.17451213589E+02  0.55456604834E+02  0.61583070495E+02  0.00000000000E+00 0.  1.
</event>
<event>
12    1  0.8494789E-002  0.3000816E+03  0.7818608E-02  0.1085208E+00
         21   -1    0    0  501  502  0.00000000000E+00  0.00000000000E+00  0.46622446913E+03  0.46622446913E+03  0.00000000000E+00 0.  1.
         21   -1    0    0  502  503 -0.00000000000E+00 -0.00000000000E+00 -0.39883750460E+03  0.39883750460E+03  0.00000000000E+00 0.  1.
         -6    2    1    2    0  503 -0.24407003343E+03 -0.24098499388E+02 -0.27695857840E+03  0.40830948875E+03  0.17279949526E+03 0.  0.
        -24    2    3    3    0    0 -0.14292092259E+03  0.53805602749E+02 -0.16952517639E+03  0.24138370398E+03  0.78777370584E+02 0.  0.
          6    2    1    2  501    0  0.24407003343E+03  0.24098499388E+02  0.34434554293E+03  0.45675248498E+03  0.17291055696E+03 0.  0.
         24    2    5    5    0    0  0.16344778671E+03  0.72197412661E+02  0.28451350399E+03  0.34532800379E+03  0.79848925319E+02 0.  0.
          5    1    5    5  501    0  0.80622246717E+02 -0.48098913273E+02  0.59832038942E+02  0.11142448119E+03  0.47000000000E+01 0. -1.
        -13    1    6    6    0    0  0.17004626434E+03  0.75221814010E+02  0.28172026327E+03  0.33755052964E+03  0.00000000000E+00 0.  1.
         14    1    6    6    0    0 -0.65984776295E+01 -0.30244013488E+01  0.27932407176E+01  0.77774741563E+01  0.00000000000E+00 0. -1.
         -5    1    3    3    0  503 -0.10114911083E+03 -0.77904102137E+02 -0.10743340201E+03  0.16692578477E+03  0.47000000000E+01 0.  1.
         13    1    4    4    0    0 -0.28665935061E+02  0.28909986597E+02 -0.93304571261E+02  0.10180012857E+03  0.00000000000E+00 0. -1.
        -14    1    4    4    0    0 -0.11425498753E+03  0.24895616152E+02 -0.76220605127E+02  0.13958357542E+03  0.00000000000E+00 0.  1.
</event>
<event>
12    1  0.8494789E-002  0.2618980E+03  0.7818608E-02  0.1106043E+00
         21   -1    0    0  501  502  0.00000000000E+00  0.00000000000E+00  0.40958315223E+02  0.40958315223E+02  0.00000000000E+00 0. -1.
         21   -1    0    0  502  503 -0.00000000000E+00 -0.00000000000E+00 -0.20281788791E+04  0.20281788791E+04  0.00000000000E+00 0. -1.
         -6    2    1    2    0  503  0.14969504226E+03  0.12838569494E+03 -0.56113078543E+03  0.61924012863E+03  0.17233422820E+03 0.  0.
        -24    2    3    3    0    0  0.12357439260E+03  0.35397749994E+02 -0.23500880107E+03  0.27908327522E+03  0.78324368582E+02 0.  0.
          6    2    1    2  501    0 -0.14969504226E+03 -0.12838569494E+03 -0.14260897784E+04  0.14498970656E+04  0.17198241933E+03 0.  0.
         24    2    5    5    0    0 -0.10065928409E+02 -0.24381258267E+02 -0.55555630021E+03  0.56211114610E+03  0.81427079038E+02 0.  0.
          5    1    5    5  501    0 -0.13962911385E+03 -0.10400443668E+03 -0.87053347819E+03  0.88778591954E+03  0.47000000000E+01 0. -1.
        -13    1    6    6    0    0  0.18407149820E+02 -0.45703247551E+02 -0.28519031188E+03  0.28941514126E+03  0.00000000000E+00 0.  1.
         14    1    6    6    0    0 -0.28473078229E+02  0.21321989284E+02 -0.27036598833E+03  0.27269600484E+03  0.00000000000E+00 0. -1.
         -5    1    3    3    0  503  0.26120649661E+02  0.92987944948E+02 -0.32612198436E+03  0.34015685342E+03  0.47000000000E+01 0.  1.
         13    1    4    4    0    0  0.89525652541E+02  0.41428766419E+02 -0.10299283769E+03  0.14261384843E+03  0.00000000000E+00 0. -1.
        -14    1    4    4    0    0  0.34048740059E+02 -0.60310164249E+01 -0.13201596338E+03  0.13646942678E+03  0.00000000000E+00 0.  1.
</event>
<event>
12    1  0.8494789E-002  0.2102126E+03  0.7818608E-02  0.1141637E+00
         21   -1    0    0  503  502  0.00000000000E+00  0.00000000000E+00  0.26544900572E+04  0.26544900572E+04  0.00000000000E+00 0. -1.
         21   -1    0    0  501  503 -0.00000000000E+00 -0.00000000000E+00 -0.28312899874E+02  0.28312899874E+02  0.00000000000E+00 0. -1.
          6    2    1    2  501    0 -0.20804650356E+02 -0.11683291854E+03  0.44631560170E+03  0.49282904614E+03  0.17204676129E+03 0.  0.
         24    2    3    3    0    0 -0.58247286002E+02 -0.12651730757E+03  0.28369936772E+03  0.32561102107E+03  0.78344306467E+02 0.  0.
         -6    2    1    2    0  502  0.20804650356E+02  0.11683291854E+03  0.21798615556E+04  0.21899739109E+04  0.17351243337E+03 0.  0.
        -24    2    5    5    0    0  0.30613974383E+02  0.15109608064E+03  0.17279670752E+04  0.17366518416E+04  0.79512042493E+02 0.  0.
          5    1    3    3  501    0  0.37442635645E+02  0.96843890359E+01  0.16261623398E+03  0.16721802507E+03  0.47000000000E+01 0. -1.
        -11    1    4    4    0    0  0.34467477735E+01 -0.98125448140E+00  0.70690070262E+02  0.70780851677E+02  0.00000000000E+00 0.  1.
         12    1    4    4    0    0 -0.61694033775E+02 -0.12553605309E+03  0.21300929746E+03  0.25483016939E+03  0.00000000000E+00 0. -1.
         -5    1    5    5    0  502 -0.98093240270E+01 -0.34263162100E+02  0.45189448046E+03  0.45332206938E+03  0.47000000000E+01 0.  1.
         13    1    6    6    0    0  0.47563877836E+02  0.13468375314E+03  0.12560642498E+04  0.12641595767E+04  0.00000000000E+00 0. -1.
        -14    1    6    6    0    0 -0.16949903453E+02  0.16412327494E+02  0.47190282538E+03  0.47249226483E+03  0.00000000000E+00 0.  1.
</event>
<event>
12    1  0.8494789E-002  0.3073899E+03  0.7818608E-02  0.1081627E+00
         21   -1    0    0  503  502  0.00000000000E+00  0.00000000000E+00  0.65682221551E+03  0.65682221551E+03  0.00000000000E+00 0.  1.
         21   -1    0    0  501  503 -0.00000000000E+00 -0.00000000000E+00 -0.15400190275E+03  0.15400190275E+03  0.00000000000E+00 0. -1.
          6    2    1    2  501    0 -0.18387720608E+03  0.17630298763E+03  0.35585342163E+03  0.47010753752E+03  0.17168537732E+03 0.  0.
         24    2    3    3    0    0 -0.13708707073E+03  0.13689877920E+03  0.15303164405E+03  0.25820951519E+03  0.75626245072E+02 0.  0.
         -6    2    1    2    0  502  0.18387720608E+03 -0.17630298763E+03  0.14696689113E+03  0.34071658074E+03  0.17203183119E+03 0.  0.
        -24    2    5    5    0    0  0.11426562155E+03 -0.18100396932E+03  0.74737203876E+02  0.24018255839E+03  0.79265014573E+02 0.  0.
          5    1    3    3  501    0 -0.46790135346E+02  0.39404208424E+02  0.20282177758E+03  0.21189802233E+03  0.47000000000E+01 0. -1.
        -13    1    4    4    0    0 -0.57660582343E+02  0.65089590251E+02  0.11586794467E+03  0.14486814045E+03  0.00000000000E+00 0.  1.
         14    1    4    4    0    0 -0.79426488389E+02  0.71809188950E+02  0.37163699377E+02  0.11334137473E+03  0.00000000000E+00 0. -1.
         -5    1    5    5    0  502  0.69611584527E+02  0.47009816946E+01  0.72229687250E+02  0.10053402235E+03  0.47000000000E+01 0.  1.
         13    1    6    6    0    0  0.59667721518E+02 -0.14855323921E+03  0.30989405166E+02  0.16306024992E+03  0.00000000000E+00 0. -1.
        -14    1    6    6    0    0  0.54597900033E+02 -0.32450730112E+02  0.43747798711E+02  0.77122308478E+02  0.00000000000E+00 0.  1.
</event>
<event>
12    1  0.8494789E-002  0.1800465E+03  0.7818608E-02  0.1168296E+00
         21   -1    0    0  503  502  0.00000000000E+00  0.00000000000E+00  0.51201600506E+03  0.51201600506E+03  0.00000000000E+00 0. -1.
         21   -1    0    0  501  503 -0.00000000000E+00 -0.00000000000E+00 -0.65953124427E+02  0.65953124427E+02  0.00000000000E+00 0. -1.
          6    2    1    2  501    0 -0.43403985616E+02  0.30136495106E+02  0.28749506833E+03  0.33805144949E+03  0.16980357443E+03 0.  0.
         24    2    3    3    0    0 -0.72433024212E+02  0.37235460197E+01  0.10363537989E+03  0.14999081036E+03  0.80601137924E+02 0.  0.
         -6    2    1    2    0  502  0.43403985616E+02 -0.30136495106E+02  0.15856781231E+03  0.23991767999E+03  0.17211806346E+03 0.  0.
        -24    2    5    5    0    0  0.61992901798E+02 -0.32395168487E+02  0.17649557109E+03  0.21357106835E+03  0.97823043331E+02 0.  0.
          5    1    3    3  501    0  0.29029038596E+02  0.26412949087E+02  0.18385968844E+03  0.18806063914E+03  0.47000000000E+01 0. -1.
        -13    1    4    4    0    0 -0.43108109040E+02  0.22316124665E+01  0.11152434798E+03  0.11958666042E+03  0.00000000000E+00 0.  1.
         14    1    4    4    0    0 -0.29324915172E+02  0.14919335533E+01 -0.78889680884E+01  0.30404149932E+02  0.00000000000E+00 0. -1.
         -5    1    5    5    0  502 -0.18588916182E+02  0.22586733811E+01 -0.17927758782E+02  0.26346611646E+02  0.47000000000E+01 0.  1.
         13    1    6    6    0    0 -0.18384384835E+02 -0.15518707904E+02  0.67295777918E+01  0.24982055920E+02  0.00000000000E+00 0. -1.
        -14    1    6    6    0    0  0.80377286633E+02 -0.16876460584E+02  0.16976599330E+03  0.18858901243E+03  0.00000000000E+00 0.  1.
</event>
<event>
12    1  0.8494789E-002  0.1868725E+03  0.7818608E-02  0.1161426E+00
         21   -1    0    0  503  502  0.00000000000E+00  0.00000000000E+00  0.68221412826E+03  0.68221412826E+03  0.00000000000E+00 0.  1.
         21   -1    0    0  501  503 -0.00000000000E+00 -0.00000000000E+00 -0.73576517750E+02  0.73576517750E+02  0.00000000000E+00 0.  1.
          6    2    1    2  501    0 -0.61074705846E+02 -0.38338934034E+02  0.95517145942E+02  0.20986868237E+03  0.17239879674E+03 0.  0.
         24    2    3    3    0    0 -0.69447332509E+01  0.36385521427E+02  0.73254021009E+02  0.11483429434E+03  0.80303350324E+02 0.  0.
         -6    2    1    2    0  502  0.61074705846E+02  0.38338934034E+02  0.51312046457E+03  0.54592196364E+03  0.17186676719E+03 0.  0.
        -24    2    5    5    0    0 -0.23952543154E+02 -0.13634465544E+02  0.19878118606E+03  0.21613090956E+03  0.80243299788E+02 0.  0.
          5    1    3    3  501    0 -0.54129972596E+02 -0.74724455462E+02  0.22263124933E+02  0.95034388034E+02  0.47000000000E+01 0. -1.
        -11    1    4    4    0    0  0.34534586036E+02  0.25542168777E+02  0.22818459100E+02  0.48638689273E+02  0.00000000000E+00 0.  1.
         12    1    4    4    0    0 -0.41479319287E+02  0.10843352650E+02  0.50435561909E+02  0.66195605067E+02  0.00000000000E+00 0. -1.
         -5    1    5    5    0  502  0.85027249000E+02  0.51973399578E+02  0.31433927851E+03  0.32979105408E+03  0.47000000000E+01 0.  1.
         11    1    6    6    0    0 -0.97110868751E+00 -0.33874951576E+02  0.17243502291E+03  0.17573358393E+03  0.00000000000E+00 0. -1.
        -12    1    6    6    0    0 -0.22981434466E+02  0.20240486033E+02  0.26346163155E+02  0.40397325629E+02  0.00000000000E+00 0.  1.
</event>
<event>
12    1  0.8494789E-002  0.1760741E+03  0.7818608E-02  0.1172031E+00
         21   -1    0    0  503  502  0.00000000000E+00  0.00000000000E+00  0.36474339078E+02  0.36474339078E+02  0.00000000000E+00 0. -1.
         21   -1    0    0  501  503 -0.00000000000E+00 -0.00000000000E+00 -0.96594121499E+03  0.96594121499E+03  0.00000000000E+00 0. -1.
          6    2    1    2  501    0 -0.85623643620E+01  0.26159752762E+02 -0.64197994471E+03  0.66529416018E+03  0.17239612352E+03 0.  0.
         24    2    3    3    0    0  0.60305069346E+02  0.11342101930E+02 -0.43981961645E+03  0.45116061651E+03  0.79619483848E+02 0.  0.
         -6    2    1    2    0  502  0.85623643620E+01 -0.26159752762E+02 -0.28748693120E+03  0.33712139389E+03  0.17390932080E+03 0.  0.
        -24    2    5    5    0    0  0.22137509935E+02 -0.74103497505E+02 -0.16175867543E+03  0.20179744355E+03  0.92600979784E+02 0.  0.
          5    1    3    3  501    0 -0.68867433708E+02  0.14817650832E+02 -0.20216032826E+03  0.21413354367E+03  0.47000000000E+01 0. -1.
        -11    1    4    4    0    0  0.28998631176E+02 -0.74596320545E+01 -0.41521119563E+02  0.51191504083E+02  0.00000000000E+00 0.  1.
         12    1    4    4    0    0  0.31306438171E+02  0.18801733985E+02 -0.39829849689E+03  0.39996911243E+03  0.00000000000E+00 0. -1.
         -5    1    5    5    0  502 -0.13575145573E+02  0.47943744743E+02 -0.12572825578E+03  0.13532395035E+03  0.47000000000E+01 0.  1.
         13    1    6    6    0    0 -0.80729023610E+01 -0.21704018579E+02  0.56170776814E+01  0.23828296974E+02  0.00000000000E+00 0. -1.
        -14    1    6    6    0    0  0.30210412296E+02 -0.52399478926E+02 -0.16737575311E+03  0.17796914657E+03  0.00000000000E+00 0.  1.
</event>
<event>
12    1  0.8494789E-002  0.2042204E+03  0.7818608E-02  0.1146432E+00
         21   -1    0    0  501  502  0.00000000000E+00  0.00000000000E+00  0.34074133396E+03  0.34074133396E+03  0.00000000000E+00 0. -1.
         21   -1    0    0  502  503 -0.00000000000E+00 -0.00000000000E+00 -0.12850087348E+03  0.12850087348E+03  0.00000000000E+00 0. -1.
         -6    2    1    2    0  503 -0.98758692589E+02 -0.48740902848E+02  0.52786222571E+02  0.21093207540E+03  0.17197965045E+03 0.  0.
        -24    2    3    3    0    0 -0.90672399218E+02 -0.14696581097E+02  0.96455727930E+02  0.15477586754E+03  0.78831391240E+02 0.  0.
          6    2    1    2  501    0  0.98758692589E+02  0.48740902848E+02  0.15945423791E+03  0.25831013203E+03  0.17079085265E+03 0.  0.
         24    2    5    5    0    0  0.93339480764E+02  0.40290805847E+02  0.18741859716E+03  0.22822911834E+03  0.81407568383E+02 0.  0.
          5    1    5    5  501    0  0.54192118250E+01  0.84500970004E+01 -0.27964359255E+02  0.30081013691E+02  0.47000000000E+01 0. -1.
        -11    1    6    6    0    0 -0.26346488064E+01 -0.17687705739E+02  0.21330091452E+02  0.27834674598E+02  0.00000000000E+00 0.  1.
         12    1    6    6    0    0  0.95974129571E+02  0.57978511586E+02  0.16608850571E+03  0.20039444374E+03  0.00000000000E+00 0. -1.
         -5    1    3    3    0  503 -0.80862933708E+01 -0.34044321751E+02 -0.43669505359E+02  0.56156207869E+02  0.47000000000E+01 0.  1.
         11    1    4    4    0    0 -0.64501008514E+02  0.10689583835E+02  0.17306870269E+02  0.67632647888E+02  0.00000000000E+00 0. -1.
        -12    1    4    4    0    0 -0.26171390705E+02 -0.25386164932E+02  0.79148857662E+02  0.87143219647E+02  0.00000000000E+00 0.  1.
</event>
<event>
12    1  0.8494789E-002  0.2833416E+03  0.7818608E-02  0.1094022E+00
         21   -1    0    0  501  502  0.00000000000E+00  0.00000000000E+00  0.16694184111E+04  0.16694184111E+04  0.00000000000E+00 0. -1.
         21   -1    0    0  502  503 -0.00000000000E+00 -0.00000000000E+00 -0.69709943716E+02  0.69709943716E+02  0.00000000000E+00 0.  1.
         -6    2    1    2    0  503  0.22365408790E+03  0.28430136180E+02  0.31251231240E+03  0.42111605391E+03  0.16983922334E+03 0.  0.
        -24    2    3    3    0    0  0.11007749210E+03 -0.36149102052E+02  0.21708835297E+03  0.25925826709E+03  0.81631392308E+02 0.  0.
          6    2    1    2  501    0 -0.22365408790E+03 -0.28430136180E+02  0.12871961550E+04  0.13180123009E+04  0.17161893911E+03 0.  0.
         24    2    5    5    0    0 -0.68738245991E+02 -0.78596921285E+02  0.45384687330E+03  0.46888996597E+03  0.54574657936E+02 0.  0.
          5    1    5    5  501    0 -0.15491584190E+03  0.50166785105E+02  0.83334928171E+03  0.84912233496E+03  0.47000000000E+01 0. -1.
        -13    1    6    6    0    0 -0.37015203378E+02 -0.23034696716E+02  0.96922341192E+02  0.10627635088E+03  0.00000000000E+00 0.  1.
         14    1    6    6    0    0 -0.31723042613E+02 -0.55562224569E+02  0.35692453211E+03  0.36261361509E+03  0.00000000000E+00 0. -1.
         -5    1    3    3    0  503  0.11357659579E+03  0.64579238232E+02  0.95423959428E+02  0.16185778682E+03  0.47000000000E+01 0.  1.
         11    1    4    4    0    0 -0.74551197745E+01  0.67559187563E+01  0.47245416015E+02  0.48304767710E+02  0.00000000000E+00 0. -1.
        -12    1    4    4    0    0  0.11753261188E+03 -0.42905020808E+02  0.16984293696E+03  0.21095349938E+03  0.00000000000E+00 0.  1.
</event>
<event>
12    1  0.8494789E-002  0.2019019E+03  0.7818608E-02  0.1148617E+00
         21   -1    0    0  501  502  0.00000000000E+00  0.00000000000E+00  0.20621009377E+04  0.20621009377E+04  0.00000000000E+00 0.  1.
         21   -1    0    0  502  503 -0.00000000000E+00 -0.00000000000E+00 -0.83507884732E+02  0.83507884732E+02  0.00000000000E+00 0. -1.
         -6    2    1    2    0  503 -0.97654896302E+02  0.29778332818E+02  0.51720779564E+02  0.20842120675E+03  0.17418706182E+03 0.  0.
        -24    2    3    3    0    0 -0.44511088738E+02  0.82995063015E+02  0.14944189051E+02  0.12457079074E+03  0.80156943639E+02 0.  0.
          6    2    1    2  501    0  0.97654896302E+02 -0.29778332818E+02  0.19268722734E+04  0.19371876157E+04  0.17156885633E+03 0.  0.
         24    2    5    5    0    0  0.64990806634E+02 -0.21607189932E+02  0.55343234866E+03  0.56332698694E+03  0.79744931293E+02 0.  0.
          5    1    5    5  501    0  0.32664089669E+02 -0.81711428854E+01  0.13734399247E+04  0.13738606287E+04  0.47000000000E+01 0. -1.
        -11    1    6    6    0    0  0.42445430411E+02  0.20691167427E+02  0.39473012915E+03  0.39754448032E+03  0.00000000000E+00 0.  1.
         12    1    6    6    0    0  0.22545376222E+02 -0.42298357359E+02  0.15870221951E+03  0.16578250662E+03  0.00000000000E+00 0. -1.
         -5    1    3    3    0  503 -0.53143807564E+02 -0.53216730197E+02  0.36776590513E+02  0.83850416010E+02  0.47000000000E+01 0.  1.
         11    1    4    4    0    0 -0.67863938787E+02  0.64669868256E+02  0.79903150102E+01  0.94082682689E+02  0.00000000000E+00 0. -1.
        -12    1    4    4    0    0  0.23352850048E+02  0.18325194759E+02  0.69538740408E+01  0.30488108051E+02  0.00000000000E+00 0.  1.
</event>
<event>
12    1  0.8494789E-002  0.2528771E+03  0.7818608E-02  0.1111870E+00
         21   -1    0    0  503  502  0.00000000000E+00  0.00000000000E+00  0.15603832350E+04  0.15603832350E+04  0.00000000000E+00 0.  1.
         21   -1    0    0  501  503 -0.00000000000E+00 -0.00000000000E+00 -0.40630404519E+02  0.40630404519E+02  0.00000000000E+00 0. -1.
          6    2    1    2  501    0  0.57509917050E+02 -0.17056401169E+03  0.74107055671E+03  0.78302772311E+03  0.17761580021E+03 0.  0.
         24    2    3    3    0    0  0.46675517685E+02 -0.19230779348E+03  0.71876058097E+03  0.74971104149E+03  0.79303099457E+02 0.  0.
         -6    2    1    2    0  502 -0.57509917050E+02  0.17056401169E+03  0.77868227378E+03  0.81798591642E+03  0.17422802108E+03 0.  0.
        -24    2    5    5    0    0 -0.79922639424E+02  0.48629163803E+02  0.45948794720E+03  0.47552782355E+03  0.79026030437E+02 0.  0.
          5    1    3    3  501    0  0.10834399366E+02  0.21743781798E+02  0.22309975738E+02  0.33316681616E+02  0.47000000000E+01 0. -1.
        -11    1    4    4    0    0  0.18952073648E+02 -0.50968679723E+00  0.79033540357E+02  0.81275712101E+02  0.00000000000E+00 0.  1.
         12    1    4    4    0    0  0.27723444036E+02 -0.19179810669E+03  0.63972704062E+03  0.66843532939E+03  0.00000000000E+00 0. -1.
         -5    1    5    5    0  502  0.22412722374E+02  0.12193484788E+03  0.31919432658E+03  0.34245809287E+03  0.47000000000E+01 0.  1.
         11    1    6    6    0    0 -0.60240646940E+02  0.40152902925E+01  0.14177749153E+03  0.15409709667E+03  0.00000000000E+00 0. -1.
        -12    1    6    6    0    0 -0.19681992484E+02  0.44613873511E+02  0.31771045567E+03  0.32143072688E+03  0.00000000000E+00 0.  1.
</event>
<event>
12    1  0.8494789E-002  0.2559690E+03  0.7818608E-02  0.1109710E+00
         21   -1    0    0  501  502  0.00000000000E+00  0.00000000000E+00  0.45761386953E+03  0.45761386953E+03  0.00000000000E+00 0.  1.
         21   -1    0    0  502  503 -0.00000000000E+00 -0.00000000000E+00 -0.34784222247E+03  0.34784222247E+03  0.00000000000E+00 0. -1.
         -6    2    1    2    0  503  0.19286493695E+02 -0.18716825192E+03 -0.25432659091E+03  0.36083537383E+03  0.17354028004E+03 0.  0.
        -24    2    3    3    0    0 -0.19104707126E+02 -0.62038124722E+02 -0.18866067241E+03  0.21432415963E+03  0.78283314522E+02 0.  0.
          6    2    1    2  501    0 -0.19286493695E+02  0.18716825192E+03  0.36409823798E+03  0.44462071817E+03  0.17238367894E+03 0.  0.
         24    2    5    5    0    0 -0.67491481216E+02  0.15889478514E+03  0.32425856105E+03  0.37582827961E+03  0.79376498776E+02 0.  0.
          5    1    5    5  501    0  0.48204987521E+02  0.28273466779E+02  0.39839676923E+02  0.68792438559E+02  0.47000000000E+01 0. -1.
        -13    1    6    6    0    0 -0.53552478986E+02  0.43158029052E+02  0.16236633724E+03  0.17633295479E+03  0.00000000000E+00 0.  1.
         14    1    6    6    0    0 -0.13939002230E+02  0.11573675609E+03  0.16189222381E+03  0.19949532482E+03  0.00000000000E+00 0. -1.
         -5    1    3    3    0  503  0.38391200821E+02 -0.12513012720E+03 -0.65665918499E+02  0.14651121420E+03  0.47000000000E+01 0.  1.
         13    1    4    4    0    0  0.28805927611E+02 -0.19280274400E+02 -0.91644143765E+02  0.97980403820E+02  0.00000000000E+00 0. -1.
        -14    1    4    4    0    0 -0.47910634737E+02 -0.42757850322E+02 -0.97016528649E+02  0.11634375581E+03  0.00000000000E+00 0.  1.
</event>
<event>
12    1  0.8494789E-002  0.1933211E+03  0.7818608E-02  0.1155717E+00
         21   -1    0    0  501  502  0.00000000000E+00  0.00000000000E+00  0.55568028915E+02  0.55568028915E+02  0.00000000000E+00 0.  1.
         21   -1    0    0  502  503 -0.00000000000E+00 -0.00000000000E+00 -0.19141714005E+04  0.19141714005E+04  0.00000000000E+00 0. -1.
         -6    2    1    2    0  503 -0.36337529921E+02  0.75302847204E+02 -0.17244181237E+04  0.17352207106E+04  0.17430465859E+03 0.  0.
        -24    2    3    3    0    0  0.24397319590E+02  0.12008774065E+02 -0.12450696628E+04  0.12478893052E+04  0.79308341119E+02 0.  0.
          6    2    1    2  501    0  0.36337529921E+02 -0.75302847204E+02 -0.13418524780E+03  0.23451871881E+03  0.17321204885E+03 0.  0.
         24    2    5    5    0    0 -0.11166765767E+02 -0.97380738368E+02 -0.53443287033E+02  0.13815770171E+03  0.81385875621E+02 0.  0.
          5    1    5    5  501    0  0.47504295688E+02  0.22077891164E+02 -0.80741960769E+02  0.96361017096E+02  0.47000000000E+01 0. -1.
        -11    1    6    6    0    0 -0.41030879965E+02 -0.25225412115E+02 -0.11514721493E+02  0.49522149975E+02  0.00000000000E+00 0.  1.
         12    1    6    6    0    0  0.29864114198E+02 -0.72155326253E+02 -0.41928565540E+02  0.88635551737E+02  0.00000000000E+00 0. -1.
         -5    1    3    3    0  503 -0.60734849511E+02  0.63294073140E+02 -0.47934846095E+03  0.48733140537E+03  0.47000000000E+01 0.  1.
         11    1    4    4    0    0  0.40231046274E+02  0.36734906131E+02 -0.80954282382E+03  0.81137388053E+03  0.00000000000E+00 0. -1.
        -12    1    4    4    0    0 -0.15833726684E+02 -0.24726132067E+02 -0.43552683897E+03  0.43651542467E+03  0.00000000000E+00 0.  1.
</event>
<event>
12    1  0.8494789E-002  0.2073285E+03  0.7818608E-02  0.1143720E+00
         21   -1    0    0  503  502  0.00000000000E+00  0.00000000000E+00  0.32669311161E+03  0.32669311161E+03  0.00000000000E+00 0. -1.
         21   -1    0    0  501  503 -0.00000000000E+00 -0.00000000000E+00 -0.16763968769E+03  0.16763968769E+03  0.00000000000E+00 0. -1.
          6    2    1    2  501    0 -0.94465531586E+02 -0.67659935188E+02 -0.35232355197E+02  0.21019888431E+03  0.17158277484E+03 0.  0.
         24    2    3    3    0    0 -0.29363050695E+02  0.27056210055E+02 -0.96221666952E+01  0.92353846468E+02  0.82718919341E+02 0.  0.
         -6    2    1    2    0  502  0.94465531586E+02  0.67659935188E+02  0.19428577912E+03  0.28413391499E+03  0.17170764162E+03 0.  0.
        -24    2    5    5    0    0  0.50935491053E+02  0.10514931296E+03  0.16917243696E+03  0.22126032889E+03  0.81768071093E+02 0.  0.
          5    1    3    3  501    0 -0.65102480891E+02 -0.94716145243E+02 -0.25610188502E+02  0.11784503784E+03  0.47000000000E+01 0. -1.
        -11    1    4    4    0    0 -0.15434951992E+02  0.52410213139E+02  0.12366273857E+02  0.56017791044E+02  0.00000000000E+00 0.  1.
         12    1    4    4    0    0 -0.13928098703E+02 -0.25354003084E+02 -0.21988440552E+02  0.36336055424E+02  0.00000000000E+00 0. -1.
         -5    1    5    5    0  502  0.43530040533E+02 -0.37489377767E+02  0.25113342156E+02  0.62873586095E+02  0.47000000000E+01 0.  1.
         13    1    6    6    0    0  0.34573792152E+02  0.54404999901E+02  0.15223121484E+03  0.16531664734E+03  0.00000000000E+00 0. -1.
        -14    1    6    6    0    0  0.16361698900E+02  0.50744313055E+02  0.16941222126E+02  0.55943681550E+02  0.00000000000E+00 0.  1.
</event>
<event>
12    1  0.8494789E-002  0.1901309E+03  0.7818608E-02  0.1159095E+00
         21   -1    0    0  501  502  0.00000000000E+00  0.00000000000E+00  0.61789183312E+03  0.61789183312E+03  0.00000000000E+00 0. -1.
         21   -1    0    0  502  503 -0.00000000000E+00 -0.00000000000E+00 -0.57793571322E+02  0.57793571322E+02  0.00000000000E+00 0.  1.
         -6    2    1    2    0  503 -0.79619615299E+02  0.22072518546E+02  0.25811835098E+03  0.32058518483E+03  0.17124046953E+03 0.  0.
        -24    2    3    3    0    0 -0.63256512745E+02 -0.18494018981E+01  0.27100020185E+03  0.28852209882E+03  0.76151726272E+02 0.  0.
          6    2    1    2  501    0  0.79619615299E+02 -0.22072518546E+02  0.30197991082E+03  0.35510021961E+03  0.16756437633E+03 0.  0.
         24    2    5    5    0    0  0.94301099047E+02  0.19498387176E+02  0.14426847985E+03  0.19127509447E+03  0.80621852519E+02 0.  0.
          5    1    5    5  501    0 -0.14681483748E+02 -0.41570905722E+02  0.15771143097E+03  0.16382512514E+03  0.47000000000E+01 0. -1.
        -13    1    6    6    0    0 -0.78421127978E+01  0.15710706856E+02  0.45125234976E+01  0.18129752104E+02  0.00000000000E+00 0.  1.
         14    1    6    6    0    0  0.10214321184E+03  0.37876803203E+01  0.13975595635E+03  0.17314534237E+03  0.00000000000E+00 0. -1.
         -5    1    3    3    0  503 -0.16363102553E+02  0.23921920444E+02 -0.12881850867E+02  0.32063086013E+02  0.47000000000E+01 0.  1.
         13    1    4    4    0    0 -0.25218878825E+02  0.25006356631E+02  0.42781806332E+02  0.55602092354E+02  0.00000000000E+00 0. -1.
        -14    1    4    4    0    0 -0.38037633921E+02 -0.26855758529E+02  0.22821839551E+03  0.23292000646E+03  0.00000000000E+00 0.  1.
</event>
<event>
12    1  0.8494789E-002  0.1820349E+03  0.7818608E-02  0.1166334E+00
         21   -1    0    0  503  502  0.00000000000E+00  0.00000000000E+00  0.31357262158E+03  0.31357262158E+03  0.00000000000E+00 0. -1.
         21   -1    0    0  501  503 -0.00000000000E+00 -0.00000000000E+00 -0.12355663321E+03  0.12355663321E+03  0.00000000000E+00 0. -1.
          6    2    1    2  501    0 -0.39720519212E+02  0.44405158331E+02  0.87302438578E+01  0.18022221644E+03  0.16986551271E+03 0.  0.
         24    2    3    3    0    0 -0.53974545722E+02 -0.15107898261E+00  0.57339497231E+02  0.11259540911E+03  0.80477535996E+02 0.  0.
         -6    2    1    2    0  502  0.39720519212E+02 -0.44405158331E+02  0.18128574451E+03  0.25690703835E+03  0.17200920748E+03 0.  0.
        -24    2    5    5    0    0  0.25457767990E+02  0.18875480803E+02  0.30610408749E+02  0.92794235169E+02  0.81666340865E+02 0.  0.
          5    1    3    3  501    0  0.14254026510E+02  0.44556237314E+02 -0.48609253374E+02  0.67626807324E+02  0.47000000000E+01 0. -1.
        -11    1    4    4    0    0  0.19845618108E+02  0.81685212537E+01  0.59670129288E+01  0.22275065451E+02  0.00000000000E+00 0.  1.
         12    1    4    4    0    0 -0.73820163830E+02 -0.83196002363E+01  0.51372484303E+02  0.90320343663E+02  0.00000000000E+00 0. -1.
         -5    1    5    5    0  502  0.14262751222E+02 -0.63280639135E+02  0.15067533576E+03  0.16411280318E+03  0.47000000000E+01 0.  1.
         13    1    6    6    0    0  0.41410524538E+01 -0.20050845518E+02  0.42217919447E+02  0.46920543943E+02  0.00000000000E+00 0. -1.
        -14    1    6    6    0    0  0.21316715536E+02  0.38926326321E+02 -0.11607510699E+02  0.45873691226E+02  0.00000000000E+00 0.  1.
</event>
<event>
12    1  0.8494789E-002  0.2024757E+03  0.7818608E-02  0.1147793E+00
         21   -1    0    0  503  502  0.00000000000E+00  0.00000000000E+00  0.48273799577E+03  0.48273799577E+03  0.00000000000E+00 0.  1.
         21   -1    0    0  501  503 -0.00000000000E+00 -0.00000000000E+00 -0.12240618594E+03  0.12240618594E+03  0.00000000000E+00 0.  1.
          6    2    1    2  501    0  0.13027667977E+01  0.10579567127E+03  0.11984036368E+02  0.20222660799E+03  0.17192312989E+03 0.  0.
         24    2    3    3    0    0 -0.49379289695E+02  0.95409093247E+02  0.44544610155E+02  0.14091728717E+03  0.79575437201E+02 0.  0.
         -6    2    1    2    0  502 -0.13027667977E+01 -0.10579567127E+03  0.34834777346E+03  0.40291757372E+03  0.17263249599E+03 0.  0.
        -24    2    5    5    0    0  0.15233746657E+02 -0.29319899277E+02  0.29021499220E+03  0.30532909982E+03  0.88934773684E+02 0.  0.
          5    1    3    3  501    0  0.50682056493E+02  0.10386578025E+02 -0.32560573787E+02  0.61309320815E+02  0.47000000000E+01 0. -1.
        -13    1    4    4    0    0 -0.35982406832E+02  0.11918275834E+02 -0.11334354541E+02  0.39563196195E+02  0.00000000000E+00 0.  1.
         14    1    4    4    0    0 -0.13396882863E+02  0.83490817413E+02  0.55878964696E+02  0.10135409098E+03  0.00000000000E+00 0. -1.
         -5    1    5    5    0  502 -0.16536513455E+02 -0.76475771996E+02  0.58132781265E+02  0.97588473895E+02  0.47000000000E+01 0.  1.
         13    1    6    6    0    0  0.37564668902E+01  0.12818242958E+02  0.16280033945E+01  0.13456180405E+02  0.00000000000E+00 0. -1.
        -14    1    6    6    0    0  0.11477279767E+02 -0.42138142235E+02  0.28858698880E+03  0.29187291942E+03  0.00000000000E+00 0.  1.
</event>
<event>
12    1  0.8494789E-002  0.2010986E+03  0.7818608E-02  0.1148843E+00
         21   -1    0    0  501  502  0.00000000000E+00  0.00000000000E+00  0.13982249460E+03  0.13982249460E+03  0.00000000000E+00 0. -1.
         21   -1    0    0  502  503 -0.00000000000E+00 -0.00000000000E+00 -0.34903314410E+03  0.34903314410E+03  0.00000000000E+00 0. -1.
         -6    2    1    2    0  503 -0.67226485983E+02  0.79479072186E+02 -0.20591287487E+03  0.28773003883E+03  0.17190735842E+03 0.  0.
        -24    2    3    3    0    0 -0.80888349312E+02 -0.30577778340E+01 -0.11417771931E+03  0.16348670144E+03  0.84493046474E+02 0.  0.
          6    2    1    2  501    0  0.67226485983E+02 -0.79479072186E+02 -0.32977746353E+01  0.20112559987E+03  0.17205902555E+03 0.  0.
         24    2    5    5    0    0 -0.18639812954E+01 -0.77591470710E+02  0.42185359105E+02  0.11825304010E+03  0.78614669219E+02 0.  0.
          5    1    5    5  501    0  0.69090467279E+02 -0.18876014751E+01 -0.45483133740E+02  0.82872559771E+02  0.47000000000E+01 0. -1.
        -11    1    6    6    0    0 -0.28785494961E+02 -0.65553346126E+01 -0.33063089188E+01  0.29707049849E+02  0.00000000000E+00 0.  1.
         12    1    6    6    0    0  0.26921513666E+02 -0.71036136098E+02  0.45491668024E+02  0.88545990250E+02  0.00000000000E+00 0. -1.
         -5    1    3    3    0  503  0.13661863329E+02  0.82536850020E+02 -0.91735155558E+02  0.12424333739E+03  0.47000000000E+01 0.  1.
         11    1    4    4    0    0 -0.62042712227E+02  0.33637319137E+02 -0.94055343240E+02  0.11758900872E+03  0.00000000000E+00 0. -1.
        -12    1    4    4    0    0 -0.18845637084E+02 -0.36695096971E+02 -0.20122376069E+02  0.45897692725E+02  0.00000000000E+00 0.  1.
</event>
<event>
12    1  0.8494789E-002  0.1804586E+03  0.7818608E-02  0.1168508E+00
         21   -1    0    0  501  502  0.00000000000E+00  0.00000000000E+00  0.27557903900E+03  0.27557903900E+03  0.00000000000E+00 0. -1.
         21   -1    0    0  502  503 -0.00000000000E+00 -0.00000000000E+00 -0.11857152907E+03  0.11857152907E+03  0.00000000000E+00 0. -1.
         -6    2    1    2    0  503  0.37515629178E+02 -0.39275723450E+02  0.45870523813E+02  0.18619723399E+03  0.17209096463E+03 0.  0.
        -24    2    3    3    0    0 -0.37622532322E+02 -0.38424343809E+02 -0.20050628903E+01  0.96974871531E+02  0.80673541485E+02 0.  0.
          6    2    1    2  501    0 -0.37515629178E+02  0.39275723450E+02  0.11113698611E+03  0.20795333407E+03  0.16716206084E+03 0.  0.
         24    2    5    5    0    0 -0.89146173845E+02  0.30951188274E+02  0.66230761312E+02  0.13886158309E+03  0.77401609456E+02 0.  0.
          5    1    5    5  501    0  0.51630544666E+02  0.83245351760E+01  0.44906224802E+02  0.69091750987E+02  0.47000000000E+01 0. -1.
        -11    1    6    6    0    0 -0.26574193185E+02  0.46518828528E+02  0.12703682430E+02  0.55059719381E+02  0.00000000000E+00 0.  1.
         12    1    6    6    0    0 -0.62571980660E+02 -0.15567640254E+02  0.53527078882E+02  0.83801863705E+02  0.00000000000E+00 0. -1.
         -5    1    3    3    0  503  0.75138161500E+02 -0.85137964146E+00  0.47875586703E+02  0.89222362461E+02  0.47000000000E+01 0.  1.
         13    1    4    4    0    0 -0.27173653238E+02 -0.20517775292E+02 -0.40706694424E+02  0.53069968006E+02  0.00000000000E+00 0. -1.
        -14    1    4    4    0    0 -0.10448879084E+02 -0.17906568517E+02  0.38701631533E+02  0.43904903525E+02  0.00000000000E+00 0.  1.
</event>
<event>
12    1  0.8494789E-002  0.1813438E+03  0.7818608E-02  0.1167054E+00
         21   -1    0    0  501  502  0.00000000000E+00  0.00000000000E+00  0.51066041584E+03  0.51066041584E+03  0.00000000000E+00 0. -1.
         21   -1    0    0  502  503 -0.00000000000E+00 -0.00000000000E+00 -0.64494788444E+02  0.64494788444E+02  0.00000000000E+00 0.  1.
         -6    2    1    2    0  503 -0.45986346541E+02 -0.32833240795E+02  0.19054635310E+03  0.26304653256E+03  0.17231598836E+03 0.  0.
        -24    2    3    3    0    0 -0.67070704741E+02 -0.48342058503E+02  0.20210017656E+03  0.23405249138E+03  0.84265374289E+02 0.  0.
          6    2    1    2  501    0  0.45986346541E+02  0.32833240795E+02  0.25561927430E+03  0.31210867172E+03  0.16993482222E+03 0.  0.
         24    2    5    5    0    0  0.48122425029E+02  0.78767333830E+02  0.13132346141E+03  0.17949629359E+03  0.80330612003E+02 0.  0.
          5    1    5    5  501    0 -0.21360784874E+01 -0.45934093036E+02  0.12429581289E+03  0.13261237814E+03  0.47000000000E+01 0. -1.
        -11    1    6    6    0    0  0.97654843886E+01  0.79725552897E+02  0.66993081517E+02  0.10459254965E+03  0.00000000000E+00 0.  1.
         12    1    6    6    0    0  0.38356940640E+02 -0.95821906695E+00  0.64330379896E+02  0.74903743942E+02  0.00000000000E+00 0. -1.
         -5    1    3    3    0  503  0.21084358200E+02  0.15508817708E+02 -0.11553823456E+02  0.28994041178E+02  0.47000000000E+01 0.  1.
         13    1    4    4    0    0 -0.14329416676E+02 -0.54494404170E+02  0.14747281261E+03  0.15787084191E+03  0.00000000000E+00 0. -1.
        -14    1    4    4    0    0 -0.52741288065E+02  0.61523456676E+01  0.54627363949E+02  0.76181649470E+02  0.00000000000E+00 0.  1.
</event>
<event>
12    1  0.8494789E-002  0.2109022E+03  0.7818608E-02  0.1141048E+00
         21   -1    0    0  501  502  0.00000000000E+00  0.00000000000E+00  0.27072827822E+03  0.27072827822E+03  0.00000000000E+00 0. -1.
         21   -1    0    0  502  503 -0.00000000000E+00 -0.00000000000E+00 -0.20159660648E+03  0.20159660648E+03  0.00000000000E+00 0. -1.
         -6    2    1    2    0  503  0.76514844007E+02  0.93684739029E+02 -0.68120614522E+02  0.22069432063E+03  0.17156402116E+03 0.  0.
        -24    2    3    3    0    0  0.78553897964E+02  0.63468972396E+02 -0.10970053840E+03  0.16904037244E+03  0.79632995978E+02 0.  0.
          6    2    1    2  501    0 -0.76514844007E+02 -0.93684739029E+02  0.13725228626E+03  0.25163056406E+03  0.17276689210E+03 0.  0.
         24    2    5    5    0    0  0.23814496998E+02 -0.70798222669E+02  0.98107102413E+02  0.14142981671E+03  0.69266665223E+02 0.  0.
          5    1    5    5  501    0 -0.10032934100E+03 -0.22886516360E+02  0.39145183846E+02  0.11020074735E+03  0.47000000000E+01 0. -1.
        -11    1    6    6    0    0 -0.70076603007E+01 -0.54197207181E+02  0.24434302201E+02  0.59862172473E+02  0.00000000000E+00 0.  1.
         12    1    6    6    0    0  0.30822157298E+02 -0.16601015488E+02  0.73672800212E+02  0.81567644240E+02  0.00000000000E+00 0. -1.
         -5    1    3    3    0  503 -0.20390539565E+01  0.30215766632E+02  0.41579923876E+02  0.51653948191E+02  0.47000000000E+01 0.  1.
         11    1    4    4    0    0  0.56608598926E+02  0.60830172805E+01 -0.20058561967E+02  0.60364579679E+02  0.00000000000E+00 0. -1.
        -12    1    4    4    0    0  0.21945299037E+02  0.57385955116E+02 -0.89641976431E+02  0.10867579276E+03  0.00000000000E+00 0.  1.
</event>
<event>
12    1  0.8494789E-002  0.1878349E+03  0.7818608E-02  0.1160897E+00
         21   -1    0    0  501  502  0.00000000000E+00  0.00000000000E+00  0.13333607353E+02  0.13333607353E+02  0.00000000000E+00 0. -1.
         21   -1    0    0  502  503 -0.00000000000E+00 -0.00000000000E+00 -0.26868356677E+04  0.26868356677E+04  0.00000000000E+00 0.  1.
         -6    2    1    2    0  503  0.61206039117E+02 -0.42693430961E+02 -0.15606990583E+04  0.15719616704E+04  0.17237469189E+03 0.  0.
        -24    2    3    3    0    0  0.33413935439E+02  0.35338504833E+02 -0.10779362219E+04  0.10821214616E+04  0.81701028250E+02 0.  0.
          6    2    1    2  501    0 -0.61206039117E+02  0.42693430961E+02 -0.11128030021E+04  0.11282076047E+04  0.17015572141E+03 0.  0.
         24    2    5    5    0    0 -0.14760490432E+02  0.74134429207E+02 -0.47829512535E+03  0.49120834173E+03  0.82496196117E+02 0.  0.
          5    1    5    5  501    0 -0.46445548685E+02 -0.31440998246E+02 -0.63450787672E+03  0.63699926294E+03  0.47000000000E+01 0. -1.
        -11    1    6    6    0    0  0.45900449109E+01  0.26446981968E+02 -0.37345069077E+03  0.37441411539E+03  0.00000000000E+00 0.  1.
         12    1    6    6    0    0 -0.19350535343E+02  0.47687447240E+02 -0.10484443458E+03  0.11679422634E+03  0.00000000000E+00 0. -1.
         -5    1    3    3    0  503  0.27792103677E+02 -0.78031935794E+02 -0.48276283637E+03  0.48984020886E+03  0.47000000000E+01 0.  1.
         11    1    4    4    0    0  0.79635801402E+01  0.22845366608E+02 -0.75441879902E+02  0.79226300098E+02  0.00000000000E+00 0. -1.
        -12    1    4    4    0    0  0.25450355299E+02  0.12493138225E+02 -0.10024943420E+04  0.10028951615E+04  0.00000000000E+00 0.  1.
</event>
<event>
12    1  0.8494789E-002  0.1838558E+03  0.7818608E-02  0.1164391E+00
         21   -1    0    0  501  502  0.00000000000E+00  0.00000000000E+00  0.26738656643E+03  0.26738656643E+03  0.00000000000E+00 0. -1.
         21   -1    0    0  502  503 -0.00000000000E+00 -0.00000000000E+00 -0.98035327282E+03  0.98035327282E+03  0.00000000000E+00 0. -1.
         -6    2    1    2    0  503  0.64755897990E+02 -0.37234896095E+01 -0.93914683664E+03  0.95697425638E+03  0.17203417076E+03 0.  0.
        -24    2    3    3    0    0  0.27095274521E+02  0.56947803197E+02 -0.69641306662E+03  0.70391082276E+03  0.80759400966E+02 0.  0.
          6    2    1    2  501    0 -0.64755897990E+02  0.37234896095E+01  0.22618013025E+03  0.29076558287E+03  0.17082149210E+03 0.  0.
         24    2    5    5    0    0 -0.66793347281E+01 -0.56708276959E+02  0.13533445899E+03  0.16707277144E+03  0.79608121324E+02 0.  0.
          5    1    5    5  501    0 -0.58076563262E+02  0.60431766568E+02  0.90845671265E+02  0.12369281143E+03  0.47000000000E+01 0. -1.
        -13    1    6    6    0    0  0.17769530737E+02 -0.48219518753E+02  0.31980968917E+02  0.60528180084E+02  0.00000000000E+00 0.  1.
         14    1    6    6    0    0 -0.24448865466E+02 -0.84887582056E+01  0.10335349007E+03  0.10654459136E+03  0.00000000000E+00 0. -1.
         -5    1    3    3    0  503  0.37660623469E+02 -0.60671292807E+02 -0.24273377002E+03  0.25306343363E+03  0.47000000000E+01 0.  1.
         11    1    4    4    0    0  0.38263967821E+02  0.73073735897E+02 -0.53768017110E+03  0.54397046657E+03  0.00000000000E+00 0. -1.
        -12    1    4    4    0    0 -0.11168693300E+02 -0.16125932699E+02 -0.15873289552E+03  0.15994035618E+03  0.00000000000E+00 0.  1.
</event>
<event>
12    1  0.8494789E-002  0.1808818E+03  0.7818608E-02  0.1168558E+00
         21   -1    0    0  503  502  0.00000000000E+00  0.00000000000E+00  0.20626134431E+02  0.20626134431E+02  0.00000000000E+00 0.  1.
         21   -1    0    0  501  503 -0.00000000000E+00 -0.00000000000E+00 -0.22301790273E+04  0.22301790273E+04  0.00000000000E+00 0.  1.
          6    2    1    2  501    0 -0.20537862602E+02  0.48037976835E+02 -0.17216160796E+04  0.17304201665E+04  0.16632070245E+03 0.  0.
         24    2    3    3    0    0  0.62867399492E+01 -0.31639219284E+01 -0.40161017066E+03  0.40914090632E+03  0.77820424987E+02 0.  0.
         -6    2    1    2    0  502  0.20537862602E+02 -0.48037976835E+02 -0.48793681332E+03  0.52038499529E+03  0.17317262632E+03 0.  0.
        -24    2    5    5    0    0  0.53281402656E+01 -0.91465138540E+02 -0.42070614633E+03  0.43878042059E+03  0.84500504654E+02 0.  0.
          5    1    3    3  501    0 -0.26824602551E+02  0.51201898764E+02 -0.13200059089E+04  0.13212792602E+04  0.47000000000E+01 0. -1.
        -13    1    4    4    0    0  0.24931757563E+02 -0.20440200366E+02 -0.35127889927E+03  0.35275524007E+03  0.00000000000E+00 0.  1.
         14    1    4    4    0    0 -0.18645017614E+02  0.17276278437E+02 -0.50331271396E+02  0.56385666253E+02  0.00000000000E+00 0. -1.
         -5    1    5    5    0  502  0.15209722336E+02  0.43427161705E+02 -0.67230666994E+02  0.81604574698E+02  0.47000000000E+01 0.  1.
         11    1    6    6    0    0 -0.30475893372E+02 -0.44226588120E+02 -0.29437670254E+03  0.29923638511E+03  0.00000000000E+00 0. -1.
        -12    1    6    6    0    0  0.35804033638E+02 -0.47238550421E+02 -0.12632944378E+03  0.13954403548E+03  0.00000000000E+00 0.  1.
</event>
<event>
12    1  0.8494789E-002  0.1893694E+03  0.7818608E-02  0.1159236E+00
         21   -1    0    0  501  502  0.00000000000E+00  0.00000000000E+00  0.35105023388E+03  0.35105023388E+03  0.00000000000E+00 0.  1.
         21   -1    0    0  502  503 -0.00000000000E+00 -0.00000000000E+00 -0.11083902973E+03  0.11083902973E+03  0.00000000000E+00 0.  1.
         -6    2    1    2    0  503 -0.56425870967E+02  0.55774997870E+02  0.53410727595E+02  0.19589082584E+03  0.17095549282E+03 0.  0.
        -24    2    3    3    0    0 -0.29386688171E+01  0.56699983457E+00 -0.27494285253E+02  0.84192504705E+02  0.79520342452E+02 0.  0.
          6    2    1    2  501    0  0.56425870967E+02 -0.55774997870E+02  0.18680047656E+03  0.26599843778E+03  0.17194772914E+03 0.  0.
         24    2    5    5    0    0  0.53222935132E+02 -0.10317151593E+03  0.14419235362E+03  0.20201226066E+03  0.80873209953E+02 0.  0.
          5    1    5    5  501    0  0.32029358351E+01  0.47396518062E+02  0.42608122934E+02  0.63986177119E+02  0.47000000000E+01 0. -1.
        -13    1    6    6    0    0  0.44136076435E+02 -0.69129185538E+01  0.41706027621E+02  0.61116073385E+02  0.00000000000E+00 0.  1.
         14    1    6    6    0    0  0.90868586971E+01 -0.96258597379E+02  0.10248632600E+03  0.14089618727E+03  0.00000000000E+00 0. -1.
         -5    1    3    3    0  503 -0.53487202150E+02  0.55207998036E+02  0.80905012848E+02  0.11169832114E+03  0.47000000000E+01 0.  1.
         13    1    4    4    0    0  0.24022100096E+02 -0.22285808818E+01  0.18773873897E+02  0.30569367133E+02  0.00000000000E+00 0. -1.
        -14    1    4    4    0    0 -0.26960768914E+02  0.27955807163E+01 -0.46268159150E+02  0.53623137572E+02  0.00000000000E+00 0.  1.
</event>
<event>
12    1  0.8494789E-002  0.1788775E+03  0.7818608E-02  0.1168983E+00
         21   -1    0    0  503  502  0.00000000000E+00  0.00000000000E+00  0.20591579137E+02  0.20591579137E+02  0.00000000000E+00 0. -1.
         21   -1    0    0  501  503 -0.00000000000E+00 -0.00000000000E+00 -0.22684209664E+04  0.22684209664E+04  0.00000000000E+00 0. -1.
          6    2    1    2  501    0 -0.45850840627E+01  0.51597521982E+02 -0.17668935484E+04  0.17758883334E+04  0.17083101022E+03 0.  0.
         24    2    3    3    0    0 -0.97908865374E+01 -0.19192446833E+02 -0.48542153063E+03  0.49244338234E+03  0.80013817172E+02 0.  0.
         -6    2    1    2    0  502  0.45850840627E+01 -0.51597521982E+02 -0.48093583891E+03  0.51312421218E+03  0.17121287543E+03 0.  0.
        -24    2    5    5    0    0 -0.46925656403E+02 -0.99130040248E+01 -0.17440105557E+03  0.19947373982E+03  0.84105646746E+02 0.  0.
          5    1    3    3  501    0  0.52058024747E+01  0.70789968814E+02 -0.12814720178E+04  0.12834449510E+04  0.47000000000E+01 0. -1.
        -11    1    4    4    0    0 -0.41316979225E+02 -0.24921865469E+02 -0.34838560395E+03  0.35171113317E+03  0.00000000000E+00 0.  1.
         12    1    4    4    0    0  0.31526092688E+02  0.57294186362E+01 -0.13703592668E+03  0.14073224918E+03  0.00000000000E+00 0. -1.
         -5    1    5    5    0  502  0.51510740465E+02 -0.41684517957E+02 -0.30653478333E+03  0.31365047236E+03  0.47000000000E+01 0.  1.
         11    1    6    6    0    0 -0.39393038653E+02 -0.38796584631E+02 -0.15317032020E+03  0.16284389293E+03  0.00000000000E+00 0. -1.
        -12    1    6    6    0    0 -0.75326177499E+01  0.28883580606E+02 -0.21230735371E+02  0.36629846890E+02  0.00000000000E+00 0.  1.
</event>
<event>
12    1  0.8494789E-002  0.2162743E+03  0.7818608E-02  0.1136722E+00
         21   -1    0    0  503  502  0.00000000000E+00  0.00000000000E+00  0.10691192519E+04  0.10691192519E+04  0.00000000000E+00 0.  1.
         21   -1    0    0  501  503 -0.00000000000E+00 -0.00000000000E+00 -0.97739964797E+02  0.97739964797E+02  0.00000000000E+00 0. -1.
          6    2    1    2  501    0  0.53762881506E+01  0.13125694862E+03  0.51865089785E+02  0.22225297613E+03  0.17160742066E+03 0.  0.
         24    2    3    3    0    0 -0.50162072646E+00  0.10592096752E+03 -0.30787774828E+02  0.13547712822E+03  0.78655338078E+02 0.  0.
         -6    2    1    2    0  502 -0.53762881506E+01 -0.13125694862E+03  0.91951419735E+03  0.94460624060E+03  0.17180599414E+03 0.  0.
        -24    2    5    5    0    0  0.38463679878E+02 -0.79479421473E+02  0.36672027549E+03  0.38764478309E+03  0.89377202300E+02 0.  0.
          5    1    3    3  501    0  0.58779088771E+01  0.25335981096E+02  0.82652864614E+02  0.86775847906E+02  0.47000000000E+01 0. -1.
        -13    1    4    4    0    0  0.38154472587E+02  0.41837955762E+02 -0.76182604453E+01  0.57133319638E+02  0.00000000000E+00 0.  1.
         14    1    4    4    0    0 -0.38656093313E+02  0.64083011760E+02 -0.23169514383E+02  0.78343808583E+02  0.00000000000E+00 0. -1.
         -5    1    5    5    0  502 -0.43839968029E+02 -0.51777527145E+02  0.55279392185E+03  0.55696145751E+03  0.47000000000E+01 0.  1.
         13    1    6    6    0    0 -0.17891363985E+02  0.93060402118E+01  0.49605379724E+02  0.53548081079E+02  0.00000000000E+00 0. -1.
        -14    1    6    6    0    0  0.56355043863E+02 -0.88785461684E+02  0.31711489577E+03  0.33409670201E+03  0.00000000000E+00 0.  1.
</event>
<event>
12    1  0.8494789E-002  0.2031112E+03  0.7818608E-02  0.1147260E+00
         21   -1    0    0  501  502  0.00000000000E+00  0.00000000000E+00  0.72310484754E+02  0.72310484754E+02  0.00000000000E+00 0.  1.
         21   -1    0    0  502  503 -0.00000000000E+00 -0.00000000000E+00 -0.72956818322E+03  0.72956818322E+03  0.00000000000E+00 0. -1.
         -6    2    1    2    0  503 -0.41600762653E+01 -0.10871610075E+03 -0.14010619872E+03  0.24627103067E+03  0.17083084274E+03 0.  0.
        -24    2    3    3    0    0  0.33231421045E+02 -0.12540195114E+03 -0.13793615159E+03  0.20499948140E+03  0.78539345343E+02 0.  0.
          6    2    1    2  501    0  0.41600762653E+01  0.10871610075E+03 -0.51715149975E+03  0.55560763731E+03  0.17151581893E+03 0.  0.
         24    2    5    5    0    0  0.38085124071E+02  0.12996062332E+03 -0.45555445045E+03  0.48199700567E+03  0.80318216247E+02 0.  0.
          5    1    5    5  501    0 -0.33925047805E+02 -0.21244522566E+02 -0.61597049301E+02  0.73610631638E+02  0.47000000000E+01 0. -1.
        -13    1    6    6    0    0  0.73341445734E+01  0.12053960447E+03 -0.30483056754E+03  0.32787994881E+03  0.00000000000E+00 0.  1.
         14    1    6    6    0    0  0.30750979497E+02  0.94210188407E+01 -0.15072388291E+03  0.15411705686E+03  0.00000000000E+00 0. -1.
         -5    1    3    3    0  503 -0.37391497310E+02  0.16685850386E+02 -0.21700471266E+01  0.41271549265E+02  0.47000000000E+01 0.  1.
         13    1    4    4    0    0 -0.15883011087E+02 -0.67973860537E+02 -0.37283265470E+02  0.79137586781E+02  0.00000000000E+00 0. -1.
        -14    1    4    4    0    0  0.49114432132E+02 -0.57428090598E+02 -0.10065288612E+03  0.12586189462E+03  0.00000000000E+00 0.  1.
</event>
<event>
12    1  0.8494789E-002  0.2865657E+03  0.7818608E-02  0.1092203E+00
         21   -1    0    0  503  502  0.00000000000E+00  0.00000000000E+00  0.81990062734E+02  0.81990062734E+02  0.00000000000E+00 0. -1.
         21   -1    0    0  501  503 -0.00000000000E+00 -0.00000000000E+00 -0.10012031933E+04  0.10012031933E+04  0.00000000000E+00 0.  1.
          6    2    1    2  501    0  0.10474218749E+03  0.20341696959E+03 -0.47523409523E+03  0.55476420711E+03  0.17194909383E+03 0.  0.
         24    2    3    3    0    0  0.79879297852E+02  0.10326847130E+03 -0.39615509944E+03  0.42467399778E+03  0.79775072461E+02 0.  0.
         -6    2    1    2    0  502 -0.10474218749E+03 -0.20341696959E+03 -0.44397903531E+03  0.52842904889E+03  0.17254126047E+03 0.  0.
        -24    2    5    5    0    0 -0.89348146866E+02 -0.21572044995E+03 -0.32975862634E+03  0.41242584230E+03  0.82679621879E+02 0.  0.
          5    1    3    3  501    0  0.24862889634E+02  0.10014849828E+03 -0.79078995790E+02  0.13009020933E+03  0.47000000000E+01 0. -1.
        -13    1    4    4    0    0  0.82000874530E+02  0.80918712902E+02 -0.23240108134E+03  0.25938821124E+03  0.00000000000E+00 0.  1.
         14    1    4    4    0    0 -0.21215766788E+01  0.22349758402E+02 -0.16375401810E+03  0.16528578654E+03  0.00000000000E+00 0. -1.
         -5    1    5    5    0  502 -0.15394040619E+02  0.12303480361E+02 -0.11422040897E+03  0.11600320659E+03  0.47000000000E+01 0.  1.
         13    1    6    6    0    0 -0.70140197457E+02 -0.10654030532E+03 -0.11977347684E+03  0.17497476878E+03  0.00000000000E+00 0. -1.
        -14    1    6    6    0    0 -0.19207949409E+02 -0.10918014463E+03 -0.20998514950E+03  0.23745107352E+03  0.00000000000E+00 0.  1.
</event>
<event>
12    1  0.8494789E-002  0.2103296E+03  0.7818608E-02  0.1143187E+00
         21   -1    0    0  501  502  0.00000000000E+00  0.00000000000E+00  0.41673778669E+03  0.41673778669E+03  0.00000000000E+00 0. -1.
         21   -1    0    0  502  503 -0.00000000000E+00 -0.00000000000E+00 -0.11446872088E+03  0.11446872088E+03  0.00000000000E+00 0.  1.
         -6    2    1    2    0  503  0.85960112255E+02 -0.82076977059E+02  0.58777984934E+02  0.20945122210E+03  0.16213942107E+03 0.  0.
        -24    2    3    3    0    0 -0.30713356425E+01 -0.77283909403E+02  0.24789112831E+01  0.10389911219E+03  0.69329970131E+02 0.  0.
          6    2    1    2  501    0 -0.85960112255E+02  0.82076977059E+02  0.24349108087E+03  0.32175528546E+03  0.17353036103E+03 0.  0.
         24    2    5    5    0    0  0.10453335466E+02  0.63804238626E+02  0.17097435417E+03  0.19964790844E+03  0.80291995075E+02 0.  0.
          5    1    5    5  501    0 -0.96413447721E+02  0.18272738432E+02  0.72516726705E+02  0.12210737702E+03  0.47000000000E+01 0. -1.
        -13    1    6    6    0    0  0.23340828535E+02 -0.69888418604E+01  0.80163367494E+02  0.83784268662E+02  0.00000000000E+00 0.  1.
         14    1    6    6    0    0 -0.12887493069E+02  0.70793080487E+02  0.90810986672E+02  0.11586363978E+03  0.00000000000E+00 0. -1.
         -5    1    3    3    0  503  0.89031447898E+02 -0.47930676558E+01  0.56299073651E+02  0.10555210991E+03  0.47000000000E+01 0.  1.
         11    1    4    4    0    0 -0.27693903789E+00 -0.50923128100E+02  0.35112471633E+02  0.61855697676E+02  0.00000000000E+00 0. -1.
        -12    1    4    4    0    0 -0.27943966046E+01 -0.26360781302E+02 -0.32633560350E+02  0.42043414518E+02  0.00000000000E+00 0.  1.
</event>
<event>
12    1  0.8494789E-002  0.1753170E+03  0.7818608E-02  0.1172521E+00
         21   -1    0    0  501  502  0.00000000000E+00  0.00000000000E+00  0.19738267193E+03  0.19738267193E+03  0.00000000000E+00 0. -1.
         21   -1    0    0  502  503 -0.00000000000E+00 -0.00000000000E+00 -0.32371027934E+03  0.32371027934E+03  0.00000000000E+00 0. -1.
         -6    2    1    2    0  503  0.84728313481E+00  0.33430876818E+02 -0.25103298032E+03  0.30594768757E+03  0.17166271846E+03 0.  0.
        -24    2    3    3    0    0  0.53538242162E+02  0.13769738057E+02 -0.22258033123E+03  0.24274530802E+03  0.79544526248E+02 0.  0.
          6    2    1    2  501    0 -0.84728313481E+00 -0.33430876818E+02  0.12470537290E+03  0.21514526370E+03  0.17209797514E+03 0.  0.
         24    2    5    5    0    0 -0.63056628625E+02 -0.18672419112E+02  0.53050817089E+02  0.11899808429E+03  0.83793539258E+02 0.  0.
          5    1    5    5  501    0  0.62209345490E+02 -0.14758457706E+02  0.71654555812E+02  0.96147179411E+02  0.47000000000E+01 0. -1.
        -11    1    6    6    0    0 -0.74117577418E+02  0.32325226511E+01  0.57746825665E+02  0.94013617946E+02  0.00000000000E+00 0.  1.
         12    1    6    6    0    0  0.11060948793E+02 -0.21904941763E+02 -0.46960085760E+01  0.24984466342E+02  0.00000000000E+00 0. -1.
         -5    1    3    3    0  503 -0.52690959028E+02  0.19661138761E+02 -0.28452649092E+02  0.63202379551E+02  0.47000000000E+01 0.  1.
         13    1    4    4    0    0  0.30792065813E+02  0.19659281947E+02 -0.26180658748E+02  0.44945139628E+02  0.00000000000E+00 0. -1.
        -14    1    4    4    0    0  0.22746176350E+02 -0.58895438896E+01 -0.19639967248E+03  0.19780016839E+03  0.00000000000E+00 0.  1.
</event>
<event>
12    1  0.8494789E-002  0.1758917E+03  0.7818608E-02  0.1172291E+00
         21   -1    0    0  501  502  0.00000000000E+00  0.00000000000E+00  0.15895233992E+03  0.15895233992E+03  0.00000000000E+00 0.  1.
         21   -1    0    0  502  503 -0.00000000000E+00 -0.00000000000E+00 -0.19361038314E+03  0.19361038314E+03  0.00000000000E+00 0.  1.
         -6    2    1    2    0  503 -0.22255045000E+02 -0.16257052331E+02 -0.29848320084E+02  0.17840632758E+03  0.17371907417E+03 0.  0.
        -24    2    3    3    0    0 -0.42365272566E+02  0.46383941369E+02 -0.42179748345E+02  0.11130588446E+03  0.81630768756E+02 0.  0.
          6    2    1    2  501    0  0.22255045000E+02  0.16257052331E+02 -0.48097231380E+01  0.17415639547E+03  0.17189455451E+03 0.  0.
         24    2    5    5    0    0  0.35025250537E+02  0.57396428153E+02 -0.45654916235E+02  0.11460854755E+03  0.80806123878E+02 0.  0.
          5    1    5    5  501    0 -0.12770205537E+02 -0.41139375821E+02  0.40845193097E+02  0.59547847917E+02  0.47000000000E+01 0. -1.
        -13    1    6    6    0    0  0.34158605763E+02  0.23223773914E+02  0.15850230631E+02  0.44242330788E+02  0.00000000000E+00 0.  1.
         14    1    6    6    0    0  0.86664477400E+00  0.34172654239E+02 -0.61505146867E+02  0.70366216766E+02  0.00000000000E+00 0. -1.
         -5    1    3    3    0  503  0.20110227566E+02 -0.62640993700E+02  0.12331428261E+02  0.67100443124E+02  0.47000000000E+01 0.  1.
         13    1    4    4    0    0 -0.29806944567E+02  0.68861619441E+02 -0.20871922748E+02  0.77884618094E+02  0.00000000000E+00 0. -1.
        -14    1    4    4    0    0 -0.12558327999E+02 -0.22477678072E+02 -0.21307825597E+02  0.33421266363E+02  0.00000000000E+00 0.  1.
</event>
<event>
12    1  0.8494789E-002  0.1794696E+03  0.7818608E-02  0.1168715E+00
         21   -1    0    0  503  502  0.00000000000E+00  0.00000000000E+00  0.13033342699E+03  0.13033342699E+03  0.00000000000E+00 0.  1.
         21   -1    0    0  501  503 -0.00000000000E+00 -0.00000000000E+00 -0.24608262855E+03  0.24608262855E+03  0.00000000000E+00 0.  1.
          6    2    1    2  501    0  0.33532690421E+02  0.33869812846E+02 -0.70715015497E+02  0.19138252905E+03  0.17133316508E+03 0.  0.
         24    2    3    3    0    0  0.62316140030E+02  0.97202285886E-01 -0.96449912898E+02  0.13987086882E+03  0.79862153043E+02 0.  0.
         -6    2    1    2    0  502 -0.33532690421E+02 -0.33869812846E+02 -0.45034186063E+02  0.18503352650E+03  0.17302520760E+03 0.  0.
        -24    2    5    5    0    0 -0.54293261207E+02 -0.12361024097E+02 -0.88493424208E+02  0.13207670755E+03  0.80700789469E+02 0.  0.
          5    1    3    3  501    0 -0.28783449609E+02  0.33772610560E+02  0.25734897400E+02  0.51511660230E+02  0.47000000000E+01 0. -1.
        -11    1    4    4    0    0 -0.16223404366E+02  0.94839419385E+01 -0.34931973973E+02  0.39665940170E+02  0.00000000000E+00 0.  1.
         12    1    4    4    0    0  0.78539544396E+02 -0.93867396526E+01 -0.61517938925E+02  0.10020492865E+03  0.00000000000E+00 0. -1.
         -5    1    5    5    0  502  0.20760570786E+02 -0.21508788749E+02  0.43459238145E+02  0.52956818946E+02  0.47000000000E+01 0.  1.
         11    1    6    6    0    0 -0.43892358805E+02  0.28885274803E+02 -0.64659555706E+02  0.83317203542E+02  0.00000000000E+00 0. -1.
        -12    1    6    6    0    0 -0.10400902402E+02 -0.41246298900E+02 -0.23833868502E+02  0.48759504012E+02  0.00000000000E+00 0.  1.
</event>
<event>
12    1  0.8494789E-002  0.1898864E+03  0.7818608E-02  0.1158995E+00
         21   -1    0    0  503  502  0.00000000000E+00  0.00000000000E+00  0.28377644261E+03  0.28377644261E+03  0.00000000000E+00 0. -1.
         21   -1    0    0  501  503 -0.00000000000E+00 -0.00000000000E+00 -0.17743151886E+03  0.17743151886E+03  0.00000000000E+00 0. -1.
          6    2    1    2  501    0 -0.60422154072E+02  0.42616006850E+02 -0.71041908849E+02  0.20274072204E+03  0.17489964785E+03 0.  0.
         24    2    3    3    0    0 -0.24190780362E+02  0.42299559579E+02  0.27717332511E+02  0.97439770796E+02  0.79698254787E+02 0.  0.
         -6    2    1    2    0  502  0.60422154072E+02 -0.42616006850E+02  0.17738683261E+03  0.25846723942E+03  0.17283594745E+03 0.  0.
        -24    2    5    5    0    0  0.41380027605E+02  0.23475955083E+02  0.16715478356E+03  0.18877122203E+03  0.73691420464E+02 0.  0.
          5    1    3    3  501    0 -0.36231373710E+02  0.31644727023E+00 -0.98759241360E+02  0.10530095125E+03  0.47000000000E+01 0. -1.
        -11    1    4    4    0    0 -0.25050570005E+01  0.46027329621E+02  0.48685438833E+02  0.67045226057E+02  0.00000000000E+00 0.  1.
         12    1    4    4    0    0 -0.21685723361E+02 -0.37277700418E+01 -0.20968106322E+02  0.30394544739E+02  0.00000000000E+00 0. -1.
         -5    1    5    5    0  502  0.19042126467E+02 -0.66091961932E+02  0.10232049048E+02  0.69696017391E+02  0.47000000000E+01 0.  1.
         11    1    6    6    0    0  0.25375919361E+02 -0.24253281040E+02  0.48416898709E+02  0.59802633765E+02  0.00000000000E+00 0. -1.
        -12    1    6    6    0    0  0.16004108244E+02  0.47729236123E+02  0.11873788485E+03  0.12896858827E+03  0.00000000000E+00 0.  1.
</event>
<event>
12    1  0.8494789E-002  0.2282642E+03  0.7818608E-02  0.1127968E+00
         21   -1    0    0  503  502  0.00000000000E+00  0.00000000000E+00  0.94674353152E+02  0.94674353152E+02  0.00000000000E+00 0. -1.
         21   -1    0    0  501  503 -0.00000000000E+00 -0.00000000000E+00 -0.58535262392E+03  0.58535262392E+03  0.00000000000E+00 0.  1.
          6    2    1    2  501    0 -0.31526058395E+02 -0.14649482217E+03 -0.32979060138E+03  0.40076114662E+03  0.17144395760E+03 0.  0.
         24    2    3    3    0    0 -0.33304008411E+01 -0.37904708276E+02 -0.55123487893E+02  0.10402739193E+03  0.79594226391E+02 0.  0.
         -6    2    1    2    0  502  0.31526058395E+02  0.14649482217E+03 -0.16088766939E+03  0.27926583046E+03  0.17219156954E+03 0.  0.
        -24    2    5    5    0    0 -0.32867144385E+02  0.26809240266E+02 -0.87705377222E+02  0.12483506614E+03  0.78054955011E+02 0.  0.
          5    1    3    3  501    0 -0.28195657554E+02 -0.10859011389E+03 -0.27466711349E+03  0.29673375469E+03  0.47000000000E+01 0. -1.
        -13    1    4    4    0    0  0.27658755647E+02 -0.13947838605E+02 -0.56934648464E+02  0.64815917500E+02  0.00000000000E+00 0.  1.
         14    1    4    4    0    0 -0.30989156488E+02 -0.23956869671E+02  0.18111605707E+01  0.39211474429E+02  0.00000000000E+00 0. -1.
         -5    1    5    5    0  502  0.64393202780E+02  0.11968558190E+03 -0.73182292165E+02  0.15443076431E+03  0.47000000000E+01 0.  1.
         13    1    6    6    0    0 -0.64988922457E+01  0.38944795870E+02 -0.83760456763E+01  0.40361997807E+02  0.00000000000E+00 0. -1.
        -14    1    6    6    0    0 -0.26368252139E+02 -0.12135555604E+02 -0.79329331546E+02  0.84473068337E+02  0.00000000000E+00 0.  1.
</event>
<event>
12    1  0.8494789E-002  0.2542596E+03  0.7818608E-02  0.1110989E+00
         21   -1    0    0  501  502  0.00000000000E+00  0.00000000000E+00  0.55504028160E+03  0.55504028160E+03  0.00000000000E+00 0.  1.
         21   -1    0    0  502  503 -0.00000000000E+00 -0.00000000000E+00 -0.17246380863E+03  0.17246380863E+03  0.00000000000E+00 0. -1.
         -6    2    1    2    0  503 -0.68796534023E+02 -0.17410378339E+03 -0.17284968267E+02  0.25484646441E+03  0.17205481630E+03 0.  0.
        -24    2    3    3    0    0 -0.61950930314E+02 -0.13347461348E+02  0.30033480508E+01  0.92602317692E+02  0.67454404239E+02 0.  0.
          6    2    1    2  501    0  0.68796534023E+02  0.17410378339E+03  0.39986144124E+03  0.47265762581E+03  0.16873342455E+03 0.  0.
         24    2    5    5    0    0 -0.29030239321E+02  0.92527757067E+02  0.19681358634E+03  0.23291766871E+03  0.78172322490E+02 0.  0.
          5    1    5    5  501    0  0.97826773344E+02  0.81576026323E+02  0.20304785490E+03  0.23973995710E+03  0.47000000000E+01 0. -1.
        -11    1    6    6    0    0 -0.27178666873E+01  0.28386213060E+02  0.14116806812E+03  0.14401939921E+03  0.00000000000E+00 0.  1.
         12    1    6    6    0    0 -0.26312372634E+02  0.64141544008E+02  0.55645518217E+02  0.88898269494E+02  0.00000000000E+00 0. -1.
         -5    1    3    3    0  503 -0.68456037091E+01 -0.16075632204E+03 -0.20288316318E+02  0.16224414672E+03  0.47000000000E+01 0.  1.
         11    1    4    4    0    0 -0.12236468480E+02 -0.12779300069E+02 -0.28643222537E+02  0.33667133356E+02  0.00000000000E+00 0. -1.
        -12    1    4    4    0    0 -0.49714461834E+02 -0.56816127959E+00  0.31646570588E+02  0.58935184336E+02  0.00000000000E+00 0.  1.
</event>
<event>
12    1  0.8494789E-002  0.2505515E+03  0.7818608E-02  0.1112968E+00
         21   -1    0    0  503  502  0.00000000000E+00  0.00000000000E+00  0.66255929308E+02  0.66255929308E+02  0.00000000000E+00 0.  1.
         21   -1    0    0  501  503 -0.00000000000E+00 -0.00000000000E+00 -0.14111828767E+04  0.14111828767E+04  0.00000000000E+00 0. -1.
          6    2    1    2  501    0 -0.10982106284E+01  0.18214310364E+03 -0.10959772522E+04  0.11242363340E+04  0.17194150430E+03 0.  0.
         24    2    3    3    0    0 -0.33291853883E+02  0.18984760647E+03 -0.10185529799E+04  0.10399012999E+04  0.82426205527E+02 0.  0.
         -6    2    1    2    0  502  0.10982106284E+01 -0.18214310364E+03 -0.24894969519E+03  0.35320247209E+03  0.17204278330E+03 0.  0.
        -24    2    5    5    0    0  0.48541805707E+02 -0.52482178552E+02 -0.74144556613E+02  0.13039812590E+03  0.79972307678E+02 0.  0.
          5    1    3    3  501    0  0.32193643254E+02 -0.77045028343E+01 -0.77424272301E+02  0.84335034068E+02  0.47000000000E+01 0. -1.
        -13    1    4    4    0    0  0.10278529488E+02 -0.37055309652E+01 -0.67085415068E+02  0.67969346348E+02  0.00000000000E+00 0.  1.
         14    1    4    4    0    0 -0.43570383371E+02  0.19355313744E+03 -0.95146756487E+03  0.97193195354E+03  0.00000000000E+00 0. -1.
         -5    1    5    5    0  502 -0.47443595078E+02 -0.12966092509E+03 -0.17480513858E+03  0.22280434619E+03  0.47000000000E+01 0.  1.
         11    1    6    6    0    0  0.46214376786E+02 -0.43840505258E+02 -0.91137427482E+02  0.11119257714E+03  0.00000000000E+00 0. -1.
        -12    1    6    6    0    0  0.23274289211E+01 -0.86416732936E+01  0.16992870869E+02  0.19205548757E+02  0.00000000000E+00 0.  1.
</event>
<event>
12    1  0.8494789E-002  0.1752659E+03  0.7818608E-02  0.1173043E+00
         21   -1    0    0  501  502  0.00000000000E+00  0.00000000000E+00  0.25036330974E+03  0.25036330974E+03  0.00000000000E+00 0. -1.
         21   -1    0    0  502  503 -0.00000000000E+00 -0.00000000000E+00 -0.31862520325E+03  0.31862520325E+03  0.00000000000E+00 0. -1.
         -6    2    1    2    0  503 -0.99304739742E+01 -0.29188930275E+02 -0.25821527765E+03  0.31207893317E+03  0.17253267213E+03 0.  0.
        -24    2    3    3    0    0  0.13251455731E+02 -0.73406715417E+02 -0.22842637142E+03  0.25375155261E+03  0.81529726772E+02 0.  0.
          6    2    1    2  501    0  0.99304739742E+01  0.29188930275E+02  0.18995338415E+03  0.25690957982E+03  0.17020468880E+03 0.  0.
         24    2    5    5    0    0 -0.27455241750E+02  0.33068460842E+02  0.34431679458E+02  0.96841365841E+02  0.79657995114E+02 0.  0.
          5    1    5    5  501    0  0.37385715724E+02 -0.38795305679E+01  0.15552170469E+03  0.16006821398E+03  0.47000000000E+01 0. -1.
        -13    1    6    6    0    0 -0.52519893062E+01 -0.13164681497E+02 -0.18388894949E+02  0.23217314402E+02  0.00000000000E+00 0.  1.
         14    1    6    6    0    0 -0.22203252444E+02  0.46233142339E+02  0.52820574407E+02  0.73624051439E+02  0.00000000000E+00 0. -1.
         -5    1    3    3    0  503 -0.23181929705E+02  0.44217785142E+02 -0.29788906231E+02  0.58327380553E+02  0.47000000000E+01 0.  1.
         11    1    4    4    0    0  0.17069911947E+02  0.14509748989E+02 -0.50857584314E+02  0.55573452222E+02  0.00000000000E+00 0. -1.
        -12    1    4    4    0    0 -0.38184562167E+01 -0.87916464405E+02 -0.17756878711E+03  0.19817810039E+03  0.00000000000E+00 0.  1.
</event>
<event>
12    1  0.8494789E-002  0.2687245E+03  0.7818608E-02  0.1103561E+00
         21   -1    0    0  503  502  0.00000000000E+00  0.00000000000E+00  0.10886932556E+04  0.10886932556E+04  0.00000000000E+00 0. -1.
         21   -1    0    0  501  503 -0.00000000000E+00 -0.00000000000E+00 -0.65865222055E+02  0.65865222055E+02  0.00000000000E+00 0.  1.
          6    2    1    2  501    0  0.17439880059E+03 -0.83848029024E+02  0.39820905976E+03  0.47458661185E+03  0.17092853261E+03 0.  0.
         24    2    3    3    0    0  0.37518720405E+02  0.25405447722E+02  0.13110629625E+03  0.15515202574E+03  0.69499633237E+02 0.  0.
         -6    2    1    2    0  502 -0.17439880059E+03  0.83848029024E+02  0.62461897375E+03  0.67997186577E+03  0.18646029671E+03 0.  0.
        -24    2    5    5    0    0 -0.17018301752E+03  0.90761472159E+02  0.63362125908E+03  0.66698342229E+03  0.78683425007E+02 0.  0.
          5    1    3    3  501    0  0.13688008018E+03 -0.10925347675E+03  0.26710276351E+03  0.31943458611E+03  0.47000000000E+01 0. -1.
        -11    1    4    4    0    0 -0.75973385612E+01 -0.16485465548E+02  0.14277179402E+02  0.23093894848E+02  0.00000000000E+00 0.  1.
         12    1    4    4    0    0  0.45116058966E+02  0.41890913271E+02  0.11682911685E+03  0.13205813089E+03  0.00000000000E+00 0. -1.
         -5    1    5    5    0  502 -0.42157830676E+01 -0.69134431346E+01 -0.90022853285E+01  0.12988443478E+02  0.47000000000E+01 0.  1.
         13    1    6    6    0    0 -0.86362278362E+02  0.18937260093E+02  0.38396535356E+03  0.39401326840E+03  0.00000000000E+00 0. -1.
        -14    1    6    6    0    0 -0.83820739156E+02  0.71824212066E+02  0.24965590553E+03  0.27297015389E+03  0.00000000000E+00 0.  1.
</event>
<event>
12    1  0.8494789E-002  0.1790279E+03  0.7818608E-02  0.1169204E+00
         21   -1    0    0  501  502  0.00000000000E+00  0.00000000000E+00  0.10661423705E+03  0.10661423705E+03  0.00000000000E+00 0. -1.
         21   -1    0    0  502  503 -0.00000000000E+00 -0.00000000000E+00 -0.35249289053E+03  0.35249289053E+03  0.00000000000E+00 0. -1.
         -6    2    1    2    0  503  0.44212374977E+02  0.14790755296E+02 -0.21306390519E+03  0.27709666080E+03  0.17091761522E+03 0.  0.
        -24    2    3    3    0    0 -0.14204428830E+02  0.59044048290E+02 -0.15232898481E+03  0.18179872031E+03  0.78477319393E+02 0.  0.
          6    2    1    2  501    0 -0.44212374977E+02 -0.14790755296E+02 -0.32814748293E+02  0.18201046678E+03  0.17285109710E+03 0.  0.
         24    2    5    5    0    0 -0.53493738346E+02 -0.58401643171E+02 -0.62702079137E+02  0.12812729879E+03  0.78820822121E+02 0.  0.
          5    1    5    5  501    0  0.92813633688E+01  0.43610887875E+02  0.29887330844E+02  0.53883167986E+02  0.47000000000E+01 0. -1.
        -13    1    6    6    0    0 -0.60543183344E+02 -0.11373356583E+02 -0.21621380492E+02  0.65286402748E+02  0.00000000000E+00 0.  1.
         14    1    6    6    0    0  0.70494449987E+01 -0.47028286588E+02 -0.41080698645E+02  0.62840896042E+02  0.00000000000E+00 0. -1.
         -5    1    3    3    0  503  0.58416803807E+02 -0.44253292993E+02 -0.60734920383E+02  0.95297940490E+02  0.47000000000E+01 0.  1.
         13    1    4    4    0    0 -0.42154692919E+02  0.24950116875E+02 -0.11117795234E+03  0.12149100194E+03  0.00000000000E+00 0. -1.
        -14    1    4    4    0    0  0.27950264089E+02  0.34093931415E+02 -0.41151032467E+02  0.60307718370E+02  0.00000000000E+00 0.  1.
</event>
<event>
12    1  0.8494789E-002  0.2038879E+03  0.7818608E-02  0.1146544E+00
         21   -1    0    0  503  502  0.00000000000E+00  0.00000000000E+00  0.77671354922E+02  0.77671354922E+02  0.00000000000E+00 0.  1.
         21   -1    0    0  501  503 -0.00000000000E+00 -0.00000000000E+00 -0.59765290203E+03  0.59765290203E+03  0.00000000000E+00 0. -1.
          6    2    1    2  501    0 -0.10716689532E+03 -0.18595298140E+02 -0.36974949233E+03  0.42223803933E+03  0.17245215629E+03 0.  0.
         24    2    3    3    0    0 -0.10507932216E+03  0.38930030006E+02 -0.17222358301E+03  0.21644179010E+03  0.68035834508E+02 0.  0.
         -6    2    1    2    0  502  0.10716689532E+03  0.18595298140E+02 -0.15023205478E+03  0.25308621763E+03  0.17219882318E+03 0.  0.
        -24    2    5    5    0    0  0.13002496609E+03  0.36239827486E+02 -0.77506435393E+02  0.17469663586E+03  0.79321183489E+02 0.  0.
          5    1    3    3  501    0 -0.20875731600E+01 -0.57525328147E+02 -0.19752590932E+03  0.20579624922E+03  0.47000000000E+01 0. -1.
        -11    1    4    4    0    0 -0.39209342544E+01  0.16750229830E+02 -0.21748231315E+01  0.17339947533E+02  0.00000000000E+00 0.  1.
         12    1    4    4    0    0 -0.10115838791E+03  0.22179800176E+02 -0.17004875987E+03  0.19910184257E+03  0.00000000000E+00 0. -1.
         -5    1    5    5    0  502 -0.22858070765E+02 -0.17644529346E+02 -0.72725619389E+02  0.78389581772E+02  0.47000000000E+01 0.  1.
         11    1    6    6    0    0  0.75952253801E+02  0.60550180255E+02 -0.44509717794E+02  0.10684654494E+03  0.00000000000E+00 0. -1.
        -12    1    6    6    0    0  0.54072712287E+02 -0.24310352769E+02 -0.32996717600E+02  0.67850090923E+02  0.00000000000E+00 0.  1.
</event>
<event>
12    1  0.8494789E-002  0.1846056E+03  0.7818608E-02  0.1163822E+00
         21   -1    0    0  503  502  0.00000000000E+00  0.00000000000E+00  0.62841756824E+02  0.62841756824E+02  0.00000000000E+00 0. -1.
         21   -1    0    0  501  503 -0.00000000000E+00 -0.00000000000E+00 -0.57431071050E+03  0.57431071050E+03  0.00000000000E+00 0. -1.
          6    2    1    2  501    0  0.41300731947E+02 -0.49211577629E+02 -0.33551319087E+03  0.38212373442E+03  0.17123643692E+03 0.  0.
         24    2    3    3    0    0 -0.34378586197E+02 -0.19534444623E+01 -0.24091302747E+03  0.25200082614E+03  0.65418853814E+02 0.  0.
         -6    2    1    2    0  502 -0.41300731947E+02  0.49211577629E+02 -0.17595576280E+03  0.25502873290E+03  0.17306557806E+03 0.  0.
        -24    2    5    5    0    0 -0.40309712209E+02  0.75146477632E+02 -0.19216294247E+03  0.22407128095E+03  0.77520813279E+02 0.  0.
          5    1    3    3  501    0  0.75679318144E+02 -0.47258133167E+02 -0.94600163404E+02  0.13012290829E+03  0.47000000000E+01 0. -1.
        -11    1    4    4    0    0 -0.93886013537E+01 -0.18886234279E+02 -0.20103101242E+02  0.29137095946E+02  0.00000000000E+00 0.  1.
         12    1    4    4    0    0 -0.24989984844E+02  0.16932789817E+02 -0.22080992623E+03  0.22286373019E+03  0.00000000000E+00 0. -1.
         -5    1    5    5    0  502 -0.99101973770E+00 -0.25934900003E+02  0.16207179666E+02  0.30957451946E+02  0.47000000000E+01 0.  1.
         13    1    6    6    0    0 -0.21813002338E+01  0.73881488875E+01  0.69135617865E+01  0.10350852683E+02  0.00000000000E+00 0. -1.
        -14    1    6    6    0    0 -0.38128411975E+02  0.67758328745E+02 -0.19907650426E+03  0.21372042827E+03  0.00000000000E+00 0.  1.
</event>
<event>
12    1  0.8494789E-002  0.1757829E+03  0.7818608E-02  0.1172350E+00
         21   -1    0    0  503  502  0.00000000000E+00  0.00000000000E+00  0.53577688902E+03  0.53577688902E+03  0.00000000000E+00 0. -1.
         21   -1    0    0  501  503 -0.00000000000E+00 -0.00000000000E+00 -0.58746663596E+02  0.58746663596E+02  0.00000000000E+00 0. -1.
          6    2    1    2  501    0 -0.71824777953E+01  0.27872195283E+02  0.28862749159E+03  0.33794298015E+03  0.17341044280E+03 0.  0.
         24    2    3    3    0    0  0.42500230159E+02  0.59192041280E+02  0.12365937655E+03  0.16276914305E+03  0.76760570652E+02 0.  0.
         -6    2    1    2    0  502  0.71824777953E+01 -0.27872195283E+02  0.18840273383E+03  0.25658057247E+03  0.17178344738E+03 0.  0.
        -24    2    5    5    0    0  0.33234860223E+02 -0.48450110684E+02  0.19800522296E+03  0.22170257038E+03  0.80585310271E+02 0.  0.
          5    1    3    3  501    0 -0.49682707954E+02 -0.31319845997E+02  0.16496811504E+03  0.17517383710E+03  0.47000000000E+01 0. -1.
        -11    1    4    4    0    0  0.60238233783E+02  0.43220137918E+02  0.11606059158E+03  0.13771959211E+03  0.00000000000E+00 0.  1.
         12    1    4    4    0    0 -0.17738003624E+02  0.15971903363E+02  0.75987849618E+01  0.25049550944E+02  0.00000000000E+00 0. -1.
         -5    1    5    5    0  502 -0.26052382427E+02  0.20577915400E+02 -0.96024891294E+01  0.34878002091E+02  0.47000000000E+01 0.  1.
         13    1    6    6    0    0  0.53496829604E+02 -0.88778516584E+01  0.12451352021E+03  0.13580995450E+03  0.00000000000E+00 0. -1.
        -14    1    6    6    0    0 -0.20261969381E+02 -0.39572259025E+02  0.73491702754E+02  0.85892615871E+02  0.00000000000E+00 0.  1.
</event>
<event>
12    1  0.8494789E-002  0.5042825E+03  0.7818608E-02  0.1012736E+00
         21   -1    0    0  503  502  0.00000000000E+00  0.00000000000E+00  0.79242621643E+03  0.79242621643E+03  0.00000000000E+00 0.  1.
         21   -1    0    0  501  503 -0.00000000000E+00 -0.00000000000E+00 -0.32175071402E+03  0.32175071402E+03  0.00000000000E+00 0. -1.
          6    2    1    2  501    0 -0.46015461134E+03 -0.10918143067E+03  0.27326213573E+03  0.57263016395E+03  0.17196004975E+03 0.  0.
         24    2    3    3    0    0 -0.28644763241E+03 -0.12187078698E+03  0.22499006934E+03  0.39183354705E+03  0.77512982519E+02 0.  0.
         -6    2    1    2    0  502  0.46015461134E+03  0.10918143067E+03  0.19741336668E+03  0.54154676650E+03  0.17503717268E+03 0.  0.
        -24    2    5    5    0    0  0.17638733002E+03  0.95813553227E+02  0.11772775069E+03  0.24646295215E+03  0.81187661170E+02 0.  0.
          5    1    3    3  501    0 -0.17370697892E+03  0.12689356308E+02  0.48272066385E+02  0.18079661690E+03  0.47000000000E+01 0. -1.
        -11    1    4    4    0    0 -0.15770939676E+03 -0.87256541702E+02  0.87604517145E+02  0.20040087155E+03  0.00000000000E+00 0.  1.
         12    1    4    4    0    0 -0.12873823566E+03 -0.34614245274E+02  0.13738555220E+03  0.19143267550E+03  0.00000000000E+00 0. -1.
         -5    1    5    5    0  502  0.28376728132E+03  0.13367877441E+02  0.79685615991E+02  0.29508381435E+03  0.47000000000E+01 0.  1.
         13    1    6    6    0    0 -0.84695192195E+01  0.84069801863E+01  0.83776080101E+01  0.14580616847E+02  0.00000000000E+00 0. -1.
        -14    1    6    6    0    0  0.18485684924E+03  0.87406573041E+02  0.10935014268E+03  0.23188233530E+03  0.00000000000E+00 0.  1.
</event>
<event>
12    1  0.8494789E-002  0.1738047E+03  0.7818608E-02  0.1174149E+00
         21   -1    0    0  503  502  0.00000000000E+00  0.00000000000E+00  0.12686914080E+04  0.12686914080E+04  0.00000000000E+00 0. -1.
         21   -1    0    0  501  503 -0.00000000000E+00 -0.00000000000E+00 -0.23699245654E+02  0.23699245654E+02  0.00000000000E+00 0. -1.
          6    2    1    2  501    0 -0.23101617136E+02  0.66676745805E+01  0.61707447093E+03  0.64108421101E+03  0.17213343755E+03 0.  0.
         24    2    3    3    0    0  0.12788490965E+02  0.39338104787E+02  0.17843150078E+03  0.19973944539E+03  0.79668146615E+02 0.  0.
         -6    2    1    2    0  502  0.23101617136E+02 -0.66676745805E+01  0.62791769142E+03  0.65130644266E+03  0.17129306013E+03 0.  0.
        -24    2    5    5    0    0  0.55585730038E+02 -0.51669700340E+02  0.48789788390E+03  0.50061458352E+03  0.82529296600E+02 0.  0.
          5    1    3    3  501    0 -0.35890108101E+02 -0.32670430206E+02  0.43864297016E+03  0.44134476562E+03  0.47000000000E+01 0. -1.
        -11    1    4    4    0    0 -0.28755801852E+02  0.18616604764E+02  0.34968512212E+02  0.48951720699E+02  0.00000000000E+00 0.  1.
         12    1    4    4    0    0  0.41544292817E+02  0.20721500023E+02  0.14346298857E+03  0.15078772469E+03  0.00000000000E+00 0. -1.
         -5    1    5    5    0  502 -0.32484112902E+02  0.45002025759E+02  0.14001980752E+03  0.15069185914E+03  0.47000000000E+01 0.  1.
         11    1    6    6    0    0  0.34130709644E+02  0.89574548477E+01  0.76822907551E+02  0.84539342692E+02  0.00000000000E+00 0. -1.
        -12    1    6    6    0    0  0.21455020394E+02 -0.60627155187E+02  0.41107497635E+03  0.41607524082E+03  0.00000000000E+00 0.  1.
</event>
<event>
12    1  0.8494789E-002  0.2385445E+03  0.7818608E-02  0.1120901E+00
         21   -1    0    0  501  502  0.00000000000E+00  0.00000000000E+00  0.34163782363E+03  0.34163782363E+03  0.00000000000E+00 0. -1.
         21   -1    0    0  502  503 -0.00000000000E+00 -0.00000000000E+00 -0.17456727010E+03  0.17456727010E+03  0.00000000000E+00 0. -1.
         -6    2    1    2    0  503 -0.13135526272E+03  0.98442200464E+02  0.26501439742E+02  0.24001210706E+03  0.17308498881E+03 0.  0.
        -24    2    3    3    0    0 -0.94722289746E+01  0.80699794501E+02  0.26325025417E+02  0.11675470158E+03  0.79601968714E+02 0.  0.
          6    2    1    2  501    0  0.13135526272E+03 -0.98442200464E+02  0.14056911379E+03  0.27619298668E+03  0.17198202889E+03 0.  0.
         24    2    5    5    0    0  0.19329606638E+02 -0.58240627775E+01  0.14220041426E+02  0.83542927928E+02  0.79810136127E+02 0.  0.
          5    1    5    5  501    0  0.11202565608E+03 -0.92618137687E+02  0.12634907237E+03  0.19265005875E+03  0.47000000000E+01 0. -1.
        -11    1    6    6    0    0 -0.25377091880E+02 -0.19120191097E+02 -0.66211787701E+01  0.32456409355E+02  0.00000000000E+00 0.  1.
         12    1    6    6    0    0  0.44706698519E+02  0.13296128320E+02  0.20841220196E+02  0.51086518574E+02  0.00000000000E+00 0. -1.
         -5    1    3    3    0  503 -0.12188303374E+03  0.17742405963E+02  0.17641432412E+00  0.12325740548E+03  0.47000000000E+01 0.  1.
         13    1    4    4    0    0 -0.37042832925E+02  0.32427475459E+02 -0.10148795711E+02  0.50266397227E+02  0.00000000000E+00 0. -1.
        -14    1    4    4    0    0  0.27570603950E+02  0.48272319042E+02  0.36473821129E+02  0.66488304352E+02  0.00000000000E+00 0.  1.
</event>
<event>
12    1  0.8494789E-002  0.2341769E+03  0.7818608E-02  0.1124023E+00
         21   -1    0    0  503  502  0.00000000000E+00  0.00000000000E+00  0.43824769026E+03  0.43824769026E+03  0.00000000000E+00 0.  1.
         21   -1    0    0  501  503 -0.00000000000E+00 -0.00000000000E+00 -0.16411502721E+03  0.16411502721E+03  0.00000000000E+00 0. -1.
          6    2    1    2  501    0  0.13287804372E+03  0.87983997509E+02 -0.11020752661E+02  0.23443606419E+03  0.17158395288E+03 0.  0.
         24    2    3    3    0    0  0.15024635051E+02  0.33819669062E+02  0.38059023661E+02  0.95676866825E+02  0.79599396289E+02 0.  0.
         -6    2    1    2    0  502 -0.13287804372E+03 -0.87983997509E+02  0.28515341571E+03  0.36792665327E+03  0.16929203577E+03 0.  0.
        -24    2    5    5    0    0 -0.14069485760E+03 -0.30220837413E+02  0.26005420939E+03  0.30428904331E+03  0.65232569235E+02 0.  0.
          5    1    3    3  501    0  0.11785340867E+03  0.54164328447E+02 -0.49079776321E+02  0.13875919737E+03  0.47000000000E+01 0. -1.
        -13    1    4    4    0    0 -0.57669044295E+01 -0.92811365011E+01 -0.18563909922E+02  0.21541017456E+02  0.00000000000E+00 0.  1.
         14    1    4    4    0    0  0.20791539481E+02  0.43100805563E+02  0.56622933583E+02  0.74135849369E+02  0.00000000000E+00 0. -1.
         -5    1    5    5    0  502  0.78168138779E+01 -0.57763160096E+02  0.25099206320E+02  0.63637609960E+02  0.47000000000E+01 0.  1.
         13    1    6    6    0    0 -0.23477461546E+02  0.16892947567E+02  0.73484655384E+02  0.78971877621E+02  0.00000000000E+00 0. -1.
        -14    1    6    6    0    0 -0.11721739605E+03 -0.47113784980E+02  0.18656955401E+03  0.22531716569E+03  0.00000000000E+00 0.  1.
</event>
<event>
12    1  0.8494789E-002  0.2562899E+03  0.7818608E-02  0.1109401E+00
         21   -1    0    0  501  502  0.00000000000E+00  0.00000000000E+00  0.57590957221E+03  0.57590957221E+03  0.00000000000E+00 0.  1.
         21   -1    0    0  502  503 -0.00000000000E+00 -0.00000000000E+00 -0.30332819773E+03  0.30332819773E+03  0.00000000000E+00 0. -1.
         -6    2    1    2    0  503 -0.29283963662E+02  0.18848450230E+03 -0.21100400219E+03  0.33193590091E+03  0.17109878794E+03 0.  0.
        -24    2    3    3    0    0 -0.66312746587E+02  0.61330016264E+02 -0.75823934288E+02  0.14263419769E+03  0.80227763796E+02 0.  0.
          6    2    1    2  501    0  0.29283963662E+02 -0.18848450230E+03  0.48358537668E+03  0.54730186903E+03  0.17117406688E+03 0.  0.
         24    2    5    5    0    0  0.49170206686E+02 -0.20701980172E+03  0.41493034718E+03  0.47331117325E+03  0.81125619775E+02 0.  0.
          5    1    5    5  501    0 -0.19886243024E+02  0.18535299426E+02  0.68655029497E+02  0.73990695778E+02  0.47000000000E+01 0. -1.
        -13    1    6    6    0    0 -0.57816849798E+01 -0.66910272985E+02  0.70155137965E+02  0.97119286937E+02  0.00000000000E+00 0.  1.
         14    1    6    6    0    0  0.54951891666E+02 -0.14010952874E+03  0.34477520922E+03  0.37619188632E+03  0.00000000000E+00 0. -1.
         -5    1    3    3    0  503  0.37028782924E+02  0.12715448603E+03 -0.13518006791E+03  0.18930170322E+03  0.47000000000E+01 0.  1.
         11    1    4    4    0    0 -0.30119825086E+02 -0.36866868308E+01 -0.58997458833E+02  0.66343768900E+02  0.00000000000E+00 0. -1.
        -12    1    4    4    0    0 -0.36192921500E+02  0.65016703095E+02 -0.16826475454E+02  0.76290428786E+02  0.00000000000E+00 0.  1.
</event>
<event>
12    1  0.8494789E-002  0.2025556E+03  0.7818608E-02  0.1147923E+00
         21   -1    0    0  503  502  0.00000000000E+00  0.00000000000E+00  0.55390379835E+03  0.55390379835E+03  0.00000000000E+00 0. -1.
         21   -1    0    0  501  503 -0.00000000000E+00 -0.00000000000E+00 -0.16526172430E+03  0.16526172430E+03  0.00000000000E+00 0.  1.
          6    2    1    2  501    0 -0.10644681392E+02 -0.10708194871E+03 -0.73280289349E+02  0.21540378168E+03  0.17160692112E+03 0.  0.
         24    2    3    3    0    0  0.23545648357E+02  0.59948469565E+01 -0.43101315261E+02  0.93386566329E+02  0.79202219962E+02 0.  0.
         -6    2    1    2    0  502  0.10644681392E+02  0.10708194871E+03  0.46192236340E+03  0.50376174097E+03  0.16977564277E+03 0.  0.
        -24    2    5    5    0    0 -0.11303052987E+02  0.12395727448E+03  0.25438191562E+03  0.29433011220E+03  0.80167892888E+02 0.  0.
          5    1    3    3  501    0 -0.34190329749E+02 -0.11307679566E+03 -0.30178974088E+02  0.12201721536E+03  0.47000000000E+01 0. -1.
        -11    1    4    4    0    0 -0.28837258296E+02  0.93904158942E+01 -0.16884833849E+02  0.34711165218E+02  0.00000000000E+00 0.  1.
         12    1    4    4    0    0  0.52382906653E+02 -0.33955689377E+01 -0.26216481412E+02  0.58675401110E+02  0.00000000000E+00 0. -1.
         -5    1    5    5    0  502  0.21947734379E+02 -0.16875325775E+02  0.20754044778E+03  0.20943162877E+03  0.47000000000E+01 0.  1.
         11    1    6    6    0    0 -0.18884104503E+01  0.16404680015E+02  0.12379917054E+03  0.12489561341E+03  0.00000000000E+00 0. -1.
        -12    1    6    6    0    0 -0.94146425363E+01  0.10755259447E+03  0.13058274508E+03  0.16943449880E+03  0.00000000000E+00 0.  1.
</event>
<event>
12    1  0.8494789E-002  0.3686952E+03  0.7818608E-02  0.1055214E+00
         21   -1    0    0  503  502  0.00000000000E+00  0.00000000000E+00  0.13826847890E+03  0.13826847890E+03  0.00000000000E+00 0. -1.
         21   -1    0    0  501  503 -0.00000000000E+00 -0.00000000000E+00 -0.11340889941E+04  0.11340889941E+04  0.00000000000E+00 0.  1.
          6    2    1    2  501    0  0.14219131272E+03  0.29311124995E+03 -0.73032801026E+03  0.81802015867E+03  0.17217840500E+03 0.  0.
         24    2    3    3    0    0  0.12726057900E+02  0.12520213575E+03 -0.38481967959E+03  0.41261564537E+03  0.79548461060E+02 0.  0.
         -6    2    1    2    0  502 -0.14219131272E+03 -0.29311124995E+03 -0.26549250497E+03  0.45433731437E+03  0.17263704925E+03 0.  0.
        -24    2    5    5    0    0 -0.83814903690E+01 -0.10158785173E+03 -0.14449544526E+03  0.19118591483E+03  0.72682730601E+02 0.  0.
          5    1    3    3  501    0  0.12946525482E+03  0.16790911419E+03 -0.34550833067E+03  0.40540451330E+03  0.47000000000E+01 0. -1.
        -11    1    4    4    0    0  0.45006749954E+02  0.85725938654E+02 -0.22778462947E+03  0.24750834637E+03  0.00000000000E+00 0.  1.
         12    1    4    4    0    0 -0.32280692055E+02  0.39476197097E+02 -0.15703505012E+03  0.16510729900E+03  0.00000000000E+00 0. -1.
         -5    1    5    5    0  502 -0.13380982236E+03 -0.19152339821E+03 -0.12099705971E+03  0.26315139954E+03  0.47000000000E+01 0.  1.
         11    1    6    6    0    0 -0.98712979375E+01 -0.10215194486E+02  0.57550637964E+01  0.15326887507E+02  0.00000000000E+00 0. -1.
        -12    1    6    6    0    0  0.14898075685E+01 -0.91372657245E+02 -0.15025050905E+03  0.17585902732E+03  0.00000000000E+00 0.  1.
</event>
<event>
12    1  0.8494789E-002  0.2084218E+03  0.7818608E-02  0.1142975E+00
         21   -1    0    0  501  502  0.00000000000E+00  0.00000000000E+00  0.10128412995E+03  0.10128412995E+03  0.00000000000E+00 0.  1.
         21   -1    0    0  502  503 -0.00000000000E+00 -0.00000000000E+00 -0.47547690318E+03  0.47547690318E+03  0.00000000000E+00 0.  1.
         -6    2    1    2    0  503  0.11702524917E+03 -0.23023019373E+01 -0.27856803395E+03  0.34744957635E+03  0.17152506822E+03 0.  0.
        -24    2    3    3    0    0 -0.57966265094E+01 -0.55906536199E+01 -0.80542409815E+02  0.11435675317E+03  0.80780758418E+02 0.  0.
          6    2    1    2  501    0 -0.11702524917E+03  0.23023019373E+01 -0.95624739281E+02  0.22931145677E+03  0.17245127981E+03 0.  0.
         24    2    5    5    0    0 -0.57050366542E+02  0.10935489606E+02  0.18163857521E+02  0.10030970005E+03  0.79735694319E+02 0.  0.
          5    1    5    5  501    0 -0.59974882631E+02 -0.86331876688E+01 -0.11378859680E+03  0.12900175673E+03  0.47000000000E+01 0. -1.
        -13    1    6    6    0    0  0.12380997901E+01 -0.76226600541E+01  0.35818483793E+02  0.36641528606E+02  0.00000000000E+00 0.  1.
         14    1    6    6    0    0 -0.58288466332E+02  0.18558149660E+02 -0.17654626272E+02  0.63668171443E+02  0.00000000000E+00 0. -1.
         -5    1    3    3    0  503  0.12282187568E+03  0.32883516826E+01 -0.19802562414E+03  0.23309282318E+03  0.47000000000E+01 0.  1.
         11    1    4    4    0    0  0.27229173539E+02  0.19078217972E+01 -0.34087542656E+00  0.27298056188E+02  0.00000000000E+00 0. -1.
        -12    1    4    4    0    0 -0.33025800048E+02 -0.74984754172E+01 -0.80201534388E+02  0.87058696984E+02  0.00000000000E+00 0.  1.
</event>
<event>
12    1  0.8494789E-002  0.2415779E+03  0.7818608E-02  0.1118909E+00
         21   -1    0    0  501  502  0.00000000000E+00  0.00000000000E+00  0.33989338662E+02  0.33989338662E+02  0.00000000000E+00 0.  1.
         21   -1    0    0  502  503 -0.00000000000E+00 -0.00000000000E+00 -0.17147502651E+04  0.17147502651E+04  0.00000000000E+00 0.  1.
         -6    2    1    2    0  503 -0.27542311396E+02  0.16552887201E+03 -0.79277597546E+03  0.82848032268E+03  0.17241667963E+03 0.  0.
        -24    2    3    3    0    0  0.49271493312E+02  0.92123682685E+02 -0.36798658337E+03  0.39057987732E+03  0.78892725028E+02 0.  0.
          6    2    1    2  501    0  0.27542311396E+02 -0.16552887201E+03 -0.88798495101E+03  0.92025928112E+03  0.17378574416E+03 0.  0.
         24    2    5    5    0    0  0.15176475398E+02 -0.61591302103E+02 -0.67750978511E+03  0.68514692968E+03  0.79893631956E+02 0.  0.
          5    1    5    5  501    0  0.12365835998E+02 -0.10393756990E+03 -0.21047516591E+03  0.23511235144E+03  0.47000000000E+01 0. -1.
        -13    1    6    6    0    0 -0.19277920554E+02 -0.64578211093E+02 -0.45627383452E+03  0.46122423574E+03  0.00000000000E+00 0.  1.
         14    1    6    6    0    0  0.34454395952E+02  0.29869089902E+01 -0.22123595059E+03  0.22392269393E+03  0.00000000000E+00 0. -1.
         -5    1    3    3    0  503 -0.76813804708E+02  0.73405189322E+02 -0.42478939208E+03  0.43790044535E+03  0.47000000000E+01 0.  1.
         11    1    4    4    0    0 -0.13582355163E+02  0.23167813799E+02 -0.31486483253E+02  0.41383892949E+02  0.00000000000E+00 0. -1.
        -12    1    4    4    0    0  0.62853848475E+02  0.68955868887E+02 -0.33650010012E+03  0.34919598438E+03  0.00000000000E+00 0.  1.
</event>
<event>
12    1  0.8494789E-002  0.2284337E+03  0.7818608E-02  0.1127897E+00
         21   -1    0    0  503  502  0.00000000000E+00  0.00000000000E+00  0.54054874644E+02  0.54054874644E+02  0.00000000000E+00 0. -1.
         21   -1    0    0  501  503 -0.00000000000E+00 -0.00000000000E+00 -0.98445776592E+03  0.98445776592E+03  0.00000000000E+00 0.  1.
          6    2    1    2  501    0  0.14347600581E+03  0.32259685750E+02 -0.54315470150E+03  0.58890933461E+03  0.17369836805E+03 0.  0.
         24    2    3    3    0    0  0.32726712802E+02  0.44543883793E+02 -0.13450587190E+03  0.16531487838E+03  0.78625594573E+02 0.  0.
         -6    2    1    2    0  502 -0.14347600581E+03 -0.32259685750E+02 -0.38724818978E+03  0.44960330596E+03  0.17480251906E+03 0.  0.
        -24    2    5    5    0    0 -0.22564975897E+02 -0.60713716524E+02 -0.20133794093E+03  0.22596560866E+03  0.79549709808E+02 0.  0.
          5    1    3    3  501    0  0.11074929301E+03 -0.12284198043E+02 -0.40864882959E+03  0.42359445623E+03  0.47000000000E+01 0. -1.
        -13    1    4    4    0    0  0.16936307365E+02  0.55368180333E+02 -0.13421146381E+03  0.14616836497E+03  0.00000000000E+00 0.  1.
         14    1    4    4    0    0  0.15790405436E+02 -0.10824296540E+02 -0.29440809376E+00  0.19146513404E+02  0.00000000000E+00 0. -1.
         -5    1    5    5    0  502 -0.12091102991E+03  0.28454030774E+02 -0.18591024885E+03  0.22363769729E+03  0.47000000000E+01 0.  1.
         11    1    6    6    0    0  0.27549483443E+00  0.88666442420E-01 -0.12800255650E+03  0.12800288368E+03  0.00000000000E+00 0. -1.
        -12    1    6    6    0    0 -0.22840470732E+02 -0.60802382966E+02 -0.73335384426E+02  0.97962724985E+02  0.00000000000E+00 0.  1.
</event>
<event>
12    1  0.8494789E-002  0.2307717E+03  0.7818608E-02  0.1129273E+00
         21   -1    0    0  501  502  0.00000000000E+00  0.00000000000E+00  0.13044161964E+03  0.13044161964E+03  0.00000000000E+00 0. -1.
         21   -1    0    0  502  503 -0.00000000000E+00 -0.00000000000E+00 -0.22148609317E+04  0.22148609317E+04  0.00000000000E+00 0. -1.
         -6    2    1    2    0  503  0.11067547006E+03 -0.58369972585E+02 -0.21169106999E+04  0.21294521529E+04  0.19390576731E+03 0.  0.
        -24    2    3    3    0    0  0.41480829677E+02  0.10859735237E+02 -0.16397563944E+04  0.16423392584E+04  0.81477687705E+02 0.  0.
          6    2    1    2  501    0 -0.11067547006E+03  0.58369972585E+02  0.32491387813E+02  0.21585039850E+03  0.17285714008E+03 0.  0.
         24    2    5    5    0    0 -0.13131211076E+03  0.61773975067E+02  0.64821431756E+02  0.17705890570E+03  0.78032965124E+02 0.  0.
          5    1    5    5  501    0  0.20636640699E+02 -0.34040024819E+01 -0.32330043943E+02  0.38791492799E+02  0.47000000000E+01 0. -1.
        -13    1    6    6    0    0 -0.27922799833E+02  0.54186106654E+02  0.20470824750E+02  0.64302967045E+02  0.00000000000E+00 0.  1.
         14    1    6    6    0    0 -0.10338931092E+03  0.75878684126E+01  0.44350607006E+02  0.11275593866E+03  0.00000000000E+00 0. -1.
         -5    1    3    3    0  503  0.69194640381E+02 -0.69229707821E+02 -0.47715430554E+03  0.48711289451E+03  0.47000000000E+01 0.  1.
         11    1    4    4    0    0  0.55407465007E+02 -0.13400190260E+02 -0.13584341831E+04  0.13596297225E+04  0.00000000000E+00 0. -1.
        -12    1    4    4    0    0 -0.13926635330E+02  0.24259925496E+02 -0.28132221121E+03  0.28270953588E+03  0.00000000000E+00 0.  1.
</event>
<event>
12    1  0.8494789E-002  0.1871976E+03  0.7818608E-02  0.1164032E+00
         21   -1    0    0  503  502  0.00000000000E+00  0.00000000000E+00  0.40691554121E+02  0.40691554121E+02  0.00000000000E+00 0. -1.
         21   -1    0    0  501  503 -0.00000000000E+00 -0.00000000000E+00 -0.11425250579E+04  0.11425250579E+04  0.00000000000E+00 0. -1.
          6    2    1    2  501    0  0.32736838063E+02 -0.21808902243E+02 -0.88637354039E+03  0.90592548267E+03  0.18301802713E+03 0.  0.
         24    2    3    3    0    0  0.62202527155E+02  0.25098281575E+02 -0.31497571224E+03  0.33182960327E+03  0.80013175046E+02 0.  0.
         -6    2    1    2    0  502 -0.32736838063E+02  0.21808902243E+02 -0.21545996335E+03  0.27729112932E+03  0.17005894804E+03 0.  0.
        -24    2    5    5    0    0  0.31421240333E+02  0.29592109489E+02 -0.18369071027E+03  0.20512318089E+03  0.80437895373E+02 0.  0.
          5    1    3    3  501    0 -0.29465689092E+02 -0.46907183818E+02 -0.57139782815E+03  0.57409587939E+03  0.47000000000E+01 0. -1.
        -13    1    4    4    0    0  0.55588579793E+02  0.43809390104E+02 -0.29609816857E+03  0.30443961354E+03  0.00000000000E+00 0.  1.
         14    1    4    4    0    0  0.66139473613E+01 -0.18711108530E+02 -0.18877543678E+02  0.27389989730E+02  0.00000000000E+00 0. -1.
         -5    1    5    5    0  502 -0.64158078396E+02 -0.77832072454E+01 -0.31769253078E+02  0.72167948423E+02  0.47000000000E+01 0.  1.
         13    1    6    6    0    0 -0.14850947161E+01  0.49472955059E+02 -0.75245590701E+02  0.90064852792E+02  0.00000000000E+00 0. -1.
        -14    1    6    6    0    0  0.32906335049E+02 -0.19880845570E+02 -0.10844511957E+03  0.11505832810E+03  0.00000000000E+00 0.  1.
</event>
<event>
12    1  0.8494789E-002  0.1760068E+03  0.7818608E-02  0.1172213E+00
         21   -1    0    0  503  502  0.00000000000E+00  0.00000000000E+00  0.10154136274E+04  0.10154136274E+04  0.00000000000E+00 0.  1.
         21   -1    0    0  501  503 -0.00000000000E+00 -0.00000000000E+00 -0.58891691952E+02  0.58891691952E+02  0.00000000000E+00 0.  1.
          6    2    1    2  501    0 -0.24622144918E+02 -0.71933316478E+01  0.10178076830E+03  0.20163077874E+03  0.17215589475E+03 0.  0.
         24    2    3    3    0    0  0.12383464518E+02 -0.65956979361E+02  0.62277162863E+02  0.12159824620E+03  0.80025090717E+02 0.  0.
         -6    2    1    2    0  502  0.24622144918E+02  0.71933316478E+01  0.85474116719E+03  0.87267454065E+03  0.17412753080E+03 0.  0.
        -24    2    5    5    0    0  0.17405408290E+02  0.73738320149E+02  0.49443880088E+03  0.50617733473E+03  0.77495021033E+02 0.  0.
          5    1    3    3  501    0 -0.37005609436E+02  0.58763647713E+02  0.39503605440E+02  0.80032532542E+02  0.47000000000E+01 0. -1.
        -11    1    4    4    0    0  0.33813388609E+01 -0.10912271309E+02 -0.19506535087E+02  0.22605663642E+02  0.00000000000E+00 0.  1.
         12    1    4    4    0    0  0.90021256573E+01 -0.55044708052E+02  0.81783697949E+02  0.98992582556E+02  0.00000000000E+00 0. -1.
         -5    1    5    5    0  502  0.72167366278E+01 -0.66544988501E+02  0.36030236630E+03  0.36649720592E+03  0.47000000000E+01 0.  1.
         13    1    6    6    0    0  0.22905915789E+02  0.51603927482E+01  0.38632675568E+02  0.45208342737E+02  0.00000000000E+00 0. -1.
        -14    1    6    6    0    0 -0.55005074997E+01  0.68577927401E+02  0.45580612531E+03  0.46096899200E+03  0.00000000000E+00 0.  1.
</event>
<event>
12    1  0.8494789E-002  0.1976710E+03  0.7818608E-02  0.1151970E+00
         21   -1    0    0  503  502  0.00000000000E+00  0.00000000000E+00  0.14469093686E+03  0.14469093686E+03  0.00000000000E+00 0.  1.
         21   -1    0    0  501  503 -0.00000000000E+00 -0.00000000000E+00 -0.27117075248E+03  0.27117075248E+03  0.00000000000E+00 0.  1.
          6    2    1    2  501    0 -0.69633404915E+02 -0.66108213020E+02 -0.84239800620E+02  0.21487242122E+03  0.17278514544E+03 0.  0.
         24    2    3    3    0    0 -0.26572763722E+02  0.24306794222E+02 -0.10094180295E+02  0.90177772709E+02  0.82056116150E+02 0.  0.
         -6    2    1    2    0  502  0.69633404915E+02  0.66108213020E+02 -0.42240014995E+02  0.20098926812E+03  0.17144491863E+03 0.  0.
        -24    2    5    5    0    0 -0.64693077767E+01 -0.11395266364E+02 -0.46717550363E+02  0.92174974393E+02  0.78370864189E+02 0.  0.
          5    1    3    3  501    0 -0.43060641193E+02 -0.90415007242E+02 -0.74145620325E+02  0.12469464851E+03  0.47000000000E+01 0. -1.
        -11    1    4    4    0    0 -0.44703273133E+02 -0.13812145862E+02 -0.51127412928E-01  0.46788466700E+02  0.00000000000E+00 0.  1.
         12    1    4    4    0    0  0.18130509411E+02  0.38118940085E+02 -0.10043052882E+02  0.43389306008E+02  0.00000000000E+00 0. -1.
         -5    1    5    5    0  502  0.76102712692E+02  0.77503479384E+02  0.44775353682E+01  0.10881429372E+03  0.47000000000E+01 0.  1.
         13    1    6    6    0    0  0.13095485200E+02  0.21052773887E+02 -0.48257100885E+02  0.54253652474E+02  0.00000000000E+00 0. -1.
        -14    1    6    6    0    0 -0.19564792976E+02 -0.32448040250E+02  0.15395505216E+01  0.37921321919E+02  0.00000000000E+00 0.  1.
</event>
<event>
12    1  0.8494789E-002  0.2176492E+03  0.7818608E-02  0.1136216E+00
         21   -1    0    0  501  502  0.00000000000E+00  0.00000000000E+00  0.13060440819E+04  0.13060440819E+04  0.00000000000E+00 0.  1.
         21   -1    0    0  502  503 -0.00000000000E+00 -0.00000000000E+00 -0.13873729669E+03  0.13873729669E+03  0.00000000000E+00 0. -1.
         -6    2    1    2    0  503  0.12120941648E+03 -0.55285901446E+02 -0.37625007375E+02  0.22087741124E+03  0.17211314904E+03 0.  0.
        -24    2    3    3    0    0  0.16469273524E+02  0.10858485527E+02  0.18268171164E+02  0.84893166262E+02  0.80523163884E+02 0.  0.
          6    2    1    2  501    0 -0.12120941648E+03  0.55285901446E+02  0.12049317926E+04  0.12239039674E+04  0.16832124937E+03 0.  0.
         24    2    5    5    0    0 -0.30654889940E+02  0.38366840107E+02  0.90725201580E+03  0.91226039464E+03  0.81860068096E+02 0.  0.
          5    1    5    5  501    0 -0.90554526540E+02  0.16919061339E+02  0.29767977682E+03  0.31164357275E+03  0.47000000000E+01 0. -1.
        -11    1    6    6    0    0 -0.30645220027E+02  0.23196056447E+02  0.14965528107E+03  0.15451177851E+03  0.00000000000E+00 0.  1.
         12    1    6    6    0    0 -0.96699135347E-02  0.15170783660E+02  0.75759673473E+03  0.75774861613E+03  0.00000000000E+00 0. -1.
         -5    1    3    3    0  503  0.10474014296E+03 -0.66144386974E+02 -0.55893178539E+02  0.13598424498E+03  0.47000000000E+01 0.  1.
         11    1    4    4    0    0  0.28152947556E+02  0.41340070318E+02  0.14226568113E+02  0.51999856829E+02  0.00000000000E+00 0. -1.
        -12    1    4    4    0    0 -0.11683674032E+02 -0.30481584790E+02  0.40416030508E+01  0.32893309433E+02  0.00000000000E+00 0.  1.
</event>
<event>
12    1  0.8494789E-002  0.1978170E+03  0.7818608E-02  0.1151630E+00
         21   -1    0    0  501  502  0.00000000000E+00  0.00000000000E+00  0.36299821987E+03  0.36299821987E+03  0.00000000000E+00 0. -1.
         21   -1    0    0  502  503 -0.00000000000E+00 -0.00000000000E+00 -0.11694067870E+03  0.11694067870E+03  0.00000000000E+00 0. -1.
         -6    2    1    2    0  503  0.91719040327E+02 -0.32508596400E+02  0.55562748013E+02  0.20531217466E+03  0.17203685332E+03 0.  0.
        -24    2    3    3    0    0  0.29815373449E+02 -0.14447511092E+01  0.93542891076E+02  0.12618185352E+03  0.79249882570E+02 0.  0.
          6    2    1    2  501    0 -0.91719040327E+02  0.32508596400E+02  0.19049479316E+03  0.27462672391E+03  0.17222769831E+03 0.  0.
         24    2    5    5    0    0 -0.84039135551E+02  0.41759584851E+02  0.48238032409E+02  0.13178542140E+03  0.78956002247E+02 0.  0.
          5    1    5    5  501    0 -0.76799047756E+01 -0.92509884506E+01  0.14225676075E+03  0.14284130251E+03  0.47000000000E+01 0. -1.
        -11    1    6    6    0    0  0.14478098436E+02  0.97289267399E+01 -0.15983693926E+00  0.17443993169E+02  0.00000000000E+00 0.  1.
         12    1    6    6    0    0 -0.98517233988E+02  0.32030658111E+02  0.48397869348E+02  0.11434142823E+03  0.00000000000E+00 0. -1.
         -5    1    3    3    0  503  0.61903666878E+02 -0.31063845291E+02 -0.37980143063E+02  0.79130321143E+02  0.47000000000E+01 0.  1.
         13    1    4    4    0    0  0.46408021375E+02 -0.13470185433E+01  0.19591724831E+02  0.50392009175E+02  0.00000000000E+00 0. -1.
        -14    1    4    4    0    0 -0.16592647925E+02 -0.97732565918E-01  0.73951166246E+02  0.75789844346E+02  0.00000000000E+00 0.  1.
</event>
<event>
12    1  0.8494789E-002  0.1768344E+03  0.7818608E-02  0.1172087E+00
         21   -1    0    0  503  502  0.00000000000E+00  0.00000000000E+00  0.55566064902E+03  0.55566064902E+03  0.00000000000E+00 0.  1.
         21   -1    0    0  501  503 -0.00000000000E+00 -0.00000000000E+00 -0.73180645399E+02  0.73180645399E+02  0.00000000000E+00 0.  1.
          6    2    1    2  501    0 -0.12663488174E+02 -0.18497833856E+00  0.86051214237E+02  0.19666012741E+03  0.17638025992E+03 0.  0.
         24    2    3    3    0    0  0.10606691029E+02 -0.40231391327E+02 -0.85626394819E+01  0.91213042342E+02  0.80718235583E+02 0.  0.
         -6    2    1    2    0  502  0.12663488174E+02  0.18497833856E+00  0.39642878938E+03  0.43218116701E+03  0.17165190916E+03 0.  0.
        -24    2    5    5    0    0 -0.40019839906E+02  0.26475529853E+02  0.33265494022E+03  0.34525637197E+03  0.78994378677E+02 0.  0.
          5    1    3    3  501    0 -0.23270179203E+02  0.40046412988E+02  0.94613853719E+02  0.10544708507E+03  0.47000000000E+01 0. -1.
        -13    1    4    4    0    0 -0.15228348772E+02 -0.53929284479E+02  0.95068440473E+01  0.56838810812E+02  0.00000000000E+00 0.  1.
         14    1    4    4    0    0  0.25835039800E+02  0.13697893152E+02 -0.18069483529E+02  0.34374231530E+02  0.00000000000E+00 0. -1.
         -5    1    5    5    0  502  0.52683328080E+02 -0.26290551514E+02  0.63773849162E+02  0.86924795044E+02  0.47000000000E+01 0.  1.
         13    1    6    6    0    0 -0.46049354558E+02  0.70367497298E+01  0.86368310380E+02  0.98130239681E+02  0.00000000000E+00 0. -1.
        -14    1    6    6    0    0  0.60295146524E+01  0.19438780123E+02  0.24628662984E+03  0.24712613229E+03  0.00000000000E+00 0.  1.
</event>
<event>
12    1  0.8494789E-002  0.2371011E+03  0.7818608E-02  0.1121924E+00
         21   -1    0    0  501  502  0.00000000000E+00  0.00000000000E+00  0.30031191339E+03  0.30031191339E+03  0.00000000000E+00 0. -1.
         21   -1    0    0  502  503 -0.00000000000E+00 -0.00000000000E+00 -0.33239921953E+03  0.33239921953E+03  0.00000000000E+00 0.  1.
         -6    2    1    2    0  503 -0.16197471217E+03  0.18182538703E+02 -0.22577321523E+03  0.32739960110E+03  0.17219332737E+03 0.  0.
        -24    2    3    3    0    0 -0.15889648304E+02 -0.22656706273E+02 -0.68691537101E+02  0.10898386582E+03  0.79957166517E+02 0.  0.
          6    2    1    2  501    0  0.16197471217E+03 -0.18182538703E+02  0.19368590910E+03  0.30531153182E+03  0.17068827722E+03 0.  0.
         24    2    5    5    0    0  0.38501705924E+02 -0.49523291301E+02  0.12286659395E+03  0.15948529466E+03  0.80027630006E+02 0.  0.
          5    1    5    5  501    0  0.12347300625E+03  0.31340752599E+02  0.70819315151E+02  0.14582623716E+03  0.47000000000E+01 0. -1.
        -11    1    6    6    0    0  0.21721381637E+02 -0.69170380861E+02  0.10671921988E+03  0.12901686673E+03  0.00000000000E+00 0.  1.
         12    1    6    6    0    0  0.16780324288E+02  0.19647089559E+02  0.16147374064E+02  0.30468427930E+02  0.00000000000E+00 0. -1.
         -5    1    3    3    0  503 -0.14608506387E+03  0.40839244976E+02 -0.15708167813E+03  0.21841573528E+03  0.47000000000E+01 0.  1.
         11    1    4    4    0    0  0.10019559290E+02 -0.35555148191E+02 -0.70911817337E+02  0.79956525495E+02  0.00000000000E+00 0. -1.
        -12    1    4    4    0    0 -0.25909207593E+02  0.12898441918E+02  0.22202802355E+01  0.29027340325E+02  0.00000000000E+00 0.  1.
</event>
<event>
12    1  0.8494789E-002  0.2065027E+03  0.7818608E-02  0.1144834E+00
         21   -1    0    0  503  502  0.00000000000E+00  0.00000000000E+00  0.75750424304E+03  0.75750424304E+03  0.00000000000E+00 0.  1.
         21   -1    0    0  501  503 -0.00000000000E+00 -0.00000000000E+00 -0.56764239434E+02  0.56764239434E+02  0.00000000000E+00 0.  1.
          6    2    1    2  501    0  0.39296739337E+02  0.10531860915E+03  0.40498000219E+03  0.45355069126E+03  0.17047927796E+03 0.  0.
         24    2    3    3    0    0  0.60335723834E+02  0.12902791652E+03  0.27686464450E+03  0.32148856573E+03  0.80076611490E+02 0.  0.
         -6    2    1    2    0  502 -0.39296739337E+02 -0.10531860915E+03  0.29576000142E+03  0.36071779122E+03  0.17322558502E+03 0.  0.
        -24    2    5    5    0    0  0.45873773471E+02 -0.40871456864E+02  0.14751148379E+03  0.17794152178E+03  0.78285811262E+02 0.  0.
          5    1    3    3  501    0 -0.21038984497E+02 -0.23709307365E+02  0.12811535769E+03  0.13206212553E+03  0.47000000000E+01 0. -1.
        -13    1    4    4    0    0  0.20253198125E+02  0.11793769796E+03  0.22654420244E+03  0.25620649542E+03  0.00000000000E+00 0.  1.
         14    1    4    4    0    0  0.40082525709E+02  0.11090218555E+02  0.50320442061E+02  0.65282070311E+02  0.00000000000E+00 0. -1.
         -5    1    5    5    0  502 -0.85170512807E+02 -0.64447152288E+02  0.14824851763E+03  0.18277626943E+03  0.47000000000E+01 0.  1.
         13    1    6    6    0    0 -0.50614035925E+01 -0.11709446800E+02 -0.56258219537E+01  0.13941980610E+02  0.00000000000E+00 0. -1.
        -14    1    6    6    0    0  0.50935177063E+02 -0.29162010064E+02  0.15313730575E+03  0.16399954117E+03  0.00000000000E+00 0.  1.
</event>
<event>
12    1  0.8494789E-002  0.1774330E+03  0.7818608E-02  0.1170412E+00
         21   -1    0    0  503  502  0.00000000000E+00  0.00000000000E+00  0.78599902761E+03  0.78599902761E+03  0.00000000000E+00 0.  1.
         21   -1    0    0  501  503 -0.00000000000E+00 -0.00000000000E+00 -0.40160899674E+02  0.40160899674E+02  0.00000000000E+00 0. -1.
          6    2    1    2  501    0 -0.41482299033E+02 -0.93032561625E+01  0.34426850741E+03  0.38730255685E+03  0.17226471967E+03 0.  0.
         24    2    3    3    0    0 -0.59272024842E+02  0.16675017436E+02  0.34124395197E+03  0.35532470547E+03  0.77569210516E+02 0.  0.
         -6    2    1    2    0  502  0.41482299033E+02  0.93032561625E+01  0.40156962053E+03  0.43885737043E+03  0.17184382370E+03 0.  0.
        -24    2    5    5    0    0  0.18329849236E+02  0.65926928110E+02  0.16664085279E+03  0.19604902612E+03  0.77354402602E+02 0.  0.
          5    1    3    3  501    0  0.17789725809E+02 -0.25978273598E+02  0.30245554326E+01  0.31977851383E+02  0.47000000000E+01 0. -1.
        -13    1    4    4    0    0  0.57492275333E+01 -0.19756708380E+02  0.39810530047E+02  0.44813607820E+02  0.00000000000E+00 0.  1.
         14    1    4    4    0    0 -0.65021252375E+02  0.36431725816E+02  0.30143342193E+03  0.31051109765E+03  0.00000000000E+00 0. -1.
         -5    1    5    5    0  502  0.23152449797E+02 -0.56623671947E+02  0.23492876774E+03  0.24280834431E+03  0.47000000000E+01 0.  1.
         13    1    6    6    0    0  0.28357417168E+02 -0.61766025724E+01  0.33642471789E+02  0.44430951327E+02  0.00000000000E+00 0. -1.
        -14    1    6    6    0    0 -0.10027567933E+02  0.72103530682E+02  0.13299838100E+03  0.15161807479E+03  0.00000000000E+00 0.  1.
</event>
<event>
12    1  0.8494789E-002  0.2343974E+03  0.7818608E-02  0.1123593E+00
         21   -1    0    0  503  502  0.00000000000E+00  0.00000000000E+00  0.44598622656E+03  0.44598622656E+03  0.00000000000E+00 0.  1.
         21   -1    0    0  501  503 -0.00000000000E+00 -0.00000000000E+00 -0.23783198184E+03  0.23783198184E+03  0.00000000000E+00 0. -1.
          6    2    1    2  501    0 -0.65786209250E+01 -0.15863701999E+03 -0.13332976520E+03  0.26966453183E+03  0.17243303360E+03 0.  0.
         24    2    3    3    0    0 -0.33389932384E+02 -0.15462942037E+02 -0.58206717877E+02  0.10570348384E+03  0.80194852266E+02 0.  0.
         -6    2    1    2    0  502  0.65786209250E+01  0.15863701999E+03  0.34148400991E+03  0.41415367657E+03  0.17234545664E+03 0.  0.
        -24    2    5    5    0    0 -0.42517040720E+02  0.11638573561E+03  0.31472245633E+03  0.34391247944E+03  0.62227251192E+02 0.  0.
          5    1    3    3  501    0  0.26811311459E+02 -0.14317407795E+03 -0.75123047319E+02  0.16396104799E+03  0.47000000000E+01 0. -1.
        -11    1    4    4    0    0 -0.18153436747E+02  0.55231844695E+01  0.17416931201E+02  0.25756597696E+02  0.00000000000E+00 0.  1.
         12    1    4    4    0    0 -0.15236495637E+02 -0.20986126507E+02 -0.75623649078E+02  0.79946886149E+02  0.00000000000E+00 0. -1.
         -5    1    5    5    0  502  0.49095661645E+02  0.42251284381E+02  0.26761553587E+02  0.70241197133E+02  0.47000000000E+01 0.  1.
         11    1    6    6    0    0 -0.28275915316E+02  0.14113919793E+02  0.11247125017E+03  0.11682684723E+03  0.00000000000E+00 0. -1.
        -12    1    6    6    0    0 -0.14241125405E+02  0.10227181581E+03  0.20225120616E+03  0.22708563221E+03  0.00000000000E+00 0.  1.
</event>
<event>
12    1  0.8494789E-002  0.1751618E+03  0.7818608E-02  0.1172763E+00
         21   -1    0    0  501  502  0.00000000000E+00  0.00000000000E+00  0.49555368279E+03  0.49555368279E+03  0.00000000000E+00 0.  1.
         21   -1    0    0  502  503 -0.00000000000E+00 -0.00000000000E+00 -0.89814171633E+02  0.89814171633E+02  0.00000000000E+00 0.  1.
         -6    2    1    2    0  503  0.13855246265E+02  0.17572846149E+02  0.36710006834E+03  0.40674820278E+03  0.17372641572E+03 0.  0.
        -24    2    3    3    0    0 -0.12565203574E+02 -0.66896671719E+02  0.18044959087E+03  0.20012383259E+03  0.53427001568E+02 0.  0.
          6    2    1    2  501    0 -0.13855246265E+02 -0.17572846149E+02  0.38639442817E+02  0.17861965164E+03  0.17294854911E+03 0.  0.
         24    2    5    5    0    0 -0.42236340546E+02 -0.30294925752E+02  0.81937885902E+02  0.12510158931E+03  0.78961379882E+02 0.  0.
          5    1    5    5  501    0  0.28381094281E+02  0.12722079602E+02 -0.43298443085E+02  0.53518062330E+02  0.47000000000E+01 0. -1.
        -11    1    6    6    0    0 -0.11931870303E+02  0.27022023141E+02  0.22330839237E+02  0.37030064064E+02  0.00000000000E+00 0.  1.
         12    1    6    6    0    0 -0.30304470243E+02 -0.57316948893E+02  0.59607046665E+02  0.88071525246E+02  0.00000000000E+00 0. -1.
         -5    1    3    3    0  503  0.26420449839E+02  0.84469517868E+02  0.18665047746E+03  0.20662437019E+03  0.47000000000E+01 0.  1.
         11    1    4    4    0    0 -0.91755984443E+01 -0.18516023655E+02  0.10092721776E+02  0.22997777537E+02  0.00000000000E+00 0. -1.
        -12    1    4    4    0    0 -0.33896051296E+01 -0.48380648063E+02  0.17035686910E+03  0.17712605505E+03  0.00000000000E+00 0.  1.
</event>
<event>
12    1  0.8494789E-002  0.2625966E+03  0.7818608E-02  0.1105655E+00
         21   -1    0    0  501  502  0.00000000000E+00  0.00000000000E+00  0.13467858843E+03  0.13467858843E+03  0.00000000000E+00 0.  1.
         21   -1    0    0  502  503 -0.00000000000E+00 -0.00000000000E+00 -0.89380369892E+03  0.89380369892E+03  0.00000000000E+00 0. -1.
         -6    2    1    2    0  503 -0.12594188137E+03  0.15193678753E+03 -0.71584172230E+03  0.76234240610E+03  0.17259903782E+03 0.  0.
        -24    2    3    3    0    0 -0.12130382049E+02  0.21516518590E+02 -0.14771176563E+03  0.16840954660E+03  0.77025339584E+02 0.  0.
          6    2    1    2  501    0  0.12594188137E+03 -0.15193678753E+03 -0.43283388184E+02  0.26613988125E+03  0.17323636978E+03 0.  0.
         24    2    5    5    0    0  0.29297318479E+02 -0.64117960217E+01 -0.30174652766E+02  0.90892559925E+02  0.80321253612E+02 0.  0.
          5    1    5    5  501    0  0.96644562894E+02 -0.14552499150E+03 -0.13108735418E+02  0.17524732133E+03  0.47000000000E+01 0. -1.
        -13    1    6    6    0    0  0.37793843415E+02 -0.13392810949E+02  0.16189868240E+02  0.43241806378E+02  0.00000000000E+00 0.  1.
         14    1    6    6    0    0 -0.84965249367E+01  0.69810149268E+01 -0.46364521006E+02  0.47650753547E+02  0.00000000000E+00 0. -1.
         -5    1    3    3    0  503 -0.11381149932E+03  0.13042026894E+03 -0.56812995667E+03  0.59393285950E+03  0.47000000000E+01 0.  1.
         11    1    4    4    0    0 -0.39347737218E+02  0.29125249290E+02 -0.11614537602E+03  0.12604075905E+03  0.00000000000E+00 0. -1.
        -12    1    4    4    0    0  0.27217355169E+02 -0.76087307002E+01 -0.31566389612E+02  0.42368787549E+02  0.00000000000E+00 0.  1.
</event>
<event>
12    1  0.8494789E-002  0.1985567E+03  0.7818608E-02  0.1151372E+00
         21   -1    0    0  503  502  0.00000000000E+00  0.00000000000E+00  0.13204565831E+03  0.13204565831E+03  0.00000000000E+00 0.  1.
         21   -1    0    0  501  503 -0.00000000000E+00 -0.00000000000E+00 -0.31042847110E+03  0.31042847110E+03  0.00000000000E+00 0.  1.
          6    2    1    2  501    0 -0.79181984688E+02 -0.60517331935E+02 -0.13779421583E+03  0.24168574206E+03  0.17173414871E+03 0.  0.
         24    2    3    3    0    0 -0.99407907854E+02 -0.93194492967E+02 -0.12629866715E+03  0.20129858493E+03  0.77476585561E+02 0.  0.
         -6    2    1    2    0  502  0.79181984688E+02  0.60517331935E+02 -0.40588596958E+02  0.20078838736E+03  0.16951816460E+03 0.  0.
        -24    2    5    5    0    0  0.38675343713E+02 -0.14870612789E+02 -0.67137783046E+02  0.11106057977E+03  0.78166828832E+02 0.  0.
          5    1    3    3  501    0  0.20225923165E+02  0.32677161032E+02 -0.11495548686E+02  0.40387157124E+02  0.47000000000E+01 0. -1.
        -11    1    4    4    0    0 -0.61441354872E+02 -0.99490438840E+01 -0.32301876411E+02  0.70124423580E+02  0.00000000000E+00 0.  1.
         12    1    4    4    0    0 -0.37966552982E+02 -0.83245449083E+02 -0.93996790735E+02  0.13117416135E+03  0.00000000000E+00 0. -1.
         -5    1    5    5    0  502  0.40506640976E+02  0.75387944725E+02  0.26549186088E+02  0.89727807590E+02  0.47000000000E+01 0.  1.
         11    1    6    6    0    0  0.61582490787E+02 -0.97559457234E+01 -0.59993124259E+02  0.86526045830E+02  0.00000000000E+00 0. -1.
        -12    1    6    6    0    0 -0.22907147075E+02 -0.51146670659E+01 -0.71446587865E+01  0.24534533936E+02  0.00000000000E+00 0.  1.
</event>
<event>
12    1  0.8494789E-002  0.4163350E+03  0.7818608E-02  0.1038365E+00
         21   -1    0    0  501  502  0.00000000000E+00  0.00000000000E+00  0.82109594760E+03  0.82109594760E+03  0.00000000000E+00 0.  1.
         21   -1    0    0  502  503 -0.00000000000E+00 -0.00000000000E+00 -0.24373088196E+03  0.24373088196E+03  0.00000000000E+00 0. -1.
         -6    2    1    2    0  503 -0.34797274498E+03 -0.15071492410E+03  0.48493373148E+03  0.63835483671E+03  0.16892647524E+03 0.  0.
        -24    2    3    3    0    0 -0.13163280757E+03 -0.10016079415E+03  0.15352920216E+03  0.23934388370E+03  0.79717614338E+02 0.  0.
          6    2    1    2  501    0  0.34797274498E+03  0.15071492410E+03  0.92431334154E+02  0.42647199284E+03  0.17185688684E+03 0.  0.
         24    2    5    5    0    0  0.12988453965E+03  0.81169856222E+02 -0.16466101222E+02  0.17293753128E+03  0.78598460777E+02 0.  0.
          5    1    5    5  501    0  0.21808820533E+03  0.69545067879E+02  0.10889743538E+03  0.25353446156E+03  0.47000000000E+01 0. -1.
        -11    1    6    6    0    0  0.91281414827E+02  0.89303224663E+02  0.54339778698E+01  0.12781584700E+03  0.00000000000E+00 0.  1.
         12    1    6    6    0    0  0.38603124823E+02 -0.81333684407E+01 -0.21900079092E+02  0.45121684283E+02  0.00000000000E+00 0. -1.
         -5    1    3    3    0  503 -0.21633993741E+03 -0.50554129948E+02  0.33140452931E+03  0.39901095301E+03  0.47000000000E+01 0.  1.
         13    1    4    4    0    0 -0.13829782600E+03 -0.74541765385E+02  0.13301567746E+03  0.20585415690E+03  0.00000000000E+00 0. -1.
        -14    1    4    4    0    0  0.66650184299E+01 -0.25619028768E+02  0.20513524699E+02  0.33489726802E+02  0.00000000000E+00 0.  1.
</event>
<event>
12    1  0.8494789E-002  0.1817857E+03  0.7818608E-02  0.1166161E+00
         21   -1    0    0  501  502  0.00000000000E+00  0.00000000000E+00  0.95442617964E+02  0.95442617964E+02  0.00000000000E+00 0. -1.
         21   -1    0    0  502  503 -0.00000000000E+00 -0.00000000000E+00 -0.34769863057E+03  0.34769863057E+03  0.00000000000E+00 0. -1.
         -6    2    1    2    0  503  0.77741476682E+00 -0.56147966598E+02 -0.14329247475E+03  0.23147089265E+03  0.17289546638E+03 0.  0.
        -24    2    3    3    0    0 -0.63062416618E+02 -0.44886233293E+02 -0.11962976412E+03  0.16230179129E+03  0.77710672778E+02 0.  0.
          6    2    1    2  501    0 -0.77741476682E+00  0.56147966598E+02 -0.10896353785E+03  0.21167035589E+03  0.17256328825E+03 0.  0.
         24    2    5    5    0    0 -0.42755264527E+02  0.84555473002E+02 -0.10108429253E+03  0.16016017439E+03  0.80346789640E+02 0.  0.
          5    1    5    5  501    0  0.41977849761E+02 -0.28407506404E+02 -0.78792453183E+01  0.51510181492E+02  0.47000000000E+01 0. -1.
        -11    1    6    6    0    0  0.13593108899E+01  0.65317069358E+02 -0.89238182785E+02  0.11059665701E+03  0.00000000000E+00 0.  1.
         12    1    6    6    0    0 -0.44114575417E+02  0.19238403643E+02 -0.11846109749E+02  0.49563517381E+02  0.00000000000E+00 0. -1.
         -5    1    3    3    0  503  0.63839831385E+02 -0.11261733305E+02 -0.23662710635E+02  0.69169101360E+02  0.47000000000E+01 0.  1.
         11    1    4    4    0    0 -0.62434069104E+01 -0.18728088270E+02 -0.91695518125E+02  0.93796532262E+02  0.00000000000E+00 0. -1.
        -12    1    4    4    0    0 -0.56819009708E+02 -0.26158145023E+02 -0.27934245994E+02  0.68505259028E+02  0.00000000000E+00 0.  1.
</event>
<event>
12    1  0.8494789E-002  0.1907789E+03  0.7818608E-02  0.1157960E+00
         21   -1    0    0  503  502  0.00000000000E+00  0.00000000000E+00  0.11887406185E+03  0.11887406185E+03  0.00000000000E+00 0. -1.
         21   -1    0    0  501  503 -0.00000000000E+00 -0.00000000000E+00 -0.31250557376E+03  0.31250557376E+03  0.00000000000E+00 0.  1.
          6    2    1    2  501    0 -0.57256399376E+02 -0.58977748793E+02 -0.13100517180E+03  0.23142801864E+03  0.17216243101E+03 0.  0.
         24    2    3    3    0    0 -0.88174725656E+02 -0.70578827623E+02 -0.14181975099E+03  0.19636275017E+03  0.75427678825E+02 0.  0.
         -6    2    1    2    0  502  0.57256399376E+02  0.58977748793E+02 -0.62626340108E+02  0.19995161696E+03  0.17117803752E+03 0.  0.
        -24    2    5    5    0    0 -0.14100518184E+02  0.39421534119E+02  0.15659092027E+02  0.92132536551E+02  0.80562492283E+02 0.  0.
          5    1    3    3  501    0  0.30918326280E+02  0.11601078830E+02  0.10814579183E+02  0.35065268470E+02  0.47000000000E+01 0. -1.
        -13    1    4    4    0    0 -0.80723299407E+01 -0.14909922414E+01 -0.65282974873E+02  0.65797054469E+02  0.00000000000E+00 0.  1.
         14    1    4    4    0    0 -0.80102395715E+02 -0.69087835382E+02 -0.76536776112E+02  0.13056569570E+03  0.00000000000E+00 0. -1.
         -5    1    5    5    0  502  0.71356917560E+02  0.19556214674E+02 -0.78285432135E+02  0.10781908041E+03  0.47000000000E+01 0.  1.
         11    1    6    6    0    0 -0.21255576242E+02 -0.18196982751E+02  0.19245901154E+02  0.33960777580E+02  0.00000000000E+00 0. -1.
        -12    1    6    6    0    0  0.71550580579E+01  0.57618516870E+02 -0.35868091267E+01  0.58171758971E+02  0.00000000000E+00 0.  1.
</event>
<event>
12    1  0.8494789E-002  0.1863482E+03  0.7818608E-02  0.1161845E+00
         21   -1    0    0  503  502  0.00000000000E+00  0.00000000000E+00  0.23695263576E+03  0.23695263576E+03  0.00000000000E+00 0.  1.
         21   -1    0    0  501  503 -0.00000000000E+00 -0.00000000000E+00 -0.15726624723E+03  0.15726624723E+03  0.00000000000E+00 0. -1.
          6    2    1    2  501    0 -0.59503550724E+02 -0.37891096346E+02 -0.11976809036E+02  0.18673271286E+03  0.17247972161E+03 0.  0.
         24    2    3    3    0    0 -0.13519109946E+02  0.30701014064E+02  0.34210120281E+02  0.91997456255E+02  0.78535858239E+02 0.  0.
         -6    2    1    2    0  502  0.59503550724E+02  0.37891096346E+02  0.91663197565E+02  0.20748617012E+03  0.17225551159E+03 0.  0.
        -24    2    5    5    0    0  0.90037683863E+02 -0.15886192524E+02  0.78641360378E+02  0.14411434414E+03  0.78900728744E+02 0.  0.
          5    1    3    3  501    0 -0.45984440778E+02 -0.68592110410E+02 -0.46186929318E+02  0.94735256604E+02  0.47000000000E+01 0. -1.
        -13    1    4    4    0    0 -0.28737870054E+02 -0.89316258457E+01  0.39014380429E+02  0.49272314698E+02  0.00000000000E+00 0.  1.
         14    1    4    4    0    0  0.15218760108E+02  0.39632639910E+02 -0.48042601473E+01  0.42725141556E+02  0.00000000000E+00 0. -1.
         -5    1    5    5    0  502 -0.30534133139E+02  0.53777288870E+02  0.13021837187E+02  0.63371825983E+02  0.47000000000E+01 0.  1.
         11    1    6    6    0    0  0.32229558377E+02 -0.37286323145E+02  0.72863236217E+01  0.49820727000E+02  0.00000000000E+00 0. -1.
        -12    1    6    6    0    0  0.57808125486E+02  0.21400130621E+02  0.71355036756E+02  0.94293617140E+02  0.00000000000E+00 0.  1.
</event>
<event>
12    1  0.8494789E-002  0.2687259E+03  0.7818608E-02  0.1102139E+00
         21   -1    0    0  503  502  0.00000000000E+00  0.00000000000E+00  0.74053036848E+03  0.74053036848E+03  0.00000000000E+00 0.  1.
         21   -1    0    0  501  503 -0.00000000000E+00 -0.00000000000E+00 -0.45341122404E+03  0.45341122404E+03  0.00000000000E+00 0.  1.
          6    2    1    2  501    0  0.15730324324E+03 -0.13250515290E+03 -0.38552139874E+03  0.46993653874E+03  0.17294992247E+03 0.  0.
         24    2    3    3    0    0  0.18609563557E+03 -0.12912333835E+03 -0.34749801496E+03  0.42189170302E+03  0.77028024717E+02 0.  0.
         -6    2    1    2    0  502 -0.15730324324E+03  0.13250515290E+03  0.67264054318E+03  0.72400505378E+03  0.17156949524E+03 0.  0.
        -24    2    5    5    0    0 -0.14996144734E+03  0.10356105404E+03  0.37348555219E+03  0.42332671824E+03  0.80627074153E+02 0.  0.
          5    1    3    3  501    0 -0.28792392330E+02 -0.33818145532E+01 -0.38023383771E+02  0.48044835718E+02  0.47000000000E+01 0. -1.
        -11    1    4    4    0    0  0.12309269424E+03 -0.10867765982E+03 -0.29400384837E+03  0.33675051296E+03  0.00000000000E+00 0.  1.
         12    1    4    4    0    0  0.63002941330E+02 -0.20445678527E+02 -0.53494166595E+02  0.85141190069E+02  0.00000000000E+00 0. -1.
         -5    1    5    5    0  502 -0.73417959019E+01  0.28944098863E+02  0.29915499099E+03  0.30067833554E+03  0.47000000000E+01 0.  1.
         13    1    6    6    0    0 -0.62436264409E+01 -0.32378031326E+01 -0.20183628313E+01  0.73171052184E+01  0.00000000000E+00 0. -1.
        -14    1    6    6    0    0 -0.14371782090E+03  0.10679885717E+03  0.37550391502E+03  0.41600961303E+03  0.00000000000E+00 0.  1.
</event>
<event>
12    1  0.8494789E-002  0.1718778E+03  0.7818608E-02  0.1176058E+00
         21   -1    0    0  503  502  0.00000000000E+00  0.00000000000E+00  0.74878995111E+02  0.74878995111E+02  0.00000000000E+00 0.  1.
         21   -1    0    0  501  503 -0.00000000000E+00 -0.00000000000E+00 -0.80233688340E+03  0.80233688340E+03  0.00000000000E+00 0.  1.
          6    2    1    2  501    0  0.72837617261E+01 -0.52358694634E+01 -0.67664259000E+03  0.69798370464E+03  0.17104265499E+03 0.  0.
         24    2    3    3    0    0 -0.28376814803E+02  0.44731463053E+02 -0.53438445194E+03  0.54297441820E+03  0.80301487798E+02 0.  0.
         -6    2    1    2    0  502 -0.72837617261E+01  0.52358694634E+01 -0.50815298291E+02  0.17923217387E+03  0.17164355536E+03 0.  0.
        -24    2    5    5    0    0  0.29755291224E+02 -0.20324748404E+02  0.24831290194E+02  0.91086085028E+02  0.79884974555E+02 0.  0.
          5    1    3    3  501    0  0.35660576529E+02 -0.49967332516E+02 -0.14225813806E+03  0.15500928644E+03  0.47000000000E+01 0. -1.
        -11    1    4    4    0    0 -0.23383463596E+01  0.61747532964E+02 -0.41634058826E+03  0.42090107047E+03  0.00000000000E+00 0.  1.
         12    1    4    4    0    0 -0.26038468443E+02 -0.17016069911E+02 -0.11804386368E+03  0.12207334773E+03  0.00000000000E+00 0. -1.
         -5    1    5    5    0  502 -0.37039052950E+02  0.25560617867E+02 -0.75646588485E+02  0.88146088845E+02  0.47000000000E+01 0.  1.
         13    1    6    6    0    0  0.22873495320E+02  0.29235929575E+02  0.58909919240E+01  0.37585105456E+02  0.00000000000E+00 0. -1.
        -14    1    6    6    0    0  0.68817959037E+01 -0.49560677979E+02  0.18940298270E+02  0.53500979572E+02  0.00000000000E+00 0.  1.
</event>
<event>
12    1  0.8494789E-002  0.1959064E+03  0.7818608E-02  0.1153308E+00
         21   -1    0    0  503  502  0.00000000000E+00  0.00000000000E+00  0.23359243906E+03  0.23359243906E+03  0.00000000000E+00 0. -1.
         21   -1    0    0  501  503 -0.00000000000E+00 -0.00000000000E+00 -0.23253346290E+03  0.23253346290E+03  0.00000000000E+00 0. -1.
          6    2    1    2  501    0  0.22457873169E+02  0.90819883188E+02 -0.12596424588E+03  0.23264313136E+03  0.17176503742E+03 0.  0.
         24    2    3    3    0    0 -0.16368859861E+02 -0.59162161697E+01 -0.22694955127E+02  0.85837053394E+02  0.80932055208E+02 0.  0.
         -6    2    1    2    0  502 -0.22457873169E+02 -0.90819883188E+02  0.12702322204E+03  0.23348277060E+03  0.17212407728E+03 0.  0.
        -24    2    5    5    0    0 -0.25712505992E+02 -0.51068725279E+02 -0.26361036894E+01  0.97746342412E+02  0.79235413460E+02 0.  0.
          5    1    3    3  501    0  0.38826733030E+02  0.96736099358E+02 -0.10326929075E+03  0.14680607797E+03  0.47000000000E+01 0. -1.
        -13    1    4    4    0    0 -0.40867301640E+02 -0.16378723755E+02 -0.35238246269E+02  0.56392667389E+02  0.00000000000E+00 0.  1.
         14    1    4    4    0    0  0.24498441779E+02  0.10462507585E+02  0.12543291141E+02  0.29444386005E+02  0.00000000000E+00 0. -1.
         -5    1    5    5    0  502  0.32546328226E+01 -0.39751157909E+02  0.12965932573E+03  0.13573642819E+03  0.47000000000E+01 0.  1.
         11    1    6    6    0    0  0.21874951809E+01 -0.65957403333E+02  0.21474823001E+00  0.65994017201E+02  0.00000000000E+00 0. -1.
        -12    1    6    6    0    0 -0.27900001173E+02  0.14888678053E+02 -0.28508519195E+01  0.31752325210E+02  0.00000000000E+00 0.  1.
</event>
<event>
12    1  0.8494789E-002  0.2192435E+03  0.7818608E-02  0.1134556E+00
         21   -1    0    0  503  502  0.00000000000E+00  0.00000000000E+00  0.56165088016E+03  0.56165088016E+03  0.00000000000E+00 0. -1.
         21   -1    0    0  501  503 -0.00000000000E+00 -0.00000000000E+00 -0.88514322816E+02  0.88514322816E+02  0.00000000000E+00 0. -1.
          6    2    1    2  501    0  0.96176198857E+01  0.13078656589E+03  0.29765165667E+03  0.36934026580E+03  0.17498028116E+03 0.  0.
         24    2    3    3    0    0  0.16906992631E+02  0.28929068566E+02  0.48051697821E+02  0.99617604213E+02  0.80572724900E+02 0.  0.
         -6    2    1    2    0  502 -0.96176198857E+01 -0.13078656589E+03  0.17548490068E+03  0.28082493718E+03  0.17569880634E+03 0.  0.
        -24    2    5    5    0    0  0.51797652845E+02 -0.28942531362E+02  0.71316640947E+02  0.12265680060E+03  0.80236902336E+02 0.  0.
          5    1    3    3  501    0 -0.72893727449E+01  0.10185749732E+03  0.24959995885E+03  0.26972266159E+03  0.47000000000E+01 0. -1.
        -11    1    4    4    0    0  0.31775979988E+02  0.14292586604E+02  0.64326520953E+02  0.73156628093E+02  0.00000000000E+00 0.  1.
         12    1    4    4    0    0 -0.14868987358E+02  0.14636481962E+02 -0.16274823132E+02  0.26460976120E+02  0.00000000000E+00 0. -1.
         -5    1    5    5    0  502 -0.61415272730E+02 -0.10184403453E+03  0.10416825973E+03  0.15816813658E+03  0.47000000000E+01 0.  1.
         11    1    6    6    0    0 -0.75524523159E+01 -0.38529156141E+02  0.22797743158E+02  0.45401238992E+02  0.00000000000E+00 0. -1.
        -12    1    6    6    0    0  0.59350105161E+02  0.95866247788E+01  0.48518897789E+02  0.77255561612E+02  0.00000000000E+00 0.  1.
</event>
<event>
12    1  0.8494789E-002  0.1944967E+03  0.7818608E-02  0.1155481E+00
         21   -1    0    0  503  502  0.00000000000E+00  0.00000000000E+00  0.11341965596E+04  0.11341965596E+04  0.00000000000E+00 0. -1.
         21   -1    0    0  501  503 -0.00000000000E+00 -0.00000000000E+00 -0.41070528277E+02  0.41070528277E+02  0.00000000000E+00 0. -1.
          6    2    1    2  501    0  0.68348175344E+02 -0.58321773459E+02  0.28444119972E+03  0.34458054725E+03  0.17249943511E+03 0.  0.
         24    2    3    3    0    0  0.45994112988E+02 -0.11875284654E+02  0.56769061454E+02  0.11109891421E+03  0.82847821843E+02 0.  0.
         -6    2    1    2    0  502 -0.68348175344E+02  0.58321773459E+02  0.80868483155E+03  0.83068654057E+03  0.16732026052E+03 0.  0.
        -24    2    5    5    0    0 -0.86909408216E+02  0.56651360981E+01  0.36721853409E+03  0.38567887478E+03  0.79456929640E+02 0.  0.
          5    1    3    3  501    0  0.22354062356E+02 -0.46446488805E+02  0.22767213827E+03  0.23348163305E+03  0.47000000000E+01 0. -1.
        -13    1    4    4    0    0 -0.23767113166E+02 -0.23992480253E+01  0.22433854802E+02  0.32770564545E+02  0.00000000000E+00 0.  1.
         14    1    4    4    0    0  0.69761226154E+02 -0.94760366284E+01  0.34335206652E+02  0.78328349661E+02  0.00000000000E+00 0. -1.
         -5    1    5    5    0  502  0.18561232872E+02  0.52656637361E+02  0.44146629746E+03  0.44500766579E+03  0.47000000000E+01 0.  1.
         11    1    6    6    0    0 -0.72709996102E+02  0.23917243289E+02  0.16212226236E+03  0.17928303325E+03  0.00000000000E+00 0. -1.
        -12    1    6    6    0    0 -0.14199412114E+02 -0.18252107191E+02  0.20509627173E+03  0.20639584153E+03  0.00000000000E+00 0.  1.
</event>
<event>
12    1  0.8494789E-002  0.1757015E+03  0.7818608E-02  0.1172364E+00
         21   -1    0    0  501  502  0.00000000000E+00  0.00000000000E+00  0.29492374789E+03  0.29492374789E+03  0.00000000000E+00 0.  1.
         21   -1    0    0  502  503 -0.00000000000E+00 -0.00000000000E+00 -0.10710200154E+03  0.10710200154E+03  0.00000000000E+00 0.  1.
         -6    2    1    2    0  503  0.98852059124E+01 -0.24320870406E+02  0.12842000404E+03  0.21655454058E+03  0.17238024706E+03 0.  0.
        -24    2    3    3    0    0 -0.49764569612E+02 -0.40970058612E+02  0.11342563476E+03  0.15266234780E+03  0.79280260617E+02 0.  0.
          6    2    1    2  501    0 -0.98852059124E+01  0.24320870406E+02  0.59401742314E+02  0.18547120886E+03  0.17372904274E+03 0.  0.
         24    2    5    5    0    0  0.44786821540E+02  0.11080374174E+02 -0.14511698626E+02  0.92467832155E+02  0.78810383269E+02 0.  0.
          5    1    5    5  501    0 -0.54672027453E+02  0.13240496232E+02  0.73913440940E+02  0.93003376701E+02  0.47000000000E+01 0. -1.
        -13    1    6    6    0    0 -0.76810347669E+01  0.70674306525E+01  0.24718935416E+02  0.26832305887E+02  0.00000000000E+00 0.  1.
         14    1    6    6    0    0  0.52467856307E+02  0.40129435211E+01 -0.39230634042E+02  0.65635526268E+02  0.00000000000E+00 0. -1.
         -5    1    3    3    0  503  0.59649775524E+02  0.16649188206E+02  0.14994369277E+02  0.63892192779E+02  0.47000000000E+01 0.  1.
         11    1    4    4    0    0  0.81373912449E+00  0.19091440229E+02  0.68821891200E+01  0.20310336985E+02  0.00000000000E+00 0. -1.
        -12    1    4    4    0    0 -0.50578308737E+02 -0.60061498841E+02  0.10654344564E+03  0.13235201081E+03  0.00000000000E+00 0.  1.
</event>
<event>
12    1  0.8494789E-002  0.1926804E+03  0.7818608E-02  0.1156083E+00
         21   -1    0    0  501  502  0.00000000000E+00  0.00000000000E+00  0.32993259741E+02  0.32993259741E+02  0.00000000000E+00 0.  1.
         21   -1    0    0  502  503 -0.00000000000E+00 -0.00000000000E+00 -0.11249960425E+04  0.11249960425E+04  0.00000000000E+00 0. -1.
         -6    2    1    2    0  503 -0.52832690277E+02 -0.68096695006E+02 -0.55357279429E+03  0.58614722071E+03  0.17232896661E+03 0.  0.
        -24    2    3    3    0    0 -0.47356288507E+02 -0.52785430659E+01 -0.48190477349E+03  0.49057260904E+03  0.78477977505E+02 0.  0.
          6    2    1    2  501    0  0.52832690277E+02  0.68096695006E+02 -0.53842998851E+03  0.57184208158E+03  0.17224418916E+03 0.  0.
         24    2    5    5    0    0 -0.22218007207E+02  0.38743368350E+02 -0.16507435886E+03  0.18985943646E+03  0.82476501037E+02 0.  0.
          5    1    5    5  501    0  0.75050697484E+02  0.29353326656E+02 -0.37335562965E+03  0.38198264512E+03  0.47000000000E+01 0. -1.
        -11    1    6    6    0    0 -0.26076418828E+02 -0.21074972504E+02 -0.66912271749E+02  0.74842409071E+02  0.00000000000E+00 0.  1.
         12    1    6    6    0    0  0.38584116207E+01  0.59818340854E+02 -0.98162087113E+02  0.11501702739E+03  0.00000000000E+00 0. -1.
         -5    1    3    3    0  503 -0.54764017702E+01 -0.62818151940E+02 -0.71668020799E+02  0.95574611664E+02  0.47000000000E+01 0.  1.
         11    1    4    4    0    0 -0.26606285457E+02 -0.41940859834E+02 -0.25620088277E+03  0.26097092267E+03  0.00000000000E+00 0. -1.
        -12    1    4    4    0    0 -0.20750003050E+02  0.36662316768E+02 -0.22570389072E+03  0.22960168637E+03  0.00000000000E+00 0.  1.
</event>
<event>
12    1  0.8494789E-002  0.2117146E+03  0.7818608E-02  0.1141494E+00
         21   -1    0    0  503  502  0.00000000000E+00  0.00000000000E+00  0.47716834872E+03  0.47716834872E+03  0.00000000000E+00 0. -1.
         21   -1    0    0  501  503 -0.00000000000E+00 -0.00000000000E+00 -0.24983042186E+03  0.24983042186E+03  0.00000000000E+00 0. -1.
          6    2    1    2  501    0 -0.64494857829E+02  0.10399809257E+03 -0.17541498730E+03  0.27494269019E+03  0.17276537609E+03 0.  0.
         24    2    3    3    0    0  0.39510525836E+01  0.11007952165E+03 -0.81522866895E+02  0.15849679414E+03  0.79637579212E+02 0.  0.
         -6    2    1    2    0  502  0.64494857829E+02 -0.10399809257E+03  0.40275291417E+03  0.45205608039E+03  0.16483203573E+03 0.  0.
        -24    2    5    5    0    0  0.86310353331E+02 -0.38865662354E+02  0.32651097913E+03  0.34932793445E+03  0.80377667878E+02 0.  0.
          5    1    3    3  501    0 -0.68445910412E+02 -0.60814290835E+01 -0.93892120407E+02  0.11644589605E+03  0.47000000000E+01 0. -1.
        -11    1    4    4    0    0  0.62040138625E+00 -0.30984811554E+01  0.11519876214E+02  0.11945418843E+02  0.00000000000E+00 0.  1.
         12    1    4    4    0    0  0.33306511973E+01  0.11317800281E+03 -0.93042743109E+02  0.14655137530E+03  0.00000000000E+00 0. -1.
         -5    1    5    5    0  502 -0.21815495503E+02 -0.65132430214E+02  0.76241935043E+02  0.10272814594E+03  0.47000000000E+01 0.  1.
         11    1    6    6    0    0  0.29441182349E+02 -0.97743492853E+01  0.21607082745E+02  0.37804591610E+02  0.00000000000E+00 0. -1.
        -12    1    6    6    0    0  0.56869170982E+02 -0.29091313069E+02  0.30490389638E+03  0.31152334284E+03  0.00000000000E+00 0.  1.
</event>
<event>
12    1  0.8494789E-002  0.2061044E+03  0.7818608E-02  0.1144713E+00
         21   -1    0    0  501  502  0.00000000000E+00  0.00000000000E+00  0.18372319347E+04  0.18372319347E+04  0.00000000000E+00 0. -1.
         21   -1    0    0  502  503 -0.00000000000E+00 -0.00000000000E+00 -0.39147087964E+02  0.39147087964E+02  0.00000000000E+00 0.  1.
         -6    2    1    2    0  503 -0.11394169604E+03 -0.25452072016E+01  0.29835647106E+03  0.36255464704E+03  0.17158117640E+03 0.  0.
        -24    2    3    3    0    0 -0.84830340430E+01  0.37566944894E+01  0.54772018192E+02  0.97004804203E+02  0.79522848550E+02 0.  0.
          6    2    1    2  501    0  0.11394169604E+03  0.25452072016E+01  0.14997283757E+04  0.15138243756E+04  0.17172609364E+03 0.  0.
         24    2    5    5    0    0  0.56239994900E+02 -0.64710042901E+02  0.96730726746E+03  0.97405861026E+03  0.75871601162E+02 0.  0.
          5    1    5    5  501    0  0.57701701136E+02  0.67255250103E+02  0.53242110822E+03  0.53976576536E+03  0.47000000000E+01 0. -1.
        -11    1    6    6    0    0  0.14477124557E+02 -0.52120803715E+02  0.26870126846E+03  0.27409220527E+03  0.00000000000E+00 0.  1.
         12    1    6    6    0    0  0.41762870343E+02 -0.12589239186E+02  0.69860599900E+03  0.69996640499E+03  0.00000000000E+00 0. -1.
         -5    1    3    3    0  503 -0.10545866199E+03 -0.63019016909E+01  0.24358445286E+03  0.26554984284E+03  0.47000000000E+01 0.  1.
         13    1    4    4    0    0  0.21622729855E+02 -0.26929255710E+02  0.36634583669E+02  0.50346995740E+02  0.00000000000E+00 0. -1.
        -14    1    4    4    0    0 -0.30105763898E+02  0.30685950199E+02  0.18137434523E+02  0.46657808463E+02  0.00000000000E+00 0.  1.
</event>
<event>
12    1  0.8494789E-002  0.2462960E+03  0.7818608E-02  0.1115733E+00
         21   -1    0    0  503  502  0.00000000000E+00  0.00000000000E+00  0.32102984359E+03  0.32102984359E+03  0.00000000000E+00 0.  1.
         21   -1    0    0  501  503 -0.00000000000E+00 -0.00000000000E+00 -0.18897617364E+03  0.18897617364E+03  0.00000000000E+00 0. -1.
          6    2    1    2  501    0 -0.27081360526E+02 -0.17400760165E+03  0.76567223217E+02  0.25753723646E+03  0.17161247907E+03 0.  0.
         24    2    3    3    0    0 -0.79442635189E+02 -0.10892605858E+03  0.24656410466E+02  0.15907844908E+03  0.80758874803E+02 0.  0.
         -6    2    1    2    0  502  0.27081360526E+02  0.17400760165E+03  0.55486446728E+02  0.25246878077E+03  0.17219086496E+03 0.  0.
        -24    2    5    5    0    0  0.92410358358E+01  0.35006258067E+02  0.70551988182E+02  0.11144143860E+03  0.78299274279E+02 0.  0.
          5    1    3    3  501    0  0.52361274663E+02 -0.65081543066E+02  0.51910812751E+02  0.98458787382E+02  0.47000000000E+01 0. -1.
        -11    1    4    4    0    0 -0.48669117706E+02 -0.62258655292E+02  0.54225237280E+02  0.95839446655E+02  0.00000000000E+00 0.  1.
         12    1    4    4    0    0 -0.30773517483E+02 -0.46667403290E+02 -0.29568826814E+02  0.63239002422E+02  0.00000000000E+00 0. -1.
         -5    1    5    5    0  502  0.17840324690E+02  0.13900134358E+03 -0.15065541454E+02  0.14102734218E+03  0.47000000000E+01 0.  1.
         13    1    6    6    0    0  0.20798692223E+02  0.29940950106E+02 -0.32199718742E+01  0.36598009649E+02  0.00000000000E+00 0. -1.
        -14    1    6    6    0    0 -0.11557656387E+02  0.50653079618E+01  0.73771960056E+02  0.74843428946E+02  0.00000000000E+00 0.  1.
</event>
<event>
12    1  0.8494789E-002  0.2151921E+03  0.7818608E-02  0.1137551E+00
         21   -1    0    0  501  502  0.00000000000E+00  0.00000000000E+00  0.34342027332E+03  0.34342027332E+03  0.00000000000E+00 0. -1.
         21   -1    0    0  502  503 -0.00000000000E+00 -0.00000000000E+00 -0.13604579733E+03  0.13604579733E+03  0.00000000000E+00 0. -1.
         -6    2    1    2    0  503  0.31961000034E+02  0.12511311744E+03  0.80227335650E+02  0.22966073037E+03  0.17214188337E+03 0.  0.
        -24    2    3    3    0    0  0.38022431069E+02  0.12670254297E+01  0.18278594273E+02  0.90972836125E+02  0.80589324889E+02 0.  0.
          6    2    1    2  501    0 -0.31961000034E+02 -0.12511311744E+03  0.12714714034E+03  0.24980534028E+03  0.17193462436E+03 0.  0.
         24    2    5    5    0    0 -0.73327003342E+01 -0.17449225128E+02 -0.91334892542E+01  0.74327230939E+02  0.71294268223E+02 0.  0.
          5    1    5    5  501    0 -0.24628299700E+02 -0.10766389231E+03  0.13628062959E+03  0.17547810934E+03  0.47000000000E+01 0. -1.
        -13    1    6    6    0    0 -0.13353920186E+02  0.25062295991E+02  0.55786669736E+01  0.28940756553E+02  0.00000000000E+00 0.  1.
         14    1    6    6    0    0  0.60212198514E+01 -0.42511521119E+02 -0.14712156228E+02  0.45386474386E+02  0.00000000000E+00 0. -1.
         -5    1    3    3    0  503 -0.60614310357E+01  0.12384609201E+03  0.61948741377E+02  0.13868789425E+03  0.47000000000E+01 0.  1.
         11    1    4    4    0    0 -0.69040718959E+01  0.15917751447E+02 -0.22598594156E+02  0.28491006962E+02  0.00000000000E+00 0. -1.
        -12    1    4    4    0    0  0.44926502965E+02 -0.14650726018E+02  0.40877188430E+02  0.62481829162E+02  0.00000000000E+00 0.  1.
</event>
<event>
12    1  0.8494789E-002  0.1859618E+03  0.7818608E-02  0.1164834E+00
         21   -1    0    0  501  502  0.00000000000E+00  0.00000000000E+00  0.20035435920E+03  0.20035435920E+03  0.00000000000E+00 0. -1.
         21   -1    0    0  502  503 -0.00000000000E+00 -0.00000000000E+00 -0.27744162723E+03  0.27744162723E+03  0.00000000000E+00 0. -1.
         -6    2    1    2    0  503  0.16812771168E+02 -0.41717906528E+02 -0.19304445201E+03  0.26804469188E+03  0.18044041508E+03 0.  0.
        -24    2    3    3    0    0 -0.13104260689E+02 -0.82324957968E+02 -0.18269255938E+03  0.21634156719E+03  0.80485912368E+02 0.  0.
          6    2    1    2  501    0 -0.16812771168E+02  0.41717906528E+02  0.11595718397E+03  0.20975129455E+03  0.16889785093E+03 0.  0.
         24    2    5    5    0    0 -0.14773811861E+02 -0.20109629531E+02  0.59679808631E+01  0.83471777718E+02  0.79430838867E+02 0.  0.
          5    1    5    5  501    0 -0.20389593065E+01  0.61827536059E+02  0.10998920311E+03  0.12627951683E+03  0.47000000000E+01 0. -1.
        -13    1    6    6    0    0  0.27682115826E+02 -0.67185280231E+01 -0.17210733275E+02  0.33281338544E+02  0.00000000000E+00 0.  1.
         14    1    6    6    0    0 -0.42455927688E+02 -0.13391101508E+02  0.23178714138E+02  0.50190439174E+02  0.00000000000E+00 0. -1.
         -5    1    3    3    0  503  0.29917031857E+02  0.40607051440E+02 -0.10351892631E+02  0.51703124691E+02  0.47000000000E+01 0.  1.
         13    1    4    4    0    0  0.33053519804E+01 -0.45203503101E+02 -0.16664305549E+03  0.17269681522E+03  0.00000000000E+00 0. -1.
        -14    1    4    4    0    0 -0.16409612670E+02 -0.37121454866E+02 -0.16049503886E+02  0.43644751968E+02  0.00000000000E+00 0.  1.
</event>
<event>
12    1  0.8494789E-002  0.1839234E+03  0.7818608E-02  0.1164244E+00
         21   -1    0    0  501  502  0.00000000000E+00  0.00000000000E+00  0.29200786766E+03  0.29200786766E+03  0.00000000000E+00 0. -1.
         21   -1    0    0  502  503 -0.00000000000E+00 -0.00000000000E+00 -0.13339227735E+03  0.13339227735E+03  0.00000000000E+00 0. -1.
         -6    2    1    2    0  503 -0.24426917489E+02  0.61078390001E+02  0.94035632718E+00  0.18314142577E+03  0.17091709552E+03 0.  0.
        -24    2    3    3    0    0  0.32517915230E+01  0.10401465621E+03 -0.22545459289E+01  0.13174170506E+03  0.80753767825E+02 0.  0.
          6    2    1    2  501    0  0.24426917489E+02 -0.61078390001E+02  0.15767523398E+03  0.24225871924E+03  0.17175728110E+03 0.  0.
         24    2    5    5    0    0  0.10959392175E+00 -0.73516822056E+02  0.17341259582E+03  0.21038708020E+03  0.93733985237E+02 0.  0.
          5    1    5    5  501    0  0.24317323568E+02  0.12438432056E+02 -0.15737361838E+02  0.31871639040E+02  0.47000000000E+01 0. -1.
        -11    1    6    6    0    0  0.30744034651E+02 -0.97540945449E+01  0.12464167624E+02  0.34578801332E+02  0.00000000000E+00 0.  1.
         12    1    6    6    0    0 -0.30634440729E+02 -0.63762727511E+02  0.16094842820E+03  0.17580827887E+03  0.00000000000E+00 0. -1.
         -5    1    3    3    0  503 -0.27678709012E+02 -0.42936266214E+02  0.31949022560E+01  0.51399720713E+02  0.47000000000E+01 0.  1.
         13    1    4    4    0    0 -0.30307664555E+02  0.78229070455E+02 -0.19350243808E+02  0.86097467619E+02  0.00000000000E+00 0. -1.
        -14    1    4    4    0    0  0.33559456078E+02  0.25785585760E+02  0.17095697879E+02  0.45644237437E+02  0.00000000000E+00 0.  1.
</event>
<event>
12    1  0.8494789E-002  0.2301437E+03  0.7818608E-02  0.1126990E+00
         21   -1    0    0  501  502  0.00000000000E+00  0.00000000000E+00  0.25490028389E+03  0.25490028389E+03  0.00000000000E+00 0. -1.
         21   -1    0    0  502  503 -0.00000000000E+00 -0.00000000000E+00 -0.23720896624E+03  0.23720896624E+03  0.00000000000E+00 0.  1.
         -6    2    1    2    0  503  0.14503077603E+03  0.48690474721E+02 -0.81082413541E+02  0.24400913996E+03  0.17193433128E+03 0.  0.
        -24    2    3    3    0    0  0.13981229027E+02 -0.84797443218E+01 -0.73013243057E+01  0.83049030477E+02  0.81095322293E+02 0.  0.
          6    2    1    2  501    0 -0.14503077603E+03 -0.48690474721E+02  0.98773731190E+02  0.24810011017E+03  0.16850141355E+03 0.  0.
         24    2    5    5    0    0 -0.16239356753E+03 -0.16493105706E+02  0.51094005146E+02  0.18782089836E+03  0.77604118381E+02 0.  0.
          5    1    5    5  501    0  0.17362791502E+02 -0.32197369015E+02  0.47679726043E+02  0.60279211805E+02  0.47000000000E+01 0. -1.
        -13    1    6    6    0    0 -0.44672145687E+02 -0.29870684126E+02 -0.97749601332E+01  0.54620584179E+02  0.00000000000E+00 0.  1.
         14    1    6    6    0    0 -0.11772142184E+03  0.13377578419E+02  0.60868965280E+02  0.13320031419E+03  0.00000000000E+00 0. -1.
         -5    1    3    3    0  503  0.13104954700E+03  0.57170219043E+02 -0.73781089236E+02  0.16096010948E+03  0.47000000000E+01 0.  1.
         11    1    4    4    0    0  0.27140175389E+02  0.30041907680E+02 -0.11601552587E+02  0.42115334021E+02  0.00000000000E+00 0. -1.
        -12    1    4    4    0    0 -0.13158946363E+02 -0.38521652002E+02  0.43002282812E+01  0.40933696457E+02  0.00000000000E+00 0.  1.
</event>
<event>
12    1  0.8494789E-002  0.3404339E+03  0.7818608E-02  0.1066625E+00
         21   -1    0    0  503  502  0.00000000000E+00  0.00000000000E+00  0.52359906732E+03  0.52359906732E+03  0.00000000000E+00 0. -1.
         21   -1    0    0  501  503 -0.00000000000E+00 -0.00000000000E+00 -0.23710345425E+03  0.23710345425E+03  0.00000000000E+00 0.  1.
          6    2    1    2  501    0 -0.26442392553E+03  0.12813048073E+03  0.44902508814E+02  0.34325498473E+03  0.17166920737E+03 0.  0.
         24    2    3    3    0    0 -0.15648339319E+03  0.79451685590E+01  0.55617683793E+00  0.17567111038E+03  0.79434574593E+02 0.  0.
         -6    2    1    2    0  502  0.26442392553E+03 -0.12813048073E+03  0.24159310425E+03  0.41744753684E+03  0.17192377818E+03 0.  0.
        -24    2    5    5    0    0  0.26912822299E+03 -0.77640972571E+02  0.21333251894E+03  0.35920604363E+03  0.71134359565E+02 0.  0.
          5    1    3    3  501    0 -0.10794053234E+03  0.12018531217E+03  0.44346331977E+02  0.16758387435E+03  0.47000000000E+01 0. -1.
        -13    1    4    4    0    0 -0.12377411855E+03  0.34411729123E+02  0.18750812762E+02  0.12982985983E+03  0.00000000000E+00 0.  1.
         14    1    4    4    0    0 -0.32709274647E+02 -0.26466560564E+02 -0.18194635924E+02  0.45841250555E+02  0.00000000000E+00 0. -1.
         -5    1    5    5    0  502 -0.47042974633E+01 -0.50489508158E+02  0.28260585311E+02  0.58241493206E+02  0.47000000000E+01 0.  1.
         13    1    6    6    0    0  0.15899301415E+03 -0.63464560787E+02  0.16612007065E+03  0.23854225390E+03  0.00000000000E+00 0. -1.
        -14    1    6    6    0    0  0.11013520885E+03 -0.14176411784E+02  0.47212448291E+02  0.12066378973E+03  0.00000000000E+00 0.  1.
</event>
<event>
12    1  0.8494789E-002  0.2286592E+03  0.7818608E-02  0.1127692E+00
         21   -1    0    0  503  502  0.00000000000E+00  0.00000000000E+00  0.50412304069E+03  0.50412304069E+03  0.00000000000E+00 0.  1.
         21   -1    0    0  501  503 -0.00000000000E+00 -0.00000000000E+00 -0.12650424860E+03  0.12650424860E+03  0.00000000000E+00 0. -1.
          6    2    1    2  501    0  0.11692288398E+03 -0.94933161177E+02  0.53990945949E+02  0.23436978398E+03  0.17126268569E+03 0.  0.
         24    2    3    3    0    0  0.97694090447E+02 -0.80284360452E+02 -0.24890305924E+02  0.15173398205E+03  0.80087203340E+02 0.  0.
         -6    2    1    2    0  502 -0.11692288398E+03  0.94933161177E+02  0.32362784614E+03  0.39625750530E+03  0.17205162545E+03 0.  0.
        -24    2    5    5    0    0 -0.54637721733E+02  0.87903065503E+01  0.79844098144E+02  0.13026382375E+03  0.86781528237E+02 0.  0.
          5    1    3    3  501    0  0.19228793535E+02 -0.14648800725E+02  0.78881251873E+02  0.82635801930E+02  0.47000000000E+01 0. -1.
        -13    1    4    4    0    0  0.17331778056E+02 -0.59035596874E+02  0.85837065951E+01  0.62123041198E+02  0.00000000000E+00 0.  1.
         14    1    4    4    0    0  0.80362312391E+02 -0.21248763578E+02 -0.33474012519E+02  0.89610940853E+02  0.00000000000E+00 0. -1.
         -5    1    5    5    0  502 -0.62285162249E+02  0.86142854627E+02  0.24378374800E+03  0.26599368156E+03  0.47000000000E+01 0.  1.
         13    1    6    6    0    0 -0.26720921500E+01  0.23615760648E+02 -0.97060484930E+01  0.25672000405E+02  0.00000000000E+00 0. -1.
        -14    1    6    6    0    0 -0.51965629584E+02 -0.14825454098E+02  0.89550146637E+02  0.10459182334E+03  0.00000000000E+00 0.  1.
</event>
<event>
12    1  0.8494789E-002  0.2529138E+03  0.7818608E-02  0.1111569E+00
         21   -1    0    0  503  502  0.00000000000E+00  0.00000000000E+00  0.11226656157E+03  0.11226656157E+03  0.00000000000E+00 0.  1.
         21   -1    0    0  501  503 -0.00000000000E+00 -0.00000000000E+00 -0.58894466415E+03  0.58894466415E+03  0.00000000000E+00 0. -1.
          6    2    1    2  501    0  0.47536660655E+02  0.17885414878E+03 -0.17318010527E+03  0.30652365368E+03  0.17238579049E+03 0.  0.
         24    2    3    3    0    0  0.16633764030E+02  0.19453700945E+02 -0.29761195068E+02  0.89833631777E+02  0.80803614276E+02 0.  0.
         -6    2    1    2    0  502 -0.47536660655E+02 -0.17885414878E+03 -0.30349799730E+03  0.39468757204E+03  0.17151881680E+03 0.  0.
        -24    2    5    5    0    0 -0.63350607500E+02 -0.90164994134E+02 -0.26222733570E+03  0.29548472644E+03  0.80031383433E+02 0.  0.
          5    1    3    3  501    0  0.30902896624E+02  0.15940044783E+03 -0.14341891020E+03  0.21669002190E+03  0.47000000000E+01 0. -1.
        -11    1    4    4    0    0 -0.14088262051E+02 -0.22379220428E+02  0.55993275203E+01  0.27030743668E+02  0.00000000000E+00 0.  1.
         12    1    4    4    0    0  0.30722026081E+02  0.41832921373E+02 -0.35360522588E+02  0.62802888109E+02  0.00000000000E+00 0. -1.
         -5    1    5    5    0  502  0.15813946845E+02 -0.88689154644E+02 -0.41270661608E+02  0.99202845604E+02  0.47000000000E+01 0.  1.
         11    1    6    6    0    0 -0.64869846967E+02 -0.96614367147E+02 -0.26409752066E+03  0.28859995392E+03  0.00000000000E+00 0. -1.
        -12    1    6    6    0    0  0.15192394673E+01  0.64493730129E+01  0.18701849632E+01  0.68847725173E+01  0.00000000000E+00 0.  1.
</event>
<event>
12    1  0.8494789E-002  0.1947469E+03  0.7818608E-02  0.1154266E+00
         21   -1    0    0  501  502  0.00000000000E+00  0.00000000000E+00  0.57016666229E+03  0.57016666229E+03  0.00000000000E+00 0.  1.
         21   -1    0    0  502  503 -0.00000000000E+00 -0.00000000000E+00 -0.74980803565E+02  0.74980803565E+02  0.00000000000E+00 0. -1.
         -6    2    1    2    0  503 -0.91369779968E+02  0.44171481735E+00  0.13899430762E+03  0.23919329657E+03  0.17188770686E+03 0.  0.
        -24    2    3    3    0    0 -0.88798877314E+02  0.34479773440E+02  0.33429279693E+02  0.12814707152E+03  0.78930727919E+02 0.  0.
          6    2    1    2  501    0  0.91369779968E+02 -0.44171481735E+00  0.35619155110E+03  0.40595416928E+03  0.17198178590E+03 0.  0.
         24    2    5    5    0    0  0.73365728431E+02 -0.62289683438E+02  0.18361540606E+03  0.22168823936E+03  0.78539947526E+02 0.  0.
          5    1    5    5  501    0  0.18004051537E+02  0.61847968621E+02  0.17257614504E+03  0.18426592993E+03  0.47000000000E+01 0. -1.
        -13    1    6    6    0    0  0.10431979521E+02  0.18571993531E+02  0.39213590528E+02  0.44625674477E+02  0.00000000000E+00 0.  1.
         14    1    6    6    0    0  0.62933748910E+02 -0.80861676970E+02  0.14440181553E+03  0.17706256488E+03  0.00000000000E+00 0. -1.
         -5    1    3    3    0  503 -0.25709026538E+01 -0.34038058623E+02  0.10556502793E+03  0.11104622505E+03  0.47000000000E+01 0.  1.
         13    1    4    4    0    0 -0.60939112159E+02  0.31217143486E+00  0.52191218467E+02  0.80234631718E+02  0.00000000000E+00 0. -1.
        -14    1    4    4    0    0 -0.27859765155E+02  0.34167602005E+02 -0.18761938775E+02  0.47912439803E+02  0.00000000000E+00 0.  1.
</event>
<event>
12    1  0.8494789E-002  0.2959681E+03  0.7818608E-02  0.1087683E+00
         21   -1    0    0  503  502  0.00000000000E+00  0.00000000000E+00  0.41177637817E+03  0.41177637817E+03  0.00000000000E+00 0.  1.
         21   -1    0    0  501  503 -0.00000000000E+00 -0.00000000000E+00 -0.43387417138E+03  0.43387417138E+03  0.00000000000E+00 0. -1.
          6    2    1    2  501    0  0.17107389170E+03 -0.16463534006E+03 -0.31450619376E+03  0.43186946569E+03  0.17670885056E+03 0.  0.
         24    2    3    3    0    0  0.46576632629E+02 -0.30695839534E+02 -0.48488071623E+02  0.10902726179E+03  0.80151315970E+02 0.  0.
         -6    2    1    2    0  502 -0.17107389170E+03  0.16463534006E+03  0.29240840056E+03  0.41378108385E+03  0.17129226784E+03 0.  0.
        -24    2    5    5    0    0 -0.16039737318E+03  0.81379485593E+02  0.25435838176E+03  0.32150205438E+03  0.79469784195E+02 0.  0.
          5    1    3    3  501    0  0.12449725907E+03 -0.13393950052E+03 -0.26601812214E+03  0.32284220390E+03  0.47000000000E+01 0. -1.
        -11    1    4    4    0    0 -0.15849338007E+02 -0.14251415070E+02  0.84706662649E+01  0.22935922343E+02  0.00000000000E+00 0.  1.
         12    1    4    4    0    0  0.62425970636E+02 -0.16444424465E+02 -0.56958737888E+02  0.86091339446E+02  0.00000000000E+00 0. -1.
         -5    1    5    5    0  502 -0.10676518518E+02  0.83255854465E+02  0.38050018798E+02  0.92279029475E+02  0.47000000000E+01 0.  1.
         11    1    6    6    0    0 -0.11223814111E+02 -0.13167262022E+02  0.99444477332E+01  0.19956022476E+02  0.00000000000E+00 0. -1.
        -12    1    6    6    0    0 -0.14917355907E+03  0.94546747615E+02  0.24441393402E+03  0.30154603190E+03  0.00000000000E+00 0.  1.
</event>
<event>
12    1  0.8494789E-002  0.1744045E+03  0.7818608E-02  0.1173436E+00
         21   -1    0    0  503  502  0.00000000000E+00  0.00000000000E+00  0.10251002594E+03  0.10251002594E+03  0.00000000000E+00 0.  1.
         21   -1    0    0  501  503 -0.00000000000E+00 -0.00000000000E+00 -0.33228150784E+03  0.33228150784E+03  0.00000000000E+00 0.  1.
          6    2    1    2  501    0 -0.26373398346E+02  0.16256437772E+02 -0.18683257808E+03  0.25558431787E+03  0.17163071811E+03 0.  0.
         24    2    3    3    0    0  0.30950851217E+02 -0.28631332302E+02 -0.14322725389E+03  0.17058728388E+03  0.82512222024E+02 0.  0.
         -6    2    1    2    0  502  0.26373398346E+02 -0.16256437772E+02 -0.42938903816E+02  0.17920721591E+03  0.17120645100E+03 0.  0.
        -24    2    5    5    0    0  0.59685142986E+02  0.23122642819E+02 -0.64442010767E+02  0.12312818304E+03  0.83131244441E+02 0.  0.
          5    1    3    3  501    0 -0.57324249563E+02  0.44887770074E+02 -0.43605324192E+02  0.84997033996E+02  0.47000000000E+01 0. -1.
        -11    1    4    4    0    0  0.40295653766E+01 -0.27571966264E+02 -0.14080588520E+03  0.14353657383E+03  0.00000000000E+00 0.  1.
         12    1    4    4    0    0  0.26921285841E+02 -0.10593660376E+01 -0.24213686931E+01  0.27050710047E+02  0.00000000000E+00 0. -1.
         -5    1    5    5    0  502 -0.33311744640E+02 -0.39379080591E+02  0.21503106951E+02  0.56079032870E+02  0.47000000000E+01 0.  1.
         13    1    6    6    0    0  0.18847135560E+02  0.18010720554E+02 -0.76026804467E+02  0.80372106922E+02  0.00000000000E+00 0. -1.
        -14    1    6    6    0    0  0.40838007425E+02  0.51119222648E+01  0.11584793699E+02  0.42756076115E+02  0.00000000000E+00 0.  1.
</event>
<event>
12    1  0.8494789E-002  0.1827685E+03  0.7818608E-02  0.1165487E+00
         21   -1    0    0  501  502  0.00000000000E+00  0.00000000000E+00  0.84671391119E+02  0.84671391119E+02  0.00000000000E+00 0.  1.
         21   -1    0    0  502  503 -0.00000000000E+00 -0.00000000000E+00 -0.52984729215E+03  0.52984729215E+03  0.00000000000E+00 0.  1.
         -6    2    1    2    0  503 -0.34724737716E+02 -0.45445695427E+02 -0.38024657220E+03  0.42189070555E+03  0.17358915035E+03 0.  0.
        -24    2    3    3    0    0 -0.53816814999E+02  0.30903792434E+02 -0.25272917580E+03  0.27196896564E+03  0.79017643670E+02 0.  0.
          6    2    1    2  501    0  0.34724737716E+02  0.45445695427E+02 -0.64929328833E+02  0.19262797772E+03  0.17210055611E+03 0.  0.
         24    2    5    5    0    0  0.23149293513E+02  0.60841002809E+02  0.25581642982E+02  0.99970908821E+02  0.71429998878E+02 0.  0.
          5    1    5    5  501    0  0.11575444202E+02 -0.15395307383E+02 -0.90510971814E+02  0.92657068897E+02  0.47000000000E+01 0. -1.
        -13    1    6    6    0    0  0.38968935493E+02  0.24002751221E+02 -0.94466851698E+01  0.46732749334E+02  0.00000000000E+00 0.  1.
         14    1    6    6    0    0 -0.15819641979E+02  0.36838251589E+02  0.35028328152E+02  0.53238159487E+02  0.00000000000E+00 0. -1.
         -5    1    3    3    0  503  0.19092077283E+02 -0.76349487860E+02 -0.12751739640E+03  0.14992173991E+03  0.47000000000E+01 0.  1.
         13    1    4    4    0    0 -0.11994552957E+02  0.31466324768E+02 -0.29234945803E+02  0.44594629174E+02  0.00000000000E+00 0. -1.
        -14    1    4    4    0    0 -0.41822262042E+02 -0.56253233397E+00 -0.22349422999E+03  0.22737433647E+03  0.00000000000E+00 0.  1.
</event>
<event>
12    1  0.8494789E-002  0.2091085E+03  0.7818608E-02  0.1142305E+00
         21   -1    0    0  501  502  0.00000000000E+00  0.00000000000E+00  0.53949475553E+02  0.53949475553E+02  0.00000000000E+00 0. -1.
         21   -1    0    0  502  503 -0.00000000000E+00 -0.00000000000E+00 -0.94203529031E+03  0.94203529031E+03  0.00000000000E+00 0.  1.
         -6    2    1    2    0  503 -0.10722808493E+03  0.50076580247E+02 -0.63041226461E+03  0.66413840966E+03  0.17220533593E+03 0.  0.
        -24    2    3    3    0    0 -0.11249713062E+03 -0.90507665169E+01 -0.52628063335E+03  0.54418303209E+03  0.80164497163E+02 0.  0.
          6    2    1    2  501    0  0.10722808493E+03 -0.50076580247E+02 -0.25767355015E+03  0.33184635621E+03  0.17239727259E+03 0.  0.
         24    2    5    5    0    0  0.32485995423E+02 -0.83825850575E+02 -0.11214504320E+03  0.16473552614E+03  0.80493290000E+02 0.  0.
          5    1    5    5  501    0  0.74742089504E+02  0.33749270328E+02 -0.14552850695E+03  0.16711083007E+03  0.47000000000E+01 0. -1.
        -11    1    6    6    0    0  0.34080978454E+01 -0.56585197113E+02 -0.11127404306E+03  0.12488159321E+03  0.00000000000E+00 0.  1.
         12    1    6    6    0    0  0.29077897577E+02 -0.27240653462E+02 -0.87100013420E+00  0.39853932927E+02  0.00000000000E+00 0. -1.
         -5    1    3    3    0  503  0.52690456922E+01  0.59127346764E+02 -0.10413163126E+03  0.11995537757E+03  0.47000000000E+01 0.  1.
         11    1    4    4    0    0 -0.49509469612E+02 -0.17919191632E+02 -0.98410286526E+02  0.11161034676E+03  0.00000000000E+00 0. -1.
        -12    1    4    4    0    0 -0.62987661007E+02  0.88684251147E+01 -0.42787034682E+03  0.43257268533E+03  0.00000000000E+00 0.  1.
</event>
<event>
12    1  0.8494789E-002  0.2181667E+03  0.7818608E-02  0.1135623E+00
         21   -1    0    0  501  502  0.00000000000E+00  0.00000000000E+00  0.36729861540E+03  0.36729861540E+03  0.00000000000E+00 0. -1.
         21   -1    0    0  502  503 -0.00000000000E+00 -0.00000000000E+00 -0.12957624537E+03  0.12957624537E+03  0.00000000000E+00 0.  1.
         -6    2    1    2    0  503 -0.11809741702E+03  0.56996329248E+02  0.96131141357E+02  0.23840702000E+03  0.17435919647E+03 0.  0.
        -24    2    3    3    0    0 -0.47313894500E+02  0.83814973521E+02  0.10324735648E+03  0.16223433947E+03  0.79977558638E+02 0.  0.
          6    2    1    2  501    0  0.11809741702E+03 -0.56996329248E+02  0.14159122867E+03  0.25846784078E+03  0.17193593930E+03 0.  0.
         24    2    5    5    0    0  0.30466532073E+02 -0.39443603181E+02  0.40894053537E+01  0.94406536366E+02  0.80074112321E+02 0.  0.
          5    1    5    5  501    0  0.87630884945E+02 -0.17552726067E+02  0.13750182332E+03  0.16406130441E+03  0.47000000000E+01 0. -1.
        -11    1    6    6    0    0  0.80115216042E+01 -0.60091595487E+02  0.14209795392E+02  0.62266384283E+02  0.00000000000E+00 0.  1.
         12    1    6    6    0    0  0.22455010469E+02  0.20647992305E+02 -0.10120390038E+02  0.32140152083E+02  0.00000000000E+00 0. -1.
         -5    1    3    3    0  503 -0.70783522519E+02 -0.26818644273E+02 -0.71162151208E+01  0.76172680526E+02  0.47000000000E+01 0.  1.
         11    1    4    4    0    0 -0.15801083351E+02  0.54315474141E+02  0.10474406455E+03  0.11904269832E+03  0.00000000000E+00 0. -1.
        -12    1    4    4    0    0 -0.31512811148E+02  0.29499499380E+02 -0.14967080700E+01  0.43191641150E+02  0.00000000000E+00 0.  1.
</event>
<event>
12    1  0.8494789E-002  0.3277802E+03  0.7818608E-02  0.1072135E+00
         21   -1    0    0  501  502  0.00000000000E+00  0.00000000000E+00  0.45192420939E+03  0.45192420939E+03  0.00000000000E+00 0. -1.
         21   -1    0    0  502  503 -0.00000000000E+00 -0.00000000000E+00 -0.70859156811E+03  0.70859156811E+03  0.00000000000E+00 0.  1.
         -6    2    1    2    0  503  0.21712329572E+03  0.17475810603E+03 -0.60137007474E+03  0.68484804374E+03  0.17230192990E+03 0.  0.
        -24    2    3    3    0    0  0.12956575150E+03  0.16123572571E+03 -0.30735407943E+03  0.37773784557E+03  0.73723175637E+02 0.  0.
          6    2    1    2  501    0 -0.21712329572E+03 -0.17475810603E+03  0.34470271603E+03  0.47566773376E+03  0.17250191112E+03 0.  0.
         24    2    5    5    0    0 -0.13489781265E+03 -0.16129420755E+03  0.17203543074E+03  0.28389081118E+03  0.82368452660E+02 0.  0.
          5    1    5    5  501    0 -0.82225483068E+02 -0.13463898480E+02  0.17266728528E+03  0.19177692258E+03  0.47000000000E+01 0. -1.
        -13    1    6    6    0    0 -0.60815585784E+02 -0.30695698083E+02  0.21894419945E+02  0.71555062573E+02  0.00000000000E+00 0.  1.
         14    1    6    6    0    0 -0.74082226866E+02 -0.13059850947E+03  0.15014101080E+03  0.21233574861E+03  0.00000000000E+00 0. -1.
         -5    1    3    3    0  503  0.87557544219E+02  0.13522380321E+02 -0.29401599531E+03  0.30711019817E+03  0.47000000000E+01 0.  1.
         11    1    4    4    0    0  0.29309743551E+01  0.52225858917E+02 -0.80107146236E+02  0.95672806107E+02  0.00000000000E+00 0. -1.
        -12    1    4    4    0    0  0.12663477714E+03  0.10900986679E+03 -0.22724693319E+03  0.28206503946E+03  0.00000000000E+00 0.  1.
</event>
<event>
12    1  0.8494789E-002  0.2690553E+03  0.7818608E-02  0.1101946E+00
         21   -1    0    0  501  502  0.00000000000E+00  0.00000000000E+00  0.31434555547E+03  0.31434555547E+03  0.00000000000E+00 0. -1.
         21   -1    0    0  502  503 -0.00000000000E+00 -0.00000000000E+00 -0.23121249339E+03  0.23121249339E+03  0.00000000000E+00 0.  1.
         -6    2    1    2    0  503  0.20458647759E+03  0.35343995397E+02  0.18510210564E+02  0.26969124881E+03  0.17113128576E+03 0.  0.
        -24    2    3    3    0    0  0.91732811525E+01  0.13808661696E+02  0.23037046498E+02  0.72986723739E+02  0.67242308897E+02 0.  0.
          6    2    1    2  501    0 -0.20458647759E+03 -0.35343995397E+02  0.64622851517E+02  0.27586680006E+03  0.16976911855E+03 0.  0.
         24    2    5    5    0    0 -0.21466407428E+03 -0.49766783886E+02  0.29344902023E+02  0.23616543354E+03  0.79721961584E+02 0.  0.
          5    1    5    5  501    0  0.10077596693E+02  0.14422788489E+02  0.35277949494E+02  0.39701366518E+02  0.47000000000E+01 0. -1.
        -11    1    6    6    0    0 -0.53162452725E+02 -0.48448893308E+02 -0.47338833841E+00  0.71928893631E+02  0.00000000000E+00 0.  1.
         12    1    6    6    0    0 -0.16150162156E+03 -0.13178905776E+01  0.29818290361E+02  0.16423653991E+03  0.00000000000E+00 0. -1.
         -5    1    3    3    0  503  0.19541319644E+03  0.21535333701E+02 -0.45268359345E+01  0.19670452507E+03  0.47000000000E+01 0.  1.
         11    1    4    4    0    0  0.36429047897E+02  0.15609263810E+02  0.22692892085E+02  0.45669377033E+02  0.00000000000E+00 0. -1.
        -12    1    4    4    0    0 -0.27255766744E+02 -0.18006021138E+01  0.34415441274E+00  0.27317346706E+02  0.00000000000E+00 0.  1.
</event>
<event>
12    1  0.8494789E-002  0.2292739E+03  0.7818608E-02  0.1127403E+00
         21   -1    0    0  503  502  0.00000000000E+00  0.00000000000E+00  0.39454613659E+03  0.39454613659E+03  0.00000000000E+00 0.  1.
         21   -1    0    0  501  503 -0.00000000000E+00 -0.00000000000E+00 -0.15947605682E+03  0.15947605682E+03  0.00000000000E+00 0. -1.
          6    2    1    2  501    0  0.12117410502E+03  0.86951889276E+02  0.23134903601E+03  0.32471807931E+03  0.17226624683E+03 0.  0.
         24    2    3    3    0    0  0.46325628483E+02  0.84022755591E+02  0.63769699206E+02  0.14109945720E+03  0.81465299201E+02 0.  0.
         -6    2    1    2    0  502 -0.12117410502E+03 -0.86951889276E+02  0.37210437571E+01  0.22930411410E+03  0.17413424649E+03 0.  0.
        -24    2    5    5    0    0  0.45789280186E+01 -0.50961353478E+01  0.73110721135E+01  0.79140309964E+02  0.78503501250E+02 0.  0.
          5    1    3    3  501    0  0.74848476535E+02  0.29291336845E+01  0.16757933680E+03  0.18361862211E+03  0.47000000000E+01 0. -1.
        -11    1    4    4    0    0  0.15952762641E+02  0.54016847709E+02  0.77898429519E+02  0.96127393566E+02  0.00000000000E+00 0.  1.
         12    1    4    4    0    0  0.30372865842E+02  0.30005907882E+02 -0.14128730313E+02  0.44972063634E+02  0.00000000000E+00 0. -1.
         -5    1    5    5    0  502 -0.12575303304E+03 -0.81855753928E+02 -0.35900283564E+01  0.15016380414E+03  0.47000000000E+01 0.  1.
         13    1    6    6    0    0 -0.15270884028E+02  0.21220252050E+02 -0.22653620746E+02  0.34593142803E+02  0.00000000000E+00 0. -1.
        -14    1    6    6    0    0  0.19849812047E+02 -0.26316387397E+02  0.29964692860E+02  0.44547167162E+02  0.00000000000E+00 0.  1.
</event>
<event>
12    1  0.8494789E-002  0.1854539E+03  0.7818608E-02  0.1162947E+00
         21   -1    0    0  501  502  0.00000000000E+00  0.00000000000E+00  0.13620510119E+03  0.13620510119E+03  0.00000000000E+00 0. -1.
         21   -1    0    0  502  503 -0.00000000000E+00 -0.00000000000E+00 -0.27416201014E+03  0.27416201014E+03  0.00000000000E+00 0. -1.
         -6    2    1    2    0  503  0.16753783308E+02  0.63608682267E+02 -0.12930073780E+03  0.22607922072E+03  0.17339659608E+03 0.  0.
        -24    2    3    3    0    0  0.50518513057E+02  0.49274654342E+02 -0.16715253684E+02  0.10757562345E+03  0.79454410409E+02 0.  0.
          6    2    1    2  501    0 -0.16753783308E+02 -0.63608682267E+02 -0.86561711468E+01  0.18428789060E+03  0.17193121767E+03 0.  0.
         24    2    5    5    0    0  0.28508830604E+02  0.55828933611E+01  0.20323920600E+01  0.10078631134E+03  0.96487449003E+02 0.  0.
          5    1    5    5  501    0 -0.45262613911E+02 -0.69191575628E+02 -0.10688563207E+02  0.83501579263E+02  0.47000000000E+01 0. -1.
        -11    1    6    6    0    0  0.10345609467E+01  0.44687287291E+02 -0.19002593344E+02  0.48570799001E+02  0.00000000000E+00 0.  1.
         12    1    6    6    0    0  0.27474269657E+02 -0.39104393930E+02  0.21034985404E+02  0.52215512338E+02  0.00000000000E+00 0. -1.
         -5    1    3    3    0  503 -0.33764729749E+02  0.14334027925E+02 -0.11258548412E+03  0.11850359727E+03  0.47000000000E+01 0.  1.
         13    1    4    4    0    0  0.20875087438E+02  0.57264486184E+02 -0.36507235979E+02  0.71047652546E+02  0.00000000000E+00 0. -1.
        -14    1    4    4    0    0  0.29643425619E+02 -0.79898318429E+01  0.19791982295E+02  0.36527970906E+02  0.00000000000E+00 0.  1.
</event>
<event>
12    1  0.8494789E-002  0.2625763E+03  0.7818608E-02  0.1105846E+00
         21   -1    0    0  501  502  0.00000000000E+00  0.00000000000E+00  0.41454460532E+03  0.41454460532E+03  0.00000000000E+00 0.  1.
         21   -1    0    0  502  503 -0.00000000000E+00 -0.00000000000E+00 -0.16925554794E+03  0.16925554794E+03  0.00000000000E+00 0.  1.
         -6    2    1    2    0  503 -0.71456905941E+02 -0.18282647336E+03  0.77627507927E+02  0.27226088829E+03  0.17195450718E+03 0.  0.
        -24    2    3    3    0    0 -0.35372003409E+02 -0.14192653490E+02  0.16380085183E+02  0.89195811922E+02  0.78961861905E+02 0.  0.
          6    2    1    2  501    0  0.71456905941E+02  0.18282647336E+03  0.16766154945E+03  0.31153926497E+03  0.17439813556E+03 0.  0.
         24    2    5    5    0    0  0.87378837026E+02  0.50320350025E+02  0.10663773258E+03  0.16471495896E+03  0.74781099945E+02 0.  0.
          5    1    5    5  501    0 -0.15921931085E+02  0.13250612333E+03  0.61023816872E+02  0.14682430601E+03  0.47000000000E+01 0. -1.
        -11    1    6    6    0    0  0.67591828006E+02  0.50609740581E+01  0.89840265170E+02  0.11254128983E+03  0.00000000000E+00 0.  1.
         12    1    6    6    0    0  0.19787009020E+02  0.45259375967E+02  0.16797467412E+02  0.52173669128E+02  0.00000000000E+00 0. -1.
         -5    1    3    3    0  503 -0.36084902532E+02 -0.16863381987E+03  0.61247422744E+02  0.18306507637E+03  0.47000000000E+01 0.  1.
         13    1    4    4    0    0  0.45177582928E+01  0.75232008421E+01 -0.25775980562E+02  0.27228842518E+02  0.00000000000E+00 0. -1.
        -14    1    4    4    0    0 -0.39889761702E+02 -0.21715854332E+02  0.42156065745E+02  0.61966969404E+02  0.00000000000E+00 0.  1.
</event>
<event>
12    1  0.8494789E-002  0.1840480E+03  0.7818608E-02  0.1167138E+00
         21   -1    0    0  501  502  0.00000000000E+00  0.00000000000E+00  0.12716748553E+03  0.12716748553E+03  0.00000000000E+00 0. -1.
         21   -1    0    0  502  503 -0.00000000000E+00 -0.00000000000E+00 -0.39054128396E+03  0.39054128396E+03  0.00000000000E+00 0. -1.
         -6    2    1    2    0  503 -0.22405747527E+02 -0.75891072484E+01 -0.29119601858E+03  0.34448335301E+03  0.18252136091E+03 0.  0.
        -24    2    3    3    0    0  0.63744576118E+01 -0.11788715660E+02 -0.34957330474E+02  0.86556440485E+02  0.78040982240E+02 0.  0.
          6    2    1    2  501    0  0.22405747527E+02  0.75891072484E+01  0.27822220154E+02  0.17322541649E+03  0.16933209062E+03 0.  0.
         24    2    5    5    0    0 -0.35280863021E+02  0.11839158889E+02  0.60323846184E+02  0.10671035301E+03  0.79769844186E+02 0.  0.
          5    1    5    5  501    0  0.57686610548E+02 -0.42500516410E+01 -0.32501626030E+02  0.66515063482E+02  0.47000000000E+01 0. -1.
        -11    1    6    6    0    0 -0.14845138052E+02  0.26355628252E+02 -0.10153809883E+02  0.31907634188E+02  0.00000000000E+00 0.  1.
         12    1    6    6    0    0 -0.20435724969E+02 -0.14516469362E+02  0.70477656067E+02  0.74802718818E+02  0.00000000000E+00 0. -1.
         -5    1    3    3    0  503 -0.28780205139E+02  0.41996084114E+01 -0.25623868811E+03  0.25792691252E+03  0.47000000000E+01 0.  1.
         13    1    4    4    0    0 -0.27320710495E+02  0.12355460233E+02  0.32773422573E+01  0.30163215873E+02  0.00000000000E+00 0. -1.
        -14    1    4    4    0    0  0.33695168107E+02 -0.24144175893E+02 -0.38234672731E+02  0.56393224612E+02  0.00000000000E+00 0.  1.
</event>
<event>
12    1  0.8494789E-002  0.2323195E+03  0.7818608E-02  0.1127229E+00
         21   -1    0    0  503  502  0.00000000000E+00  0.00000000000E+00  0.42785592767E+03  0.42785592767E+03  0.00000000000E+00 0. -1.
         21   -1    0    0  501  503 -0.00000000000E+00 -0.00000000000E+00 -0.15199323817E+03  0.15199323817E+03  0.00000000000E+00 0.  1.
          6    2    1    2  501    0  0.13966624082E+03 -0.38557372814E+02  0.10016229545E+01  0.21995897706E+03  0.16549204970E+03 0.  0.
         24    2    3    3    0    0  0.76040038999E+02 -0.77846528150E+02 -0.29832249280E+02  0.13893583861E+03  0.81061918794E+02 0.  0.
         -6    2    1    2    0  502 -0.13966624082E+03  0.38557372814E+02  0.27486106654E+03  0.35989018879E+03  0.18160124520E+03 0.  0.
        -24    2    5    5    0    0 -0.72325114244E+02  0.63969044888E+02  0.25469476454E+03  0.28499459383E+03  0.83842319727E+02 0.  0.
          5    1    3    3  501    0  0.63626201826E+02  0.39289155336E+02  0.30833872234E+02  0.81023138440E+02  0.47000000000E+01 0. -1.
        -11    1    4    4    0    0 -0.79146253893E+01 -0.22526724299E+02 -0.30066289840E+02  0.38393702445E+02  0.00000000000E+00 0.  1.
         12    1    4    4    0    0  0.83954664388E+02 -0.55319803851E+02  0.23404055994E+00  0.10054213617E+03  0.00000000000E+00 0. -1.
         -5    1    5    5    0  502 -0.67341126581E+02 -0.25411672074E+02  0.20166302005E+02  0.74895594953E+02  0.47000000000E+01 0.  1.
         11    1    6    6    0    0 -0.77806083967E+02  0.75062989707E+02  0.18552881159E+03  0.21473048003E+03  0.00000000000E+00 0. -1.
        -12    1    6    6    0    0  0.54809697228E+01 -0.11093944819E+02  0.69165952949E+02  0.70264113800E+02  0.00000000000E+00 0.  1.
</event>
<event>
12    1  0.8494789E-002  0.1792159E+03  0.7818608E-02  0.1168678E+00
         21   -1    0    0  501  502  0.00000000000E+00  0.00000000000E+00  0.16004031351E+04  0.16004031351E+04  0.00000000000E+00 0.  1.
         21   -1    0    0  502  503 -0.00000000000E+00 -0.00000000000E+00 -0.23691487727E+02  0.23691487727E+02  0.00000000000E+00 0.  1.
         -6    2    1    2    0  503  0.49233316284E+02 -0.13717973413E+02  0.46767728195E+03  0.50067326560E+03  0.17128799320E+03 0.  0.
        -24    2    3    3    0    0  0.93607928064E+02  0.70111140170E+01  0.38670128197E+03  0.40592093683E+03  0.80139413279E+02 0.  0.
          6    2    1    2  501    0 -0.49233316284E+02  0.13717973413E+02  0.11090343654E+04  0.11234213572E+04  0.17177374637E+03 0.  0.
         24    2    5    5    0    0 -0.73701060251E+02  0.89267531519E+01  0.42084009087E+03  0.43475955646E+03  0.79987228067E+02 0.  0.
          5    1    5    5  501    0  0.24467743967E+02  0.47912202612E+01  0.68819427458E+03  0.68866180078E+03  0.47000000000E+01 0. -1.
        -11    1    6    6    0    0 -0.13616978239E+02  0.37505973454E+02  0.11377968606E+03  0.12057336813E+03  0.00000000000E+00 0.  1.
         12    1    6    6    0    0 -0.60084082012E+02 -0.28579220302E+02  0.30706040480E+03  0.31418618834E+03  0.00000000000E+00 0. -1.
         -5    1    3    3    0  503 -0.44374611780E+02 -0.20729087430E+02  0.80975999973E+02  0.94752328773E+02  0.47000000000E+01 0.  1.
         11    1    4    4    0    0  0.65826993033E+02  0.11633583978E+02  0.36302444060E+03  0.36912772554E+03  0.00000000000E+00 0. -1.
        -12    1    4    4    0    0  0.27780935031E+02 -0.46224699607E+01  0.23676841374E+02  0.36793211292E+02  0.00000000000E+00 0.  1.
</event>
<event>
12    1  0.8494789E-002  0.2242935E+03  0.7818608E-02  0.1130815E+00
         21   -1    0    0  503  502  0.00000000000E+00  0.00000000000E+00  0.56837279686E+02  0.56837279686E+02  0.00000000000E+00 0. -1.
         21   -1    0    0  501  503 -0.00000000000E+00 -0.00000000000E+00 -0.88681080193E+03  0.88681080193E+03  0.00000000000E+00 0.  1.
          6    2    1    2  501    0 -0.53981637381E+02 -0.13296295538E+03 -0.44596641714E+03  0.49919297294E+03  0.17237869455E+03 0.  0.
         24    2    3    3    0    0 -0.42765644097E+02 -0.33524766104E+02 -0.33933430907E+03  0.35288422930E+03  0.80166674641E+02 0.  0.
         -6    2    1    2    0  502  0.53981637381E+02  0.13296295538E+03 -0.38400710510E+03  0.44445510868E+03  0.17171407102E+03 0.  0.
        -24    2    5    5    0    0  0.73426166934E+01  0.76019411441E+02 -0.92174176032E+02  0.14344628167E+03  0.79043608614E+02 0.  0.
          5    1    3    3  501    0 -0.11215993284E+02 -0.99438189272E+02 -0.10663210807E+03  0.14630874363E+03  0.47000000000E+01 0. -1.
        -11    1    4    4    0    0  0.58342207976E+01  0.13502217400E+02 -0.16865620557E+03  0.16929637824E+03  0.00000000000E+00 0.  1.
         12    1    4    4    0    0 -0.48599864895E+02 -0.47026983504E+02 -0.17067810350E+03  0.18358785106E+03  0.00000000000E+00 0. -1.
         -5    1    5    5    0  502  0.46639020688E+02  0.56943543935E+02 -0.29183292907E+03  0.30100882701E+03  0.47000000000E+01 0.  1.
         13    1    6    6    0    0  0.20871497380E+02  0.82285458369E+02 -0.49559808121E+02  0.98298985971E+02  0.00000000000E+00 0. -1.
        -14    1    6    6    0    0 -0.13528880687E+02 -0.62660469278E+01 -0.42614367911E+02  0.45147295702E+02  0.00000000000E+00 0.  1.
</event>
<event>
12    1  0.8494789E-002  0.1789003E+03  0.7818608E-02  0.1169521E+00
         21   -1    0    0  501  502  0.00000000000E+00  0.00000000000E+00  0.55856025211E+03  0.55856025211E+03  0.00000000000E+00 0. -1.
         21   -1    0    0  502  503 -0.00000000000E+00 -0.00000000000E+00 -0.65065412720E+02  0.65065412720E+02  0.00000000000E+00 0.  1.
         -6    2    1    2    0  503 -0.12806063210E+02  0.45932698140E+02  0.13492460573E+03  0.22407581758E+03  0.17242828880E+03 0.  0.
        -24    2    3    3    0    0 -0.23631582355E+02 -0.32129088506E+02  0.10775270382E+03  0.14058188575E+03  0.81005502331E+02 0.  0.
          6    2    1    2  501    0  0.12806063210E+02 -0.45932698140E+02  0.35857023366E+03  0.39954984725E+03  0.16968694693E+03 0.  0.
         24    2    5    5    0    0  0.62768974324E+02 -0.43578835876E+01  0.17897815750E+03  0.20849969281E+03  0.86487026499E+02 0.  0.
          5    1    5    5  501    0 -0.49962911114E+02 -0.41574814553E+02  0.17959207616E+03  0.19105015444E+03  0.47000000000E+01 0. -1.
        -11    1    6    6    0    0  0.17280631886E+02 -0.30642490009E+02  0.13643659339E+03  0.14089899378E+03  0.00000000000E+00 0.  1.
         12    1    6    6    0    0  0.45488342438E+02  0.26284606422E+02  0.42541564111E+02  0.67600699031E+02  0.00000000000E+00 0. -1.
         -5    1    3    3    0  503  0.10825519145E+02  0.78061786646E+02  0.27171901912E+02  0.83493931831E+02  0.47000000000E+01 0.  1.
         13    1    4    4    0    0  0.43718565374E+00 -0.24216278079E+02 -0.52424529330E+01  0.24781092955E+02  0.00000000000E+00 0. -1.
        -14    1    4    4    0    0 -0.24068768009E+02 -0.79128104264E+01  0.11299515675E+03  0.11580079280E+03  0.00000000000E+00 0.  1.
</event>
<event>
12    1  0.8494789E-002  0.1859250E+03  0.7818608E-02  0.1162333E+00
         21   -1    0    0  501  502  0.00000000000E+00  0.00000000000E+00  0.73831231642E+03  0.73831231642E+03  0.00000000000E+00 0.  1.
         21   -1    0    0  502  503 -0.00000000000E+00 -0.00000000000E+00 -0.52379108370E+02  0.52379108370E+02  0.00000000000E+00 0. -1.
         -6    2    1    2    0  503  0.31647078374E+02 -0.58744144420E+02  0.21289109780E+03  0.28264948185E+03  0.17353875069E+03 0.  0.
        -24    2    3    3    0    0 -0.40205948544E+02 -0.68497084488E+02  0.13941302505E+03  0.17930977751E+03  0.80047709994E+02 0.  0.
          6    2    1    2  501    0 -0.31647078374E+02  0.58744144420E+02  0.47304211025E+03  0.50804194294E+03  0.17287384316E+03 0.  0.
         24    2    5    5    0    0 -0.57640174958E+02  0.59769826860E+01  0.15199885652E+03  0.18162062747E+03  0.80773051509E+02 0.  0.
          5    1    5    5  501    0  0.25993096584E+02  0.52767161734E+02  0.32104325373E+03  0.32642131547E+03  0.47000000000E+01 0. -1.
        -13    1    6    6    0    0  0.75354946877E+01  0.16776169408E+02  0.87069812205E+02  0.88990874462E+02  0.00000000000E+00 0.  1.
         14    1    6    6    0    0 -0.65175669645E+02 -0.10799186722E+02  0.64929044314E+02  0.92629753012E+02  0.00000000000E+00 0. -1.
         -5    1    3    3    0  503  0.71853026918E+02  0.97529400683E+01  0.73478072749E+02  0.10333970434E+03  0.47000000000E+01 0.  1.
         13    1    4    4    0    0  0.16234151190E+01 -0.66766246867E+02  0.10795230173E+03  0.12694119366E+03  0.00000000000E+00 0. -1.
        -14    1    4    4    0    0 -0.41829363663E+02 -0.17308376215E+01  0.31460723322E+02  0.52368583857E+02  0.00000000000E+00 0.  1.
</event>
<event>
12    1  0.8494789E-002  0.2838130E+03  0.7818608E-02  0.1093629E+00
         21   -1    0    0  503  502  0.00000000000E+00  0.00000000000E+00  0.24799351003E+03  0.24799351003E+03  0.00000000000E+00 0.  1.
         21   -1    0    0  501  503 -0.00000000000E+00 -0.00000000000E+00 -0.34210157241E+03  0.34210157241E+03  0.00000000000E+00 0. -1.
          6    2    1    2  501    0 -0.20669793410E+03  0.89260112618E+02 -0.11347380461E+03  0.30565685504E+03  0.17279584785E+03 0.  0.
         24    2    3    3    0    0 -0.99512962218E+02  0.39757710191E+01 -0.11120973159E+03  0.16858295838E+03  0.78319684946E+02 0.  0.
         -6    2    1    2    0  502  0.20669793410E+03 -0.89260112618E+02  0.19365742226E+02  0.28443822740E+03  0.17273873210E+03 0.  0.
        -24    2    5    5    0    0  0.11079672381E+03 -0.62965940397E+02 -0.54600733390E+02  0.16041582965E+03  0.80693089288E+02 0.  0.
          5    1    3    3  501    0 -0.10718497188E+03  0.85284341598E+02 -0.22640730190E+01  0.13707389666E+03  0.47000000000E+01 0. -1.
        -11    1    4    4    0    0 -0.37429489862E+01  0.17244869866E+02  0.40861895130E+01  0.18113314123E+02  0.00000000000E+00 0.  1.
         12    1    4    4    0    0 -0.95770013232E+02 -0.13269098846E+02 -0.11529592110E+03  0.15046964425E+03  0.00000000000E+00 0. -1.
         -5    1    5    5    0  502  0.95901210292E+02 -0.26294172221E+02  0.73966475616E+02  0.12402239775E+03  0.47000000000E+01 0.  1.
         11    1    6    6    0    0  0.10628944177E+03 -0.54231857380E+02 -0.15772831058E+02  0.12036329169E+03  0.00000000000E+00 0. -1.
        -12    1    6    6    0    0  0.45072820371E+01 -0.87340830167E+01 -0.38827902331E+02  0.40052537959E+02  0.00000000000E+00 0.  1.
</event>
<event>
12    1  0.8494789E-002  0.2452271E+03  0.7818608E-02  0.1116520E+00
         21   -1    0    0  503  502  0.00000000000E+00  0.00000000000E+00  0.12619395324E+03  0.12619395324E+03  0.00000000000E+00 0.  1.
         21   -1    0    0  501  503 -0.00000000000E+00 -0.00000000000E+00 -0.52065527997E+03  0.52065527997E+03  0.00000000000E+00 0. -1.
          6    2    1    2  501    0  0.50325618604E+02 -0.16637568402E+03 -0.29304700398E+03  0.38147929449E+03  0.17157030471E+03 0.  0.
         24    2    3    3    0    0  0.75920101238E+02 -0.16742404930E+03 -0.18668927746E+03  0.27197937393E+03  0.72974101347E+02 0.  0.
         -6    2    1    2    0  502 -0.50325618604E+02  0.16637568402E+03 -0.10141432275E+03  0.26536993872E+03  0.17298208981E+03 0.  0.
        -24    2    5    5    0    0 -0.19637240621E+02  0.18845435845E+03 -0.74048705989E+02  0.21846352777E+03  0.79639410264E+02 0.  0.
          5    1    3    3  501    0 -0.25594482634E+02  0.10483652813E+01 -0.10635772653E+03  0.10949992056E+03  0.47000000000E+01 0. -1.
        -11    1    4    4    0    0  0.55667200585E+02 -0.81015602101E+02 -0.14175654388E+03  0.17250299342E+03  0.00000000000E+00 0.  1.
         12    1    4    4    0    0  0.20252900653E+02 -0.86408447203E+02 -0.44932733575E+02  0.99476380511E+02  0.00000000000E+00 0. -1.
         -5    1    5    5    0  502 -0.30688377984E+02 -0.22078674427E+02 -0.27365616757E+02  0.46906410950E+02  0.47000000000E+01 0.  1.
         11    1    6    6    0    0  0.17254466860E+02  0.17217465971E+02  0.71363838932E+01  0.25398538071E+02  0.00000000000E+00 0. -1.
        -12    1    6    6    0    0 -0.36891707480E+02  0.17123689248E+03 -0.81185089882E+02  0.19306498970E+03  0.00000000000E+00 0.  1.
</event>
<event>
12    1  0.8494789E-002  0.1935723E+03  0.7818608E-02  0.1155307E+00
         21   -1    0    0  501  502  0.00000000000E+00  0.00000000000E+00  0.24423026884E+03  0.24423026884E+03  0.00000000000E+00 0. -1.
         21   -1    0    0  502  503 -0.00000000000E+00 -0.00000000000E+00 -0.17982732177E+03  0.17982732177E+03  0.00000000000E+00 0. -1.
         -6    2    1    2    0  503  0.79848762005E+02  0.37715564385E+02 -0.49197854216E+02  0.19972645162E+03  0.17225544411E+03 0.  0.
        -24    2    3    3    0    0  0.34713714606E+02 -0.37832396329E+02 -0.59962248795E+02  0.11094228038E+03  0.77951177679E+02 0.  0.
          6    2    1    2  501    0 -0.79848762005E+02 -0.37715564385E+02  0.11360080128E+03  0.22433113900E+03  0.17210760960E+03 0.  0.
         24    2    5    5    0    0 -0.26528880921E+02  0.43563828466E+02  0.81009946701E+02  0.12169779537E+03  0.75140889408E+02 0.  0.
          5    1    5    5  501    0 -0.53319881084E+02 -0.81279392850E+02  0.32590854582E+02  0.10263334362E+03  0.47000000000E+01 0. -1.
        -13    1    6    6    0    0  0.13963613862E+02  0.10799879120E+02 -0.73548536756E+01  0.19123644361E+02  0.00000000000E+00 0.  1.
         14    1    6    6    0    0 -0.40492494783E+02  0.32763949346E+02  0.88364800376E+02  0.10257415101E+03  0.00000000000E+00 0. -1.
         -5    1    3    3    0  503  0.45135047400E+02  0.75547960714E+02  0.10764394579E+02  0.88784171238E+02  0.47000000000E+01 0.  1.
         11    1    4    4    0    0  0.59824495939E+02 -0.29659287300E+02 -0.39983438821E+02  0.77828780136E+02  0.00000000000E+00 0. -1.
        -12    1    4    4    0    0 -0.25110781333E+02 -0.81731090286E+01 -0.19978809974E+02  0.33113500243E+02  0.00000000000E+00 0.  1.
</event>
<event>
12    1  0.8494789E-002  0.1997150E+03  0.7818608E-02  0.1150025E+00
         21   -1    0    0  503  502  0.00000000000E+00  0.00000000000E+00  0.22973140147E+03  0.22973140147E+03  0.00000000000E+00 0. -1.
         21   -1    0    0  501  503 -0.00000000000E+00 -0.00000000000E+00 -0.17659695076E+03  0.17659695076E+03  0.00000000000E+00 0. -1.
          6    2    1    2  501    0  0.50499321100E+02  0.88738273196E+02 -0.63808009685E+00  0.19950092189E+03  0.17139296406E+03 0.  0.
         24    2    3    3    0    0  0.34172253882E+02 -0.16527187607E+02  0.33760595039E+02  0.87461869712E+02  0.71196278067E+02 0.  0.
         -6    2    1    2    0  502 -0.50499321100E+02 -0.88738273196E+02  0.53772530807E+02  0.20682743034E+03  0.17164334625E+03 0.  0.
        -24    2    5    5    0    0  0.29137768575E+02 -0.79610782415E+02  0.48087287488E+02  0.12633029293E+03  0.80374557291E+02 0.  0.
          5    1    3    3  501    0  0.16327067218E+02  0.10526546080E+03 -0.34398675136E+02  0.11203905218E+03  0.47000000000E+01 0. -1.
        -13    1    4    4    0    0 -0.71516845213E+01  0.43344261412E+01  0.39898542136E+02  0.40765518592E+02  0.00000000000E+00 0.  1.
         14    1    4    4    0    0  0.41323938403E+02 -0.20861613748E+02 -0.61379470975E+01  0.46696351120E+02  0.00000000000E+00 0. -1.
         -5    1    5    5    0  502 -0.79637089674E+02 -0.91274907812E+01  0.56852433191E+01  0.80497137411E+02  0.47000000000E+01 0.  1.
         11    1    6    6    0    0  0.65639965091E+00 -0.90592028368E+01  0.49407286237E+02  0.50235246091E+02  0.00000000000E+00 0. -1.
        -12    1    6    6    0    0  0.28481368924E+02 -0.70551579578E+02 -0.13199987492E+01  0.76095046839E+02  0.00000000000E+00 0.  1.
</event>
<event>
12    1  0.8494789E-002  0.2265154E+03  0.7818608E-02  0.1129425E+00
         21   -1    0    0  501  502  0.00000000000E+00  0.00000000000E+00  0.42644364428E+03  0.42644364428E+03  0.00000000000E+00 0. -1.
         21   -1    0    0  502  503 -0.00000000000E+00 -0.00000000000E+00 -0.18435795942E+03  0.18435795942E+03  0.00000000000E+00 0. -1.
         -6    2    1    2    0  503  0.10365021315E+03 -0.10102523530E+03 -0.59925028158E+02  0.23430795757E+03  0.17424048075E+03 0.  0.
        -24    2    3    3    0    0  0.13316819270E+03 -0.85430920003E+02 -0.82773767996E+02  0.19358144657E+03  0.74766771686E+02 0.  0.
          6    2    1    2  501    0 -0.10365021315E+03  0.10102523530E+03  0.30201071301E+03  0.37649364613E+03  0.17201026117E+03 0.  0.
         24    2    5    5    0    0 -0.23588733744E+02  0.28734153371E+02  0.40525220415E+02  0.93593321193E+02  0.75732003490E+02 0.  0.
          5    1    5    5  501    0 -0.80061479402E+02  0.72291081926E+02  0.26148549259E+03  0.28290032493E+03  0.47000000000E+01 0. -1.
        -11    1    6    6    0    0  0.26149969418E+02  0.13821370043E+02  0.26728314865E+02  0.39865448523E+02  0.00000000000E+00 0.  1.
         12    1    6    6    0    0 -0.49738703162E+02  0.14912783328E+02  0.13796905550E+02  0.53727872669E+02  0.00000000000E+00 0. -1.
         -5    1    3    3    0  503 -0.29517979553E+02 -0.15594315294E+02  0.22848739838E+02  0.40726511004E+02  0.47000000000E+01 0.  1.
         13    1    4    4    0    0  0.10519099436E+02 -0.18539962962E+02 -0.43531936413E+02  0.48470724849E+02  0.00000000000E+00 0. -1.
        -14    1    4    4    0    0  0.12264909326E+03 -0.66890957041E+02 -0.39241831583E+02  0.14511072172E+03  0.00000000000E+00 0.  1.
</event>
<event>
12    1  0.8494789E-002  0.2221555E+03  0.7818608E-02  0.1132533E+00
         21   -1    0    0  503  502  0.00000000000E+00  0.00000000000E+00  0.14357051694E+03  0.14357051694E+03  0.00000000000E+00 0. -1.
         21   -1    0    0  501  503 -0.00000000000E+00 -0.00000000000E+00 -0.52125464792E+03  0.52125464792E+03  0.00000000000E+00 0. -1.
          6    2    1    2  501    0 -0.49581089990E+02  0.12953191896E+03 -0.38357158932E+03  0.44259168931E+03  0.17182385398E+03 0.  0.
         24    2    3    3    0    0 -0.89402345768E+02  0.95839714417E+02 -0.19791597702E+03  0.24969017704E+03  0.77436556353E+02 0.  0.
         -6    2    1    2    0  502  0.49581089990E+02 -0.12953191896E+03  0.58874583371E+01  0.22223347555E+03  0.17354034970E+03 0.  0.
        -24    2    5    5    0    0  0.88222102467E+02 -0.62099503315E+02 -0.30292909801E+02  0.13637680683E+03  0.77726992612E+02 0.  0.
          5    1    3    3  501    0  0.39821255778E+02  0.33692204543E+02 -0.18565561230E+03  0.19290151227E+03  0.47000000000E+01 0. -1.
        -13    1    4    4    0    0  0.14360462790E+02  0.13225180402E+02 -0.28082474337E+02  0.34201661555E+02  0.00000000000E+00 0.  1.
         14    1    4    4    0    0 -0.10376280856E+03  0.82614534015E+02 -0.16983350269E+03  0.21548851548E+03  0.00000000000E+00 0. -1.
         -5    1    5    5    0  502 -0.38641012478E+02 -0.67432415646E+02  0.36180368138E+02  0.85856668720E+02  0.47000000000E+01 0.  1.
         11    1    6    6    0    0  0.32648940749E+02 -0.68070835297E+02 -0.27722515487E+02  0.80424684115E+02  0.00000000000E+00 0. -1.
        -12    1    6    6    0    0  0.55573161719E+02  0.59713319827E+01 -0.25703943138E+01  0.55952122712E+02  0.00000000000E+00 0.  1.
</event>
<event>
12    1  0.8494789E-002  0.1891771E+03  0.7818608E-02  0.1159382E+00
         21   -1    0    0  501  502  0.00000000000E+00  0.00000000000E+00  0.12817511322E+03  0.12817511322E+03  0.00000000000E+00 0. -1.
         21   -1    0    0  502  503 -0.00000000000E+00 -0.00000000000E+00 -0.78672205947E+03  0.78672205947E+03  0.00000000000E+00 0. -1.
         -6    2    1    2    0  503  0.72673915488E+02 -0.36261135091E+02 -0.69686036088E+03  0.72187935129E+03  0.16999725690E+03 0.  0.
        -24    2    3    3    0    0  0.28954387320E+02 -0.42076041175E+02 -0.65166896045E+03  0.65855824148E+03  0.80111008080E+02 0.  0.
          6    2    1    2  501    0 -0.72673915488E+02  0.36261135091E+02  0.38313414627E+02  0.19301782140E+03  0.17085547614E+03 0.  0.
         24    2    5    5    0    0 -0.91555713216E+02  0.56223535935E+02 -0.13182196268E+02  0.13446094585E+03  0.79764911112E+02 0.  0.
          5    1    5    5  501    0  0.18881797728E+02 -0.19962400844E+02  0.51495610895E+02  0.58556875552E+02  0.47000000000E+01 0. -1.
        -11    1    6    6    0    0 -0.12963792032E+02 -0.15918343036E+02 -0.18515113539E+02  0.27645306622E+02  0.00000000000E+00 0.  1.
         12    1    6    6    0    0 -0.78591921184E+02  0.72141878972E+02  0.53329172709E+01  0.10681563923E+03  0.00000000000E+00 0. -1.
         -5    1    3    3    0  503  0.43719528168E+02  0.58149060844E+01 -0.45191400420E+02  0.63321109813E+02  0.47000000000E+01 0.  1.
         13    1    4    4    0    0 -0.25303769104E+02 -0.43830258882E+01 -0.26950892039E+03  0.27072966187E+03  0.00000000000E+00 0. -1.
        -14    1    4    4    0    0  0.54258156423E+02 -0.37693015287E+02 -0.38216004007E+03  0.38782857961E+03  0.00000000000E+00 0.  1.
</event>
<event>
12    1  0.8494789E-002  0.2368253E+03  0.7818608E-02  0.1122050E+00
         21   -1    0    0  501  502  0.00000000000E+00  0.00000000000E+00  0.68206482068E+03  0.68206482068E+03  0.00000000000E+00 0. -1.
         21   -1    0    0  502  503 -0.00000000000E+00 -0.00000000000E+00 -0.20410959865E+03  0.20410959865E+03  0.00000000000E+00 0. -1.
         -6    2    1    2    0  503  0.87242544821E+02  0.13737675865E+03 -0.10362066236E+03  0.25850233291E+03  0.17205400026E+03 0.  0.
        -24    2    3    3    0    0  0.76214535000E+00  0.12066384463E+03 -0.41971340652E+02  0.15088769703E+03  0.80281750186E+02 0.  0.
          6    2    1    2  501    0 -0.87242544821E+02 -0.13737675865E+03  0.58157588438E+03  0.62767208642E+03  0.17105000243E+03 0.  0.
         24    2    5    5    0    0 -0.35867704312E+02 -0.34737016835E+01  0.25942316808E+03  0.27500529535E+03  0.83838973747E+02 0.  0.
          5    1    5    5  501    0 -0.51374840509E+02 -0.13390305696E+03  0.32215271631E+03  0.35266679107E+03  0.47000000000E+01 0. -1.
        -13    1    6    6    0    0  0.66693258329E+01 -0.19585633366E+02  0.13035306214E+02  0.24453959792E+02  0.00000000000E+00 0.  1.
         14    1    6    6    0    0 -0.42537030145E+02  0.16111931682E+02  0.24638786186E+03  0.25055133556E+03  0.00000000000E+00 0. -1.
         -5    1    3    3    0  503  0.86480399471E+02  0.16712914017E+02 -0.61649321705E+02  0.10761463587E+03  0.47000000000E+01 0.  1.
         13    1    4    4    0    0  0.16083878577E+02  0.12429565358E+03 -0.25120177769E+02  0.12782458285E+03  0.00000000000E+00 0. -1.
        -14    1    4    4    0    0 -0.15321733227E+02 -0.36318089505E+01 -0.16851162883E+02  0.23063114183E+02  0.00000000000E+00 0.  1.
</event>
<event>
12    1  0.8494789E-002  0.1825374E+03  0.7818608E-02  0.1165795E+00
         21   -1    0    0  503  502  0.00000000000E+00  0.00000000000E+00  0.18987890565E+02  0.18987890565E+02  0.00000000000E+00 0. -1.
         21   -1    0    0  501  503 -0.00000000000E+00 -0.00000000000E+00 -0.21435842702E+04  0.21435842702E+04  0.00000000000E+00 0. -1.
          6    2    1    2  501    0 -0.54007795604E+02  0.24784286133E+02 -0.15285680388E+04  0.15392185825E+04  0.17071172404E+03 0.  0.
         24    2    3    3    0    0 -0.72757006724E+02  0.63930307121E+02 -0.13604717830E+04  0.13655453690E+04  0.66708442557E+02 0.  0.
         -6    2    1    2    0  502  0.54007795604E+02 -0.24784286133E+02 -0.59602834077E+03  0.62335357818E+03  0.17259431508E+03 0.  0.
        -24    2    5    5    0    0  0.77725931815E+02  0.17679675197E+02 -0.52656927355E+03  0.53842778694E+03  0.79217362460E+02 0.  0.
          5    1    3    3  501    0  0.18749211120E+02 -0.39146020988E+02 -0.16809625586E+03  0.17367321357E+03  0.47000000000E+01 0. -1.
        -11    1    4    4    0    0 -0.79543696691E+01  0.49896237076E+02 -0.66700581818E+03  0.66891678702E+03  0.00000000000E+00 0.  1.
         12    1    4    4    0    0 -0.64802637055E+02  0.14034070045E+02 -0.69346596479E+03  0.69662858196E+03  0.00000000000E+00 0. -1.
         -5    1    5    5    0  502 -0.23718136210E+02 -0.42463961330E+02 -0.69459067220E+02  0.84925791231E+02  0.47000000000E+01 0.  1.
         11    1    6    6    0    0  0.51799638224E+02  0.12773783361E+02 -0.49227336694E+03  0.49515597529E+03  0.00000000000E+00 0. -1.
        -12    1    6    6    0    0  0.25926293591E+02  0.49058918358E+01 -0.34295906607E+02  0.43271811656E+02  0.00000000000E+00 0.  1.
</event>
<event>
12    1  0.8494789E-002  0.3100843E+03  0.7818608E-02  0.1080323E+00
         21   -1    0    0  503  502  0.00000000000E+00  0.00000000000E+00  0.33456370890E+03  0.33456370890E+03  0.00000000000E+00 0. -1.
         21   -1    0    0  501  503 -0.00000000000E+00 -0.00000000000E+00 -0.30064350815E+03  0.30064350815E+03  0.00000000000E+00 0.  1.
          6    2    1    2  501    0 -0.25509949463E+03 -0.38180270601E+02  0.83964749454E+02  0.32111052482E+03  0.17183830997E+03 0.  0.
         24    2    3    3    0    0 -0.70470868381E+02  0.27463950020E+02  0.83779926613E+01  0.11103353623E+03  0.80856932701E+02 0.  0.
         -6    2    1    2    0  502  0.25509949463E+03  0.38180270601E+02 -0.50044548706E+02  0.31409669224E+03  0.17210110399E+03 0.  0.
        -24    2    5    5    0    0  0.54842011953E+02  0.23791968421E+02 -0.22422538743E+01  0.10765727740E+03  0.89506187709E+02 0.  0.
          5    1    3    3  501    0 -0.18462862625E+03 -0.65644220621E+02  0.75586756793E+02  0.21007698859E+03  0.47000000000E+01 0. -1.
        -11    1    4    4    0    0 -0.66672291675E+02  0.13631456290E+01 -0.22541027413E+02  0.70392830317E+02  0.00000000000E+00 0.  1.
         12    1    4    4    0    0 -0.37985767064E+01  0.26100804391E+02  0.30919020074E+02  0.40640705914E+02  0.00000000000E+00 0. -1.
         -5    1    5    5    0  502  0.20025748268E+03  0.14388302180E+02 -0.47802294831E+02  0.20643941484E+03  0.47000000000E+01 0.  1.
         13    1    6    6    0    0  0.71917540829E+02  0.41407125177E+02 -0.38172411024E+01  0.83073786623E+02  0.00000000000E+00 0. -1.
        -14    1    6    6    0    0 -0.17075528876E+02 -0.17615156756E+02  0.15749872281E+01  0.24583490776E+02  0.00000000000E+00 0.  1.
</event>
<event>
12    1  0.8494789E-002  0.3091568E+03  0.7818608E-02  0.1081065E+00
         21   -1    0    0  503  502  0.00000000000E+00  0.00000000000E+00  0.90554138165E+03  0.90554138165E+03  0.00000000000E+00 0.  1.
         21   -1    0    0  501  503 -0.00000000000E+00 -0.00000000000E+00 -0.11258736708E+03  0.11258736708E+03  0.00000000000E+00 0. -1.
          6    2    1    2  501    0 -0.13640990334E+03 -0.21748792056E+03  0.26297060346E+03  0.40587127767E+03  0.17224778210E+03 0.  0.
         24    2    3    3    0    0 -0.21713075664E+02 -0.15241872676E+03  0.16789929164E+03  0.24323669774E+03  0.85270118278E+02 0.  0.
         -6    2    1    2    0  502  0.13640990334E+03  0.21748792056E+03  0.52998341112E+03  0.61225747106E+03  0.16753548127E+03 0.  0.
        -24    2    5    5    0    0  0.60239334336E+02  0.19593481583E+03  0.32827751806E+03  0.39552295788E+03  0.81566242370E+02 0.  0.
          5    1    3    3  501    0 -0.11469682767E+03 -0.65069193806E+02  0.95071311814E+02  0.16263457993E+03  0.47000000000E+01 0. -1.
        -11    1    4    4    0    0 -0.32240571965E+02 -0.18218571287E+02  0.16191089882E+02  0.40416855543E+02  0.00000000000E+00 0.  1.
         12    1    4    4    0    0  0.10527496301E+02 -0.13420015547E+03  0.15170820176E+03  0.20281984219E+03  0.00000000000E+00 0. -1.
         -5    1    5    5    0  502  0.76170569000E+02  0.21553104735E+02  0.20170589306E+03  0.21673451318E+03  0.47000000000E+01 0.  1.
         11    1    6    6    0    0  0.48633983614E+02  0.96593897340E+02  0.10438288000E+03  0.15030446102E+03  0.00000000000E+00 0. -1.
        -12    1    6    6    0    0  0.11605350722E+02  0.99340918487E+02  0.22389463806E+03  0.24521849686E+03  0.00000000000E+00 0.  1.
</event>
<event>
12    1  0.8494789E-002  0.2346421E+03  0.7818608E-02  0.1123520E+00
         21   -1    0    0  503  502  0.00000000000E+00  0.00000000000E+00  0.48881588752E+03  0.48881588752E+03  0.00000000000E+00 0. -1.
         21   -1    0    0  501  503 -0.00000000000E+00 -0.00000000000E+00 -0.89497256311E+03  0.89497256311E+03  0.00000000000E+00 0. -1.
          6    2    1    2  501    0  0.50875454877E+02 -0.15198032908E+03 -0.85012645382E+03  0.88191377461E+03  0.17137848766E+03 0.  0.
         24    2    3    3    0    0  0.61139256229E+02 -0.17525729857E+03 -0.80223771784E+03  0.82748415068E+03  0.81801799220E+02 0.  0.
         -6    2    1    2    0  502 -0.50875454877E+02  0.15198032908E+03  0.44396977823E+03  0.50187467603E+03  0.17053648912E+03 0.  0.
        -24    2    5    5    0    0 -0.59056661826E+02  0.94992373715E+02  0.15527033637E+03  0.20745318066E+03  0.80104334708E+02 0.  0.
          5    1    3    3  501    0 -0.10263801352E+02  0.23276969496E+02 -0.47888735982E+02  0.54429623929E+02  0.47000000000E+01 0. -1.
        -11    1    4    4    0    0  0.14411926706E+02 -0.29734160686E+01 -0.18316250215E+02  0.23495315628E+02  0.00000000000E+00 0.  1.
         12    1    4    4    0    0  0.46727329523E+02 -0.17228388250E+03 -0.78392146762E+03  0.80398883506E+03  0.00000000000E+00 0. -1.
         -5    1    5    5    0  502  0.81812069487E+01  0.56987955360E+02  0.28869944186E+03  0.29442149537E+03  0.47000000000E+01 0.  1.
         11    1    6    6    0    0 -0.79160866958E+02  0.73145605799E+02  0.12505907540E+03  0.16509541134E+03  0.00000000000E+00 0. -1.
        -12    1    6    6    0    0  0.20104205132E+02  0.21846767916E+02  0.30211260965E+02  0.42357769316E+02  0.00000000000E+00 0.  1.
</event>
<event>
12    1  0.8494789E-002  0.2374514E+03  0.7818608E-02  0.1121728E+00
         21   -1    0    0  503  502  0.00000000000E+00  0.00000000000E+00  0.89554568701E+02  0.89554568701E+02  0.00000000000E+00 0.  1.
         21   -1    0    0  501  503 -0.00000000000E+00 -0.00000000000E+00 -0.10541146499E+04  0.10541146499E+04  0.00000000000E+00 0.  1.
          6    2    1    2  501    0  0.15986459452E+03 -0.31996571949E+02 -0.84747807987E+03  0.88011490660E+03  0.17263453815E+03 0.  0.
         24    2    3    3    0    0  0.10672344151E+03 -0.78350674404E+02 -0.43222350531E+03  0.45888915163E+03  0.78951718117E+02 0.  0.
         -6    2    1    2    0  502 -0.15986459452E+03  0.31996571949E+02 -0.11708200138E+03  0.26355431205E+03  0.17079874460E+03 0.  0.
        -24    2    5    5    0    0 -0.20547692086E+02 -0.15879355859E+02 -0.19253665204E+02  0.86653839678E+02  0.80397902427E+02 0.  0.
          5    1    3    3  501    0  0.53141153012E+02  0.46354102455E+02 -0.41525457456E+03  0.42122575497E+03  0.47000000000E+01 0. -1.
        -13    1    4    4    0    0  0.80074492256E+02 -0.17969146404E+02 -0.30121742242E+03  0.31219665293E+03  0.00000000000E+00 0.  1.
         14    1    4    4    0    0  0.26648949251E+02 -0.60381528000E+02 -0.13100608289E+03  0.14669249869E+03  0.00000000000E+00 0. -1.
         -5    1    5    5    0  502 -0.13931690243E+03  0.47875927808E+02 -0.97828336174E+02  0.17690047237E+03  0.47000000000E+01 0.  1.
         13    1    6    6    0    0 -0.49524376260E+02 -0.22805264342E+02 -0.15081201677E+02  0.56570191530E+02  0.00000000000E+00 0. -1.
        -14    1    6    6    0    0  0.28976684174E+02  0.69259084835E+01 -0.41724635269E+01  0.30083648148E+02  0.00000000000E+00 0.  1.
</event>
<event>
12    1  0.8494789E-002  0.2099868E+03  0.7818608E-02  0.1142477E+00
         21   -1    0    0  503  502  0.00000000000E+00  0.00000000000E+00  0.83114388158E+02  0.83114388158E+02  0.00000000000E+00 0. -1.
         21   -1    0    0  501  503 -0.00000000000E+00 -0.00000000000E+00 -0.52409165161E+03  0.52409165161E+03  0.00000000000E+00 0.  1.
          6    2    1    2  501    0  0.70693367261E+02 -0.87149552318E+02 -0.24735478171E+03  0.32157668215E+03  0.17214696577E+03 0.  0.
         24    2    3    3    0    0  0.52050974434E+02 -0.93076591110E+02 -0.86018498435E+02  0.15899084359E+03  0.80661952117E+02 0.  0.
         -6    2    1    2    0  502 -0.70693367261E+02  0.87149552318E+02 -0.19362248174E+03  0.28562935762E+03  0.17748765550E+03 0.  0.
        -24    2    5    5    0    0 -0.32947633882E+02  0.49384586824E+01 -0.17051875236E+03  0.19214525942E+03  0.82056205479E+02 0.  0.
          5    1    3    3  501    0  0.18642392827E+02  0.59270387921E+01 -0.16133628328E+03  0.16258583856E+03  0.47000000000E+01 0. -1.
        -13    1    4    4    0    0 -0.14131813747E+02 -0.38411565162E+01 -0.32553733751E+02  0.35696053343E+02  0.00000000000E+00 0.  1.
         14    1    4    4    0    0  0.66182788181E+02 -0.89235434594E+02 -0.53464764684E+02  0.12329479024E+03  0.00000000000E+00 0. -1.
         -5    1    5    5    0  502 -0.37745733379E+02  0.82211093636E+02 -0.23103729380E+02  0.93484098201E+02  0.47000000000E+01 0.  1.
         11    1    6    6    0    0 -0.19080026485E+02  0.27271813855E+02 -0.18922578806E+02  0.38286593349E+02  0.00000000000E+00 0. -1.
        -12    1    6    6    0    0 -0.13867607397E+02 -0.22333355172E+02 -0.15159617355E+03  0.15385866607E+03  0.00000000000E+00 0.  1.
</event>
<event>
12    1  0.8494789E-002  0.2491052E+03  0.7818608E-02  0.1113914E+00
         21   -1    0    0  503  502  0.00000000000E+00  0.00000000000E+00  0.31450175312E+03  0.31450175312E+03  0.00000000000E+00 0.  1.
         21   -1    0    0  501  503 -0.00000000000E+00 -0.00000000000E+00 -0.19718066324E+03  0.19718066324E+03  0.00000000000E+00 0.  1.
          6    2    1    2  501    0 -0.42766926381E+02 -0.17386618369E+03  0.53340460512E+02  0.25475200157E+03  0.17319040895E+03 0.  0.
         24    2    3    3    0    0 -0.54752153077E+02 -0.82050944063E+02 -0.28953027238E+02  0.13078429604E+03  0.80846141633E+02 0.  0.
         -6    2    1    2    0  502  0.42766926381E+02  0.17386618369E+03  0.63980629373E+02  0.25693041480E+03  0.17280410091E+03 0.  0.
        -24    2    5    5    0    0  0.90307785000E+02  0.74001665160E+02  0.35707248051E+02  0.14267399533E+03  0.73818147503E+02 0.  0.
          5    1    3    3  501    0  0.11985226696E+02 -0.91815239627E+02  0.82293487749E+02  0.12396770552E+03  0.47000000000E+01 0. -1.
        -13    1    4    4    0    0 -0.48609691865E+02 -0.37004122989E+01 -0.75538386413E+01  0.49332095765E+02  0.00000000000E+00 0.  1.
         14    1    4    4    0    0 -0.61424612117E+01 -0.78350531764E+02 -0.21399188596E+02  0.81452200277E+02  0.00000000000E+00 0. -1.
         -5    1    5    5    0  502 -0.47540858619E+02  0.99864518530E+02  0.28273381322E+02  0.11425641947E+03  0.47000000000E+01 0.  1.
         13    1    6    6    0    0  0.13167581450E+02 -0.14821456656E+02  0.34041559717E+00  0.19828682795E+02  0.00000000000E+00 0. -1.
        -14    1    6    6    0    0  0.77140203550E+02  0.88823121816E+02  0.35366832453E+02  0.12284531253E+03  0.00000000000E+00 0.  1.
</event>
<event>
12    1  0.8494789E-002  0.2279588E+03  0.7818608E-02  0.1128178E+00
         21   -1    0    0  501  502  0.00000000000E+00  0.00000000000E+00  0.18287801630E+03  0.18287801630E+03  0.00000000000E+00 0. -1.
         21   -1    0    0  502  503 -0.00000000000E+00 -0.00000000000E+00 -0.32536036506E+03  0.32536036506E+03  0.00000000000E+00 0.  1.
         -6    2    1    2    0  503  0.97584865518E+02  0.11074112940E+03 -0.16231770975E+03  0.27941822343E+03  0.17303497036E+03 0.  0.
        -24    2    3    3    0    0  0.13331139466E+02  0.18585947811E+02 -0.12320972577E+03  0.14848773707E+03  0.79654345776E+02 0.  0.
          6    2    1    2  501    0 -0.97584865518E+02 -0.11074112940E+03  0.19835361002E+02  0.22882015793E+03  0.17372052098E+03 0.  0.
         24    2    5    5    0    0 -0.48835600455E+02  0.32826178702E+01 -0.50075506920E+02  0.86385873994E+02  0.50589241746E+02 0.  0.
          5    1    5    5  501    0 -0.48749265063E+02 -0.11402374727E+03  0.69910867922E+02  0.14243428393E+03  0.47000000000E+01 0. -1.
        -11    1    6    6    0    0 -0.21483919543E+02  0.21300837221E+02 -0.49951556951E+01  0.30663268672E+02  0.00000000000E+00 0.  1.
         12    1    6    6    0    0 -0.27351680911E+02 -0.18018219350E+02 -0.45080351225E+02  0.55722605322E+02  0.00000000000E+00 0. -1.
         -5    1    3    3    0  503  0.84253726052E+02  0.92155181588E+02 -0.39107983983E+02  0.13093048636E+03  0.47000000000E+01 0.  1.
         13    1    4    4    0    0 -0.14976708057E+02  0.41292471469E+02 -0.48521123381E+02  0.65449747122E+02  0.00000000000E+00 0. -1.
        -14    1    4    4    0    0  0.28307847523E+02 -0.22706523658E+02 -0.74688602391E+02  0.83037989951E+02  0.00000000000E+00 0.  1.
</event>
<event>
12    1  0.8494789E-002  0.1753377E+03  0.7818608E-02  0.1176601E+00
         21   -1    0    0  501  502  0.00000000000E+00  0.00000000000E+00  0.77126916964E+02  0.77126916964E+02  0.00000000000E+00 0.  1.
         21   -1    0    0  502  503 -0.00000000000E+00 -0.00000000000E+00 -0.53773025765E+03  0.53773025765E+03  0.00000000000E+00 0.  1.
         -6    2    1    2    0  503 -0.24026806279E+02 -0.21000510556E+02 -0.41276753900E+03  0.44846442269E+03  0.17240936259E+03 0.  0.
        -24    2    3    3    0    0 -0.22287225298E+02 -0.11628959333E+02 -0.82627662236E+02  0.11815353831E+03  0.80628623589E+02 0.  0.
          6    2    1    2  501    0  0.24026806279E+02  0.21000510556E+02 -0.47835801688E+02  0.16639275192E+03  0.15614088224E+03 0.  0.
         24    2    5    5    0    0  0.14109596172E+02 -0.41790975640E+02 -0.44815275187E+02  0.10257789961E+03  0.81044742270E+02 0.  0.
          5    1    5    5  501    0  0.99172101062E+01  0.62791486196E+02 -0.30205265018E+01  0.63814852310E+02  0.47000000000E+01 0. -1.
        -11    1    6    6    0    0  0.70580000856E+01  0.23580622295E+02 -0.33425860992E+01  0.24840168978E+02  0.00000000000E+00 0.  1.
         12    1    6    6    0    0  0.70515960867E+01 -0.65371597935E+02 -0.41472689087E+02  0.77737730634E+02  0.00000000000E+00 0. -1.
         -5    1    3    3    0  503 -0.17395809803E+01 -0.93715512228E+01 -0.33013987676E+03  0.33031088438E+03  0.47000000000E+01 0.  1.
         13    1    4    4    0    0 -0.42926047382E+02  0.16438002064E+02 -0.29486000927E+02  0.54610234447E+02  0.00000000000E+00 0. -1.
        -14    1    4    4    0    0  0.20638822084E+02 -0.28066961397E+02 -0.53141661310E+02  0.63543303863E+02  0.00000000000E+00 0.  1.
</event>
<event>
12    1  0.8494789E-002  0.1984107E+03  0.7818608E-02  0.1151196E+00
         21   -1    0    0  503  502  0.00000000000E+00  0.00000000000E+00  0.39547043844E+03  0.39547043844E+03  0.00000000000E+00 0.  1.
         21   -1    0    0  501  503 -0.00000000000E+00 -0.00000000000E+00 -0.14830239186E+03  0.14830239186E+03  0.00000000000E+00 0.  1.
          6    2    1    2  501    0 -0.24371227533E+02 -0.94261331492E+02 -0.32828764809E+02  0.20060372591E+03  0.17229327237E+03 0.  0.
         24    2    3    3    0    0 -0.61491482049E+01 -0.10717215878E+02  0.35897339216E+02  0.90799214150E+02  0.82481559077E+02 0.  0.
         -6    2    1    2    0  502  0.24371227533E+02  0.94261331492E+02  0.27999681139E+03  0.34316910439E+03  0.17288049189E+03 0.  0.
        -24    2    5    5    0    0 -0.35100450055E+02  0.58344290463E+02  0.24196924648E+03  0.26382743839E+03  0.80123050248E+02 0.  0.
          5    1    3    3  501    0 -0.18222079328E+02 -0.83544115614E+02 -0.68726104025E+02  0.10980451176E+03  0.47000000000E+01 0. -1.
        -13    1    4    4    0    0  0.10867378529E+02  0.13896330995E+02 -0.20445024149E+02  0.27003832019E+02  0.00000000000E+00 0.  1.
         14    1    4    4    0    0 -0.17016526734E+02 -0.24613546873E+02  0.56342363365E+02  0.63795382132E+02  0.00000000000E+00 0. -1.
         -5    1    5    5    0  502  0.59471677588E+02  0.35917041029E+02  0.38027564912E+02  0.79341666006E+02  0.47000000000E+01 0.  1.
         11    1    6    6    0    0 -0.49979524156E+02  0.54169857462E+02  0.11960242250E+03  0.14048866773E+03  0.00000000000E+00 0. -1.
        -12    1    6    6    0    0  0.14879074100E+02  0.41744330009E+01  0.12236682398E+03  0.12333877066E+03  0.00000000000E+00 0.  1.
</event>
<event>
12    1  0.8494789E-002  0.2500409E+03  0.7818608E-02  0.1113625E+00
         21   -1    0    0  501  502  0.00000000000E+00  0.00000000000E+00  0.13925460416E+04  0.13925460416E+04  0.00000000000E+00 0. -1.
         21   -1    0    0  502  503 -0.00000000000E+00 -0.00000000000E+00 -0.83960755875E+02  0.83960755875E+02  0.00000000000E+00 0.  1.
         -6    2    1    2    0  503 -0.98768510668E+02  0.14950357008E+03  0.11618836428E+04  0.11884839240E+04  0.17439582030E+03 0.  0.
        -24    2    3    3    0    0 -0.12803287951E+03  0.15829502772E+03  0.10146978096E+04  0.10380862761E+04  0.81004554107E+02 0.  0.
          6    2    1    2  501    0  0.98768510668E+02 -0.14950357008E+03  0.14670164291E+03  0.28802287341E+03  0.17125789737E+03 0.  0.
         24    2    5    5    0    0  0.10499535048E+03 -0.10503834129E+03  0.39291392197E+02  0.17151114841E+03  0.76257352199E+02 0.  0.
          5    1    5    5  501    0 -0.62268398171E+01 -0.44465228786E+02  0.10741025071E+03  0.11651172500E+03  0.47000000000E+01 0. -1.
        -13    1    6    6    0    0  0.64838627374E+02 -0.10296429104E+03  0.10651260767E+02  0.12214394043E+03  0.00000000000E+00 0.  1.
         14    1    6    6    0    0  0.40156723111E+02 -0.20740502543E+01  0.28640131430E+02  0.49367207981E+02  0.00000000000E+00 0. -1.
         -5    1    3    3    0  503  0.29264368845E+02 -0.87914576448E+01  0.14718583325E+03  0.15039764799E+03  0.47000000000E+01 0.  1.
         11    1    4    4    0    0 -0.86389307899E+02  0.11334952075E+03  0.85942031518E+03  0.87115699189E+03  0.00000000000E+00 0. -1.
        -12    1    4    4    0    0 -0.41643571615E+02  0.44945506968E+02  0.15527749437E+03  0.16692928416E+03  0.00000000000E+00 0.  1.
</event>
<event>
12    1  0.8494789E-002  0.2022501E+03  0.7818608E-02  0.1148069E+00
         21   -1    0    0  503  502  0.00000000000E+00  0.00000000000E+00  0.14774253875E+03  0.14774253875E+03  0.00000000000E+00 0.  1.
         21   -1    0    0  501  503 -0.00000000000E+00 -0.00000000000E+00 -0.44731917908E+03  0.44731917908E+03  0.00000000000E+00 0.  1.
          6    2    1    2  501    0 -0.64825341282E+02 -0.79979335801E+02 -0.33444346080E+03  0.39084206749E+03  0.17408639872E+03 0.  0.
         24    2    3    3    0    0 -0.94410226967E+02 -0.10320705502E+03 -0.24036929354E+03  0.28941804988E+03  0.80127543081E+02 0.  0.
         -6    2    1    2    0  502  0.64825341282E+02  0.79979335801E+02  0.34866820470E+02  0.20421965034E+03  0.17288999794E+03 0.  0.
        -24    2    5    5    0    0 -0.34653351563E+02  0.32486550716E+02  0.46895231085E+01  0.89832875571E+02  0.76103371504E+02 0.  0.
          5    1    3    3  501    0  0.29584885685E+02  0.23227719220E+02 -0.94074167267E+02  0.10142401761E+03  0.47000000000E+01 0. -1.
        -13    1    4    4    0    0 -0.43852331112E+02 -0.10148938139E+03 -0.16837799411E+03  0.20143055970E+03  0.00000000000E+00 0.  1.
         14    1    4    4    0    0 -0.50557895855E+02 -0.17176736295E+01 -0.71991299429E+02  0.87987490187E+02  0.00000000000E+00 0. -1.
         -5    1    5    5    0  502  0.99478692845E+02  0.47492785085E+02  0.30177297362E+02  0.11438677477E+03  0.47000000000E+01 0.  1.
         13    1    6    6    0    0 -0.46030647456E+02 -0.11797488948E+01 -0.15958684135E+02  0.48732862752E+02  0.00000000000E+00 0. -1.
        -14    1    6    6    0    0  0.11377295893E+02  0.33666299611E+02  0.20648207243E+02  0.41100012819E+02  0.00000000000E+00 0.  1.
</event>
<event>
12    1  0.8494789E-002  0.1741500E+03  0.7818608E-02  0.1173827E+00
         21   -1    0    0  503  502  0.00000000000E+00  0.00000000000E+00  0.33869989431E+02  0.33869989431E+02  0.00000000000E+00 0. -1.
         21   -1    0    0  501  503 -0.00000000000E+00 -0.00000000000E+00 -0.12474461487E+04  0.12474461487E+04  0.00000000000E+00 0. -1.
          6    2    1    2  501    0 -0.12002189052E+02  0.29568500700E+02 -0.95062227180E+03  0.96644241411E+03  0.17120130654E+03 0.  0.
         24    2    3    3    0    0  0.33693770516E+00 -0.26143835841E+02 -0.25727454778E+03  0.27073466304E+03  0.80146435696E+02 0.  0.
         -6    2    1    2    0  502  0.12002189052E+02 -0.29568500700E+02 -0.26295388750E+03  0.31487372405E+03  0.17024208168E+03 0.  0.
        -24    2    5    5    0    0  0.50769644223E+02 -0.59034129835E+02 -0.12229191065E+03  0.16594749866E+03  0.80750700556E+02 0.  0.
          5    1    3    3  501    0 -0.12339126757E+02  0.55712336541E+02 -0.69334772403E+03  0.69570775107E+03  0.47000000000E+01 0. -1.
        -13    1    4    4    0    0 -0.14549943890E+02  0.36878438710E+01 -0.43576682754E+01  0.15629789903E+02  0.00000000000E+00 0.  1.
         14    1    4    4    0    0  0.14886881595E+02 -0.29831679712E+02 -0.25291687950E+03  0.25510487313E+03  0.00000000000E+00 0. -1.
         -5    1    5    5    0  502 -0.38767455171E+02  0.29465629135E+02 -0.14066197684E+03  0.14892622539E+03  0.47000000000E+01 0.  1.
         13    1    6    6    0    0  0.69381424170E+02 -0.55467491144E+02 -0.11573695537E+03  0.14589539894E+03  0.00000000000E+00 0. -1.
        -14    1    6    6    0    0 -0.18611779947E+02 -0.35666386914E+01 -0.65549552812E+01  0.20052099718E+02  0.00000000000E+00 0.  1.
</event>
<event>
12    1  0.8494789E-002  0.2099172E+03  0.7818608E-02  0.1141768E+00
         21   -1    0    0  501  502  0.00000000000E+00  0.00000000000E+00  0.64158824150E+03  0.64158824150E+03  0.00000000000E+00 0. -1.
         21   -1    0    0  502  503 -0.00000000000E+00 -0.00000000000E+00 -0.69503932748E+02  0.69503932748E+02  0.00000000000E+00 0.  1.
         -6    2    1    2    0  503 -0.10171691233E+03 -0.63721727082E+02  0.33016508694E+03  0.39124699537E+03  0.17221625357E+03 0.  0.
        -24    2    3    3    0    0 -0.96255205525E+02 -0.10964011521E+01  0.29111010842E+03  0.31709078837E+03  0.80840621969E+02 0.  0.
          6    2    1    2  501    0  0.10171691233E+03  0.63721727082E+02  0.24191922180E+03  0.31984517887E+03  0.17137456000E+03 0.  0.
         24    2    5    5    0    0  0.15692427013E+02  0.77414078387E+02  0.85776582522E+02  0.14098683727E+03  0.79249444017E+02 0.  0.
          5    1    5    5  501    0  0.86024485314E+02 -0.13692351305E+02  0.15614263928E+03  0.17885834160E+03  0.47000000000E+01 0. -1.
        -13    1    6    6    0    0  0.35914439279E+02  0.67646140484E+02  0.89955997606E+02  0.11814367853E+03  0.00000000000E+00 0.  1.
         14    1    6    6    0    0 -0.20222012265E+02  0.97679379035E+01 -0.41794150846E+01  0.22843158744E+02  0.00000000000E+00 0. -1.
         -5    1    3    3    0  503 -0.54617068021E+01 -0.62625325930E+02  0.39054978525E+02  0.74156207000E+02  0.47000000000E+01 0.  1.
         11    1    4    4    0    0 -0.54911313511E+02 -0.33085585992E+02  0.98595426543E+02  0.11760512951E+03  0.00000000000E+00 0. -1.
        -12    1    4    4    0    0 -0.41343892013E+02  0.31989184840E+02  0.19251468188E+03  0.19948565886E+03  0.00000000000E+00 0.  1.
</event>
<event>
12    1  0.8494789E-002  0.1863013E+03  0.7818608E-02  0.1162496E+00
         21   -1    0    0  501  502  0.00000000000E+00  0.00000000000E+00  0.32149720243E+03  0.32149720243E+03  0.00000000000E+00 0.  1.
         21   -1    0    0  502  503 -0.00000000000E+00 -0.00000000000E+00 -0.14881368634E+03  0.14881368634E+03  0.00000000000E+00 0.  1.
         -6    2    1    2    0  503  0.11797703246E+02  0.69202820658E+02 -0.38825313562E+02  0.19030395249E+03  0.17256874911E+03 0.  0.
        -24    2    3    3    0    0 -0.30306313722E+02 -0.14313910038E+01  0.22632517421E+02  0.87536763702E+02  0.78929922229E+02 0.  0.
          6    2    1    2  501    0 -0.11797703246E+02 -0.69202820658E+02  0.21150882965E+03  0.28000693628E+03  0.16952782413E+03 0.  0.
         24    2    5    5    0    0 -0.74723308591E+01 -0.11232945485E+03  0.13176156960E+03  0.18912057367E+03  0.75708242653E+02 0.  0.
          5    1    5    5  501    0 -0.43253723867E+01  0.43126634193E+02  0.79747260047E+02  0.90886362608E+02  0.47000000000E+01 0. -1.
        -11    1    6    6    0    0  0.23253068545E+02 -0.96730618940E+02  0.11023953780E+03  0.14849334508E+03  0.00000000000E+00 0.  1.
         12    1    6    6    0    0 -0.30725399404E+02 -0.15598835911E+02  0.21522031797E+02  0.40627228591E+02  0.00000000000E+00 0. -1.
         -5    1    3    3    0  503  0.42104016968E+02  0.70634211662E+02 -0.61457830983E+02  0.10276718879E+03  0.47000000000E+01 0.  1.
         13    1    4    4    0    0  0.23818137334E+01 -0.83467238569E+01  0.45969639751E+02  0.46781926154E+02  0.00000000000E+00 0. -1.
        -14    1    4    4    0    0 -0.32688127455E+02  0.69153328531E+01 -0.23337122330E+02  0.40754837549E+02  0.00000000000E+00 0.  1.
</event>
<event>
12    1  0.8494789E-002  0.1869584E+03  0.7818608E-02  0.1161351E+00
         21   -1    0    0  501  502  0.00000000000E+00  0.00000000000E+00  0.42147284057E+02  0.42147284057E+02  0.00000000000E+00 0. -1.
         21   -1    0    0  502  503 -0.00000000000E+00 -0.00000000000E+00 -0.10467720838E+04  0.10467720838E+04  0.00000000000E+00 0.  1.
         -6    2    1    2    0  503 -0.17929816873E+02  0.70692570551E+02 -0.75228688863E+03  0.77517029832E+03  0.17214677087E+03 0.  0.
        -24    2    3    3    0    0  0.50696729260E+01 -0.17091552977E+02 -0.50780873955E+03  0.51435104240E+03  0.79808872287E+02 0.  0.
          6    2    1    2  501    0  0.17929816873E+02 -0.70692570551E+02 -0.25233791113E+03  0.31374906956E+03  0.17159586065E+03 0.  0.
         24    2    5    5    0    0  0.70052618669E+02 -0.19449758144E+02 -0.10515852773E+03  0.14935176670E+03  0.77213805677E+02 0.  0.
          5    1    5    5  501    0 -0.52122801796E+02 -0.51242812407E+02 -0.14717938339E+03  0.16439730286E+03  0.47000000000E+01 0. -1.
        -11    1    6    6    0    0  0.45367940733E+02 -0.39022858313E+01 -0.11066196080E+03  0.11966431151E+03  0.00000000000E+00 0.  1.
         12    1    6    6    0    0  0.24684677936E+02 -0.15547472313E+02  0.55034330669E+01  0.29687455190E+02  0.00000000000E+00 0. -1.
         -5    1    3    3    0  503 -0.22999489799E+02  0.87784123528E+02 -0.24447814909E+03  0.26081925591E+03  0.47000000000E+01 0.  1.
         13    1    4    4    0    0 -0.21046991200E+02 -0.39042136661E+02 -0.21259256559E+03  0.21717012505E+03  0.00000000000E+00 0. -1.
        -14    1    4    4    0    0  0.26116664126E+02  0.21950583684E+02 -0.29521617396E+03  0.29718091735E+03  0.00000000000E+00 0.  1.
</event>
<event>
12    1  0.8494789E-002  0.2126252E+03  0.7818608E-02  0.1139609E+00
         21   -1    0    0  503  502  0.00000000000E+00  0.00000000000E+00  0.11858549436E+03  0.11858549436E+03  0.00000000000E+00 0.  1.
         21   -1    0    0  501  503 -0.00000000000E+00 -0.00000000000E+00 -0.50027428054E+03  0.50027428054E+03  0.00000000000E+00 0. -1.
          6    2    1    2  501    0 -0.99209929020E+02  0.75645127339E+02 -0.34257507501E+03  0.40319619775E+03  0.17217635308E+03 0.  0.
         24    2    3    3    0    0 -0.51939432506E+02 -0.18578970353E+01 -0.77590165602E+02  0.12305282225E+03  0.80128689211E+02 0.  0.
         -6    2    1    2    0  502  0.99209929020E+02 -0.75645127339E+02 -0.39113711178E+02  0.21566357715E+03  0.17151122646E+03 0.  0.
        -24    2    5    5    0    0  0.55863265866E+01 -0.86274290059E+02 -0.30949143390E+02  0.12096876103E+03  0.78747263436E+02 0.  0.
          5    1    3    3  501    0 -0.47270496514E+02  0.77503024374E+02 -0.26498490940E+03  0.28014337550E+03  0.47000000000E+01 0. -1.
        -13    1    4    4    0    0  0.43590558633E+01 -0.31442648764E+02 -0.22459862101E+02  0.38885562037E+02  0.00000000000E+00 0.  1.
         14    1    4    4    0    0 -0.56298488369E+02  0.29584751728E+02 -0.55130303501E+02  0.84167260212E+02  0.00000000000E+00 0. -1.
         -5    1    5    5    0  502  0.93623602433E+02  0.10629162720E+02 -0.81645677882E+01  0.94694816120E+02  0.47000000000E+01 0.  1.
         11    1    6    6    0    0 -0.29664247922E+02 -0.87340151332E+01 -0.19269181049E+01  0.30983279983E+02  0.00000000000E+00 0. -1.
        -12    1    6    6    0    0  0.35250574509E+02 -0.77540274926E+02 -0.29022225285E+02  0.89985481047E+02  0.00000000000E+00 0.  1.
</event>
<event>
12    1  0.8494789E-002  0.1853035E+03  0.7818608E-02  0.1163067E+00
         21   -1    0    0  503  502  0.00000000000E+00  0.00000000000E+00  0.19583433385E+02  0.19583433385E+02  0.00000000000E+00 0. -1.
         21   -1    0    0  501  503 -0.00000000000E+00 -0.00000000000E+00 -0.17484129505E+04  0.17484129505E+04  0.00000000000E+00 0. -1.
          6    2    1    2  501    0  0.40399098970E+02  0.51248043534E+02 -0.92388889543E+03  0.94228874907E+03  0.17343282954E+03 0.  0.
         24    2    3    3    0    0 -0.65454395856E+01  0.66801071858E+02 -0.32650053830E+03  0.34283847955E+03  0.80189747293E+02 0.  0.
         -6    2    1    2    0  502 -0.40399098970E+02 -0.51248043534E+02 -0.80494062166E+03  0.82570763479E+03  0.17206174644E+03 0.  0.
        -24    2    5    5    0    0  0.39019101097E+02 -0.50734692943E+02 -0.49830311983E+03  0.50891722844E+03  0.81204968111E+02 0.  0.
          5    1    3    3  501    0  0.46944538555E+02 -0.15553028324E+02 -0.59738835713E+03  0.59945026952E+03  0.47000000000E+01 0. -1.
        -13    1    4    4    0    0 -0.11404876855E+02 -0.59903585506E+01 -0.16642258380E+03  0.16692043617E+03  0.00000000000E+00 0.  1.
         14    1    4    4    0    0  0.48594372696E+01  0.72791430409E+02 -0.16007795450E+03  0.17591804339E+03  0.00000000000E+00 0. -1.
         -5    1    5    5    0  502 -0.79418200067E+02 -0.51335059103E+00 -0.30663750182E+03  0.31679040635E+03  0.47000000000E+01 0.  1.
         13    1    6    6    0    0 -0.18149965579E+02  0.13272578899E+01 -0.19744214315E+03  0.19827905274E+03  0.00000000000E+00 0. -1.
        -14    1    6    6    0    0  0.57169066676E+02 -0.52061950833E+02 -0.30086097669E+03  0.31063817570E+03  0.00000000000E+00 0.  1.
</event>
<event>
12    1  0.8494789E-002  0.2053174E+03  0.7818608E-02  0.1145872E+00
         21   -1    0    0  503  502  0.00000000000E+00  0.00000000000E+00  0.23814234920E+03  0.23814234920E+03  0.00000000000E+00 0. -1.
         21   -1    0    0  501  503 -0.00000000000E+00 -0.00000000000E+00 -0.17861186330E+03  0.17861186330E+03  0.00000000000E+00 0. -1.
          6    2    1    2  501    0 -0.10896352807E+03 -0.20360622479E+02  0.60238762591E+02  0.21143555657E+03  0.16967227431E+03 0.  0.
         24    2    3    3    0    0  0.42319901234E+01  0.16602404373E+02  0.12675960250E+02  0.83124213121E+02  0.80345536698E+02 0.  0.
         -6    2    1    2    0  502  0.10896352807E+03  0.20360622479E+02 -0.70827669318E+00  0.20531865592E+03  0.17282257785E+03 0.  0.
        -24    2    5    5    0    0  0.10022364945E+03  0.66493193397E+02  0.32446810439E+02  0.14764761136E+03  0.79252110099E+02 0.  0.
          5    1    3    3  501    0 -0.11319551819E+03 -0.36963026851E+02  0.47562802341E+02  0.12831134345E+03  0.47000000000E+01 0. -1.
        -13    1    4    4    0    0  0.98318490879E+01  0.22027160967E+02  0.44360404418E+02  0.50494619088E+02  0.00000000000E+00 0.  1.
         14    1    4    4    0    0 -0.55998589645E+01 -0.54247565940E+01 -0.31684444168E+02  0.32629594033E+02  0.00000000000E+00 0. -1.
         -5    1    5    5    0  502  0.87398786145E+01 -0.46132570918E+02 -0.33155087133E+02  0.57671044559E+02  0.47000000000E+01 0.  1.
         11    1    6    6    0    0  0.44367883860E+02  0.14661436579E+02  0.51053256752E+02  0.69209116927E+02  0.00000000000E+00 0. -1.
        -12    1    6    6    0    0  0.55855765592E+02  0.51831756818E+02 -0.18606446312E+02  0.78438494434E+02  0.00000000000E+00 0.  1.
</event>
<event>
12    1  0.8494789E-002  0.1801797E+03  0.7818608E-02  0.1168043E+00
         21   -1    0    0  503  502  0.00000000000E+00  0.00000000000E+00  0.12202095274E+03  0.12202095274E+03  0.00000000000E+00 0.  1.
         21   -1    0    0  501  503 -0.00000000000E+00 -0.00000000000E+00 -0.27244035368E+03  0.27244035368E+03  0.00000000000E+00 0.  1.
          6    2    1    2  501    0 -0.85425921306E+01 -0.54539822095E+02 -0.11049029628E+03  0.20991035396E+03  0.16972531647E+03 0.  0.
         24    2    3    3    0    0 -0.66755883767E+02 -0.38686168601E+02 -0.47908230045E+02  0.12285444855E+03  0.82734813496E+02 0.  0.
         -6    2    1    2    0  502  0.85425921306E+01  0.54539822095E+02 -0.39929104660E+02  0.18455095247E+03  0.17151429265E+03 0.  0.
        -24    2    5    5    0    0  0.48539931588E+02 -0.18350069945E+02 -0.32939904831E+02  0.10098264245E+03  0.80122448289E+02 0.  0.
          5    1    3    3  501    0  0.58213291636E+02 -0.15853653494E+02 -0.62582066231E+02  0.87055905405E+02  0.47000000000E+01 0. -1.
        -13    1    4    4    0    0  0.16155875428E+02  0.73409544780E+01 -0.12148230027E+02  0.21505381101E+02  0.00000000000E+00 0.  1.
         14    1    4    4    0    0 -0.82911759195E+02 -0.46027123079E+02 -0.35760000018E+02  0.10134906745E+03  0.00000000000E+00 0. -1.
         -5    1    5    5    0  502 -0.39997339458E+02  0.72889892040E+02 -0.69891998285E+01  0.83568310020E+02  0.47000000000E+01 0.  1.
         13    1    6    6    0    0  0.62429515046E+02  0.10522206405E+02 -0.24144964480E+02  0.67757955150E+02  0.00000000000E+00 0. -1.
        -14    1    6    6    0    0 -0.13889583457E+02 -0.28872276349E+02 -0.87949403515E+01  0.33224687297E+02  0.00000000000E+00 0.  1.
</event>
<event>
12    1  0.8494789E-002  0.2159927E+03  0.7818608E-02  0.1136921E+00
         21   -1    0    0  503  502  0.00000000000E+00  0.00000000000E+00  0.64019740175E+02  0.64019740175E+02  0.00000000000E+00 0. -1.
         21   -1    0    0  501  503 -0.00000000000E+00 -0.00000000000E+00 -0.12447579737E+04  0.12447579737E+04  0.00000000000E+00 0. -1.
          6    2    1    2  501    0 -0.38259779187E+01 -0.13010274365E+03 -0.10117538540E+04  0.10345358760E+04  0.17227087844E+03 0.  0.
         24    2    3    3    0    0 -0.27483491675E+02 -0.28090362697E+01 -0.34721889360E+03  0.35748922359E+03  0.80463357563E+02 0.  0.
         -6    2    1    2    0  502  0.38259779187E+01  0.13010274365E+03 -0.16898437944E+03  0.27424183783E+03  0.17237025007E+03 0.  0.
        -24    2    5    5    0    0 -0.19007415535E+02  0.71580557350E+01 -0.10680119221E+03  0.13450780863E+03  0.79204395818E+02 0.  0.
          5    1    3    3  501    0  0.23657513756E+02 -0.12729370738E+03 -0.66453496044E+03  0.67704665241E+03  0.47000000000E+01 0. -1.
        -13    1    4    4    0    0 -0.17340899588E+02 -0.31743539481E+02 -0.72074393698E+02  0.80641659980E+02  0.00000000000E+00 0.  1.
         14    1    4    4    0    0 -0.10142592088E+02  0.28934503212E+02 -0.27514449990E+03  0.27684756361E+03  0.00000000000E+00 0. -1.
         -5    1    5    5    0  502  0.22833393454E+02  0.12294468791E+03 -0.62183187231E+02  0.13973402920E+03  0.47000000000E+01 0.  1.
         13    1    6    6    0    0 -0.16309906349E+02 -0.12188589279E+01  0.87997221525E+01  0.18572392742E+02  0.00000000000E+00 0. -1.
        -14    1    6    6    0    0 -0.26975091863E+01  0.83769146628E+01 -0.11560091436E+03  0.11593541588E+03  0.00000000000E+00 0.  1.
</event>
<event>
12    1  0.8494789E-002  0.1953888E+03  0.7818608E-02  0.1154600E+00
         21   -1    0    0  501  502  0.00000000000E+00  0.00000000000E+00  0.60816723506E+03  0.60816723506E+03  0.00000000000E+00 0. -1.
         21   -1    0    0  502  503 -0.00000000000E+00 -0.00000000000E+00 -0.65241496001E+02  0.65241496001E+02  0.00000000000E+00 0.  1.
         -6    2    1    2    0  503 -0.27784721710E+02  0.78356172284E+02  0.19303370758E+03  0.27466122945E+03  0.17681939431E+03 0.  0.
        -24    2    3    3    0    0 -0.75382733683E+02  0.11912221187E+02  0.14993333589E+03  0.18214041330E+03  0.69790166890E+02 0.  0.
          6    2    1    2  501    0  0.27784721710E+02 -0.78356172284E+02  0.34989203148E+03  0.39874750161E+03  0.17223082144E+03 0.  0.
         24    2    5    5    0    0  0.57870304756E+02 -0.95331467917E+02  0.33305469932E+03  0.36003201733E+03  0.79123699458E+02 0.  0.
          5    1    5    5  501    0 -0.30085583046E+02  0.16975295633E+02  0.16837332158E+02  0.38715484282E+02  0.47000000000E+01 0. -1.
        -11    1    6    6    0    0  0.18042733545E+02  0.12224835767E+02  0.45589515885E+02  0.50531087480E+02  0.00000000000E+00 0.  1.
         12    1    6    6    0    0  0.39827571210E+02 -0.10755630368E+03  0.28746518343E+03  0.30950092985E+03  0.00000000000E+00 0. -1.
         -5    1    3    3    0  503  0.47598011973E+02  0.66443951097E+02  0.43100371692E+02  0.92520816151E+02  0.47000000000E+01 0.  1.
         13    1    4    4    0    0  0.10683121285E+01  0.24280816526E+02  0.51040975519E+02  0.56532119401E+02  0.00000000000E+00 0. -1.
        -14    1    4    4    0    0 -0.76451045811E+02 -0.12368595339E+02  0.98892360368E+02  0.12560829390E+03  0.00000000000E+00 0.  1.
</event>
<event>
12    1  0.8494789E-002  0.2600327E+03  0.7818608E-02  0.1107143E+00
         21   -1    0    0  503  502  0.00000000000E+00  0.00000000000E+00  0.14161584307E+04  0.14161584307E+04  0.00000000000E+00 0. -1.
         21   -1    0    0  501  503 -0.00000000000E+00 -0.00000000000E+00 -0.58053350172E+02  0.58053350172E+02  0.00000000000E+00 0. -1.
          6    2    1    2  501    0 -0.16325108365E+03  0.10623407931E+03  0.36825743161E+03  0.45081100816E+03  0.17228010106E+03 0.  0.
         24    2    3    3    0    0 -0.15678060774E+03  0.50502175832E+02  0.19002895014E+03  0.26390088609E+03  0.80012793104E+02 0.  0.
         -6    2    1    2    0  502  0.16325108365E+03 -0.10623407931E+03  0.98984764897E+03  0.10234007728E+04  0.17208770326E+03 0.  0.
        -24    2    5    5    0    0  0.12389970924E+03 -0.97979384639E+02  0.47614870454E+03  0.50810923766E+03  0.80661705846E+02 0.  0.
          5    1    3    3  501    0 -0.64704759049E+01  0.55731903477E+02  0.17822848147E+03  0.18691012207E+03  0.47000000000E+01 0. -1.
        -13    1    4    4    0    0 -0.82628742046E+02  0.13187925225E+02  0.14996054610E+03  0.17172534982E+03  0.00000000000E+00 0.  1.
         14    1    4    4    0    0 -0.74151865694E+02  0.37314250607E+02  0.40068404037E+02  0.92175536268E+02  0.00000000000E+00 0. -1.
         -5    1    5    5    0  502  0.39351374405E+02 -0.82546946703E+01  0.51369894443E+03  0.51529153511E+03  0.47000000000E+01 0.  1.
         11    1    6    6    0    0  0.48078297864E+02 -0.16289613003E+02  0.26008648031E+03  0.26499405929E+03  0.00000000000E+00 0. -1.
        -12    1    6    6    0    0  0.75821411377E+02 -0.81689771636E+02  0.21606222423E+03  0.24311517836E+03  0.00000000000E+00 0.  1.
</event>
<event>
12    1  0.8494789E-002  0.2213254E+03  0.7818608E-02  0.1133366E+00
         21   -1    0    0  503  502  0.00000000000E+00  0.00000000000E+00  0.12573439405E+04  0.12573439405E+04  0.00000000000E+00 0. -1.
         21   -1    0    0  501  503 -0.00000000000E+00 -0.00000000000E+00 -0.46520889588E+02  0.46520889588E+02  0.00000000000E+00 0. -1.
          6    2    1    2  501    0  0.11146929321E+03 -0.84820181920E+02  0.33788680927E+03  0.40392130433E+03  0.17136235767E+03 0.  0.
         24    2    3    3    0    0  0.74518280116E+02 -0.90679852524E+02  0.12891681052E+03  0.19157662348E+03  0.79411893972E+02 0.  0.
         -6    2    1    2    0  502 -0.11146929321E+03  0.84820181920E+02  0.87293624161E+03  0.89994352573E+03  0.16810949106E+03 0.  0.
        -24    2    5    5    0    0 -0.37006487087E+02 -0.79978531945E+01  0.23831533179E+03  0.25424569677E+03  0.80082652402E+02 0.  0.
          5    1    3    3  501    0  0.36951013098E+02  0.58596706049E+01  0.20896999875E+03  0.21234468085E+03  0.47000000000E+01 0. -1.
        -11    1    4    4    0    0  0.90266403370E+01 -0.46815585122E+02  0.93928232292E+02  0.10533609100E+03  0.00000000000E+00 0.  1.
         12    1    4    4    0    0  0.65491639779E+02 -0.43864267402E+02  0.34988578228E+02  0.86240532478E+02  0.00000000000E+00 0. -1.
         -5    1    5    5    0  502 -0.74462806128E+02  0.92818035114E+02  0.63462090982E+03  0.64569782896E+03  0.47000000000E+01 0.  1.
         13    1    6    6    0    0 -0.42003674505E+02  0.44011698511E+01  0.23708917989E+03  0.24082142386E+03  0.00000000000E+00 0. -1.
        -14    1    6    6    0    0  0.49971874187E+01 -0.12399023046E+02  0.12261518977E+01  0.13424272906E+02  0.00000000000E+00 0.  1.
</event>
<event>
12    1  0.8494789E-002  0.2061874E+03  0.7818608E-02  0.1144656E+00
         21   -1    0    0  501  502  0.00000000000E+00  0.00000000000E+00  0.10013800938E+03  0.10013800938E+03  0.00000000000E+00 0.  1.
         21   -1    0    0  502  503 -0.00000000000E+00 -0.00000000000E+00 -0.56660739745E+03  0.56660739745E+03  0.00000000000E+00 0.  1.
         -6    2    1    2    0  503  0.91418933655E+02 -0.65996427128E+02 -0.40029516097E+03  0.45019913835E+03  0.17242418176E+03 0.  0.
        -24    2    3    3    0    0  0.83492686223E+02  0.19656460487E+02 -0.25755219276E+03  0.28347515229E+03  0.81655525722E+02 0.  0.
          6    2    1    2  501    0 -0.91418933655E+02  0.65996427128E+02 -0.66174227100E+02  0.21654626848E+03  0.17262765779E+03 0.  0.
         24    2    5    5    0    0 -0.38367251892E+02  0.10359791045E+03 -0.68619684298E+02  0.15130500280E+03  0.77330264015E+02 0.  0.
          5    1    5    5  501    0 -0.53051681764E+02 -0.37601483322E+02  0.24454571987E+01  0.65241265675E+02  0.47000000000E+01 0. -1.
        -11    1    6    6    0    0 -0.53643766147E+02  0.76507552627E+02 -0.74683094341E+02  0.11961866006E+03  0.00000000000E+00 0.  1.
         12    1    6    6    0    0  0.15276514255E+02  0.27090357824E+02  0.60634100421E+01  0.31686342738E+02  0.00000000000E+00 0. -1.
         -5    1    3    3    0  503  0.79262474324E+01 -0.85652887615E+02 -0.14274296821E+03  0.16672398606E+03  0.47000000000E+01 0.  1.
         13    1    4    4    0    0  0.80808073554E+02  0.20598390659E+02 -0.12134007789E+03  0.14723332826E+03  0.00000000000E+00 0. -1.
        -14    1    4    4    0    0  0.26846126691E+01 -0.94193017275E+00 -0.13621211487E+03  0.13624182403E+03  0.00000000000E+00 0.  1.
</event>
<event>
12    1  0.8494789E-002  0.2018142E+03  0.7818608E-02  0.1148512E+00
         21   -1    0    0  501  502  0.00000000000E+00  0.00000000000E+00  0.11802989016E+03  0.11802989016E+03  0.00000000000E+00 0. -1.
         21   -1    0    0  502  503 -0.00000000000E+00 -0.00000000000E+00 -0.34604545527E+03  0.34604545527E+03  0.00000000000E+00 0.  1.
         -6    2    1    2    0  503 -0.24607439650E+02 -0.10025107878E+03 -0.13652611200E+03  0.24249176003E+03  0.17177621937E+03 0.  0.
        -24    2    3    3    0    0 -0.35915969651E+02  0.12881956169E+02 -0.61586744728E+02  0.10623844735E+03  0.77703146007E+02 0.  0.
          6    2    1    2  501    0  0.24607439650E+02  0.10025107878E+03 -0.91489453104E+02  0.22158358540E+03  0.17341614806E+03 0.  0.
         24    2    5    5    0    0 -0.30715889561E+01  0.37130678566E+02 -0.11842666639E+03  0.14743497107E+03  0.79524043114E+02 0.  0.
          5    1    5    5  501    0  0.27679028606E+02  0.63120400211E+02  0.26937213284E+02  0.74148614329E+02  0.47000000000E+01 0. -1.
        -13    1    6    6    0    0  0.33579633044E+02  0.14263685137E+02 -0.24206957780E+02  0.43783801503E+02  0.00000000000E+00 0.  1.
         14    1    6    6    0    0 -0.36651222000E+02  0.22866993429E+02 -0.94219708607E+02  0.10365116957E+03  0.00000000000E+00 0. -1.
         -5    1    3    3    0  503  0.11308530001E+02 -0.11313303495E+03 -0.74939367275E+02  0.13625331267E+03  0.47000000000E+01 0.  1.
         11    1    4    4    0    0  0.14914330946E+02  0.27860902418E+02 -0.12431469849E+02  0.33958925097E+02  0.00000000000E+00 0. -1.
        -12    1    4    4    0    0 -0.50830300597E+02 -0.14978946248E+02 -0.49155274879E+02  0.72279522258E+02  0.00000000000E+00 0.  1.
</event>
<event>
12    1  0.8494789E-002  0.2119918E+03  0.7818608E-02  0.1140280E+00
         21   -1    0    0  501  502  0.00000000000E+00  0.00000000000E+00  0.17688176458E+03  0.17688176458E+03  0.00000000000E+00 0. -1.
         21   -1    0    0  502  503 -0.00000000000E+00 -0.00000000000E+00 -0.25417010517E+03  0.25417010517E+03  0.00000000000E+00 0.  1.
         -6    2    1    2    0  503 -0.91513329537E+02 -0.81127128782E+02 -0.20301122356E+02  0.21153404148E+03  0.17140074279E+03 0.  0.
        -24    2    3    3    0    0 -0.74797468526E+02 -0.12230389348E+03 -0.24610969187E+01  0.16341645148E+03  0.78396275153E+02 0.  0.
          6    2    1    2  501    0  0.91513329537E+02  0.81127128782E+02 -0.56987218233E+02  0.21951782826E+03  0.17315956045E+03 0.  0.
         24    2    5    5    0    0 -0.10389334189E+02  0.48502740708E+01 -0.45084334801E+02  0.91587847127E+02  0.78894062346E+02 0.  0.
          5    1    5    5  501    0  0.10190266373E+03  0.76276854712E+02 -0.11902883432E+02  0.12792998113E+03  0.47000000000E+01 0. -1.
        -11    1    6    6    0    0  0.31773183190E+02  0.14091561186E+02 -0.29845676304E+02  0.45813444105E+02  0.00000000000E+00 0.  1.
         12    1    6    6    0    0 -0.42162517379E+02 -0.92412871153E+01 -0.15238658497E+02  0.45774403022E+02  0.00000000000E+00 0. -1.
         -5    1    3    3    0  503 -0.16715861011E+02  0.41176764697E+02 -0.17840025437E+02  0.48117590005E+02  0.47000000000E+01 0.  1.
         11    1    4    4    0    0 -0.36918873244E+01 -0.12973532312E+02  0.26576796535E+02  0.29803836778E+02  0.00000000000E+00 0. -1.
        -12    1    4    4    0    0 -0.71105581202E+02 -0.10933036117E+03 -0.29037893453E+02  0.13361261470E+03  0.00000000000E+00 0.  1.
</event>
<event>
12    1  0.8494789E-002  0.2244217E+03  0.7818608E-02  0.1130969E+00
         21   -1    0    0  501  502  0.00000000000E+00  0.00000000000E+00  0.35084035946E+03  0.35084035946E+03  0.00000000000E+00 0.  1.
         21   -1    0    0  502  503 -0.00000000000E+00 -0.00000000000E+00 -0.23809482429E+03  0.23809482429E+03  0.00000000000E+00 0.  1.
         -6    2    1    2    0  503  0.62636597233E+02 -0.12968657884E+03 -0.13020307966E+03  0.25945703569E+03  0.17211379774E+03 0.  0.
        -24    2    3    3    0    0  0.94398376619E+02 -0.40472758307E+02 -0.72433432665E+02  0.14842848748E+03  0.78964017465E+02 0.  0.
          6    2    1    2  501    0 -0.62636597233E+02  0.12968657884E+03  0.24294861483E+03  0.32947814806E+03  0.16967577480E+03 0.  0.
         24    2    5    5    0    0 -0.13556987581E+02 -0.34511679414E+01  0.96646331712E+02  0.12561320319E+03  0.79009245719E+02 0.  0.
          5    1    5    5  501    0 -0.49079609652E+02  0.13313774678E+03  0.14630228312E+03  0.20386494487E+03  0.47000000000E+01 0. -1.
        -13    1    6    6    0    0  0.49848261257E+01  0.18084723139E+02  0.95336791906E+02  0.97164857811E+02  0.00000000000E+00 0.  1.
         14    1    6    6    0    0 -0.18541813707E+02 -0.21535891080E+02  0.13095398063E+01  0.28448345377E+02  0.00000000000E+00 0. -1.
         -5    1    3    3    0  503 -0.31761779385E+02 -0.89213820532E+02 -0.57769646999E+02  0.11102854821E+03  0.47000000000E+01 0.  1.
         13    1    4    4    0    0  0.57000126227E+02 -0.91169575216E+01 -0.80402540601E+02  0.98978289738E+02  0.00000000000E+00 0. -1.
        -14    1    4    4    0    0  0.37398250392E+02 -0.31355800786E+02  0.79691079360E+01  0.49450197740E+02  0.00000000000E+00 0.  1.
</event>
<event>
12    1  0.8494789E-002  0.1826504E+03  0.7818608E-02  0.1165289E+00
         21   -1    0    0  501  502  0.00000000000E+00  0.00000000000E+00  0.39493587686E+03  0.39493587686E+03  0.00000000000E+00 0.  1.
         21   -1    0    0  502  503 -0.00000000000E+00 -0.00000000000E+00 -0.14866465557E+03  0.14866465557E+03  0.00000000000E+00 0.  1.
         -6    2    1    2    0  503 -0.48979606867E+02  0.37209688150E+02 -0.55517874970E+02  0.19090158393E+03  0.17198144529E+03 0.  0.
        -24    2    3    3    0    0 -0.58786878904E+02 -0.16457635337E+02  0.17348888293E+02  0.99753246675E+02  0.76960869310E+02 0.  0.
          6    2    1    2  501    0  0.48979606867E+02 -0.37209688150E+02  0.30178909626E+03  0.35269894851E+03  0.17186135947E+03 0.  0.
         24    2    5    5    0    0  0.41155421509E+02 -0.69248489859E+00  0.30221890288E+03  0.31505590475E+03  0.78928509442E+02 0.  0.
          5    1    5    5  501    0  0.78241853582E+01 -0.36517203252E+02 -0.42980662451E+00  0.37643043761E+02  0.47000000000E+01 0. -1.
        -13    1    6    6    0    0  0.59666453891E+02  0.77822764954E+01  0.15221398523E+03  0.16367573689E+03  0.00000000000E+00 0.  1.
         14    1    6    6    0    0 -0.18511032382E+02 -0.84747613940E+01  0.15000491766E+03  0.15138016786E+03  0.00000000000E+00 0. -1.
         -5    1    3    3    0  503  0.98072720376E+01  0.53667323487E+02 -0.72866763263E+02  0.91148337251E+02  0.47000000000E+01 0.  1.
         11    1    4    4    0    0  0.82776091995E+01  0.17182209611E+02 -0.78236819808E+01  0.20614488617E+02  0.00000000000E+00 0. -1.
        -12    1    4    4    0    0 -0.67064488104E+02 -0.33639844948E+02  0.25172570274E+02  0.79138758058E+02  0.00000000000E+00 0.  1.
</event>
<event>
12    1  0.8494789E-002  0.1919851E+03  0.7818608E-02  0.1156699E+00
         21   -1    0    0  503  502  0.00000000000E+00  0.00000000000E+00  0.28235362598E+03  0.28235362598E+03  0.00000000000E+00 0.  1.
         21   -1    0    0  501  503 -0.00000000000E+00 -0.00000000000E+00 -0.14637200492E+03  0.14637200492E+03  0.00000000000E+00 0.  1.
          6    2    1    2  501    0 -0.83810901473E+02 -0.93301044135E+01 -0.26287645769E+01  0.19193223987E+03  0.17239418855E+03 0.  0.
         24    2    3    3    0    0 -0.55695296722E+02  0.27364272745E+01 -0.72813702342E+02  0.11522432694E+03  0.69752105045E+02 0.  0.
         -6    2    1    2    0  502  0.83810901473E+02  0.93301044135E+01  0.13861038564E+03  0.23679339103E+03  0.17247304999E+03 0.  0.
        -24    2    5    5    0    0  0.56046255462E+02 -0.43651334844E+02  0.25303773917E+02  0.10858111886E+03  0.78121422246E+02 0.  0.
          5    1    3    3  501    0 -0.28115604751E+02 -0.12066531688E+02  0.70184937765E+02  0.76707912933E+02  0.47000000000E+01 0. -1.
        -11    1    4    4    0    0  0.15241375459E+01 -0.24442434360E+02 -0.30184922776E+02  0.38870106196E+02  0.00000000000E+00 0.  1.
         12    1    4    4    0    0 -0.57219434267E+02  0.27178861635E+02 -0.42628779566E+02  0.76354220741E+02  0.00000000000E+00 0. -1.
         -5    1    5    5    0  502  0.27764646011E+02  0.52981439258E+02  0.11330661173E+03  0.12821227217E+03  0.47000000000E+01 0.  1.
         11    1    6    6    0    0 -0.67297820550E+01 -0.10769248711E+02  0.34834055966E+02  0.37076652213E+02  0.00000000000E+00 0. -1.
        -12    1    6    6    0    0  0.62776037517E+02 -0.32882086133E+02 -0.95302820483E+01  0.71504466648E+02  0.00000000000E+00 0.  1.
</event>
<event>
12    1  0.8494789E-002  0.2751353E+03  0.7818608E-02  0.1098623E+00
         21   -1    0    0  503  502  0.00000000000E+00  0.00000000000E+00  0.19047460141E+03  0.19047460141E+03  0.00000000000E+00 0. -1.
         21   -1    0    0  501  503 -0.00000000000E+00 -0.00000000000E+00 -0.48950997322E+03  0.48950997322E+03  0.00000000000E+00 0.  1.
          6    2    1    2  501    0 -0.73658294758E+02  0.20046811044E+03 -0.29861213101E+03  0.40484895914E+03  0.17064720110E+03 0.  0.
         24    2    3    3    0    0 -0.31612802895E+02  0.15337340638E+03 -0.29379343881E+03  0.34135845332E+03  0.75420407517E+02 0.  0.
         -6    2    1    2    0  502  0.73658294758E+02 -0.20046811044E+03 -0.42324079679E+00  0.27513561549E+03  0.17345437466E+03 0.  0.
        -24    2    5    5    0    0  0.87718320695E+02 -0.60200482560E+02 -0.23614008429E+02  0.13219299251E+03  0.74824888836E+02 0.  0.
          5    1    3    3  501    0 -0.42045491863E+02  0.47094704053E+02 -0.48186922034E+01  0.63490505829E+02  0.47000000000E+01 0. -1.
        -13    1    4    4    0    0 -0.47217849519E+02  0.88620536232E+02 -0.12800989446E+03  0.16269498405E+03  0.00000000000E+00 0.  1.
         14    1    4    4    0    0  0.15605046623E+02  0.64752870151E+02 -0.16578354435E+03  0.17866346927E+03  0.00000000000E+00 0. -1.
         -5    1    5    5    0  502 -0.14060025937E+02 -0.14026762788E+03  0.23190767633E+02  0.14294262297E+03  0.47000000000E+01 0.  1.
         11    1    6    6    0    0  0.69854229651E+02 -0.78073930135E+02 -0.17822220226E+02  0.10626750915E+03  0.00000000000E+00 0. -1.
        -12    1    6    6    0    0  0.17864091044E+02  0.17873447575E+02 -0.57917882036E+01  0.25925483364E+02  0.00000000000E+00 0.  1.
</event>
<event>
12    1  0.8494789E-002  0.2093143E+03  0.7818608E-02  0.1142342E+00
         21   -1    0    0  503  502  0.00000000000E+00  0.00000000000E+00  0.21839282269E+02  0.21839282269E+02  0.00000000000E+00 0. -1.
         21   -1    0    0  501  503 -0.00000000000E+00 -0.00000000000E+00 -0.27010091060E+04  0.27010091060E+04  0.00000000000E+00 0.  1.
          6    2    1    2  501    0  0.67662630372E+02  0.94957780961E+02 -0.20328687942E+04  0.20434976106E+04  0.17242893621E+03 0.  0.
         24    2    3    3    0    0  0.69706039648E+02  0.65088687700E+02 -0.79012849708E+03  0.80038785094E+03  0.84983532610E+02 0.  0.
         -6    2    1    2    0  502 -0.67662630372E+02 -0.94957780961E+02 -0.64630102946E+03  0.67935077768E+03  0.17383108681E+03 0.  0.
        -24    2    5    5    0    0 -0.71595445915E+02 -0.71848937827E+02 -0.64237662697E+03  0.65512317763E+03  0.79059909278E+02 0.  0.
          5    1    3    3  501    0 -0.20434092756E+01  0.29869093262E+02 -0.12427402972E+04  0.12431097596E+04  0.47000000000E+01 0. -1.
        -13    1    4    4    0    0  0.80389039377E+02  0.28445392376E+02 -0.63153063288E+03  0.63726170312E+03  0.00000000000E+00 0.  1.
         14    1    4    4    0    0 -0.10682999729E+02  0.36643295324E+02 -0.15859786419E+03  0.16312614782E+03  0.00000000000E+00 0. -1.
         -5    1    5    5    0  502  0.39328155427E+01 -0.23108843134E+02 -0.39244024909E+01  0.24227600046E+02  0.47000000000E+01 0.  1.
         11    1    6    6    0    0 -0.60111102933E+02 -0.20038130471E+02 -0.20581324557E+03  0.21534614791E+03  0.00000000000E+00 0. -1.
        -12    1    6    6    0    0 -0.11484342982E+02 -0.51810807356E+02 -0.43656338140E+03  0.43977702972E+03  0.00000000000E+00 0.  1.
</event>
<event>
12    1  0.8494789E-002  0.1782638E+03  0.7818608E-02  0.1169809E+00
         21   -1    0    0  503  502  0.00000000000E+00  0.00000000000E+00  0.72546809962E+02  0.72546809962E+02  0.00000000000E+00 0. -1.
         21   -1    0    0  501  503 -0.00000000000E+00 -0.00000000000E+00 -0.54649939470E+03  0.54649939470E+03  0.00000000000E+00 0. -1.
          6    2    1    2  501    0  0.31150895430E+02  0.32326375403E+02 -0.37616954989E+03  0.41572501562E+03  0.17119692029E+03 0.  0.
         24    2    3    3    0    0  0.19075150339E+02 -0.36349286948E+02 -0.29604518593E+03  0.30940392684E+03  0.80018159273E+02 0.  0.
         -6    2    1    2    0  502 -0.31150895430E+02 -0.32326375403E+02 -0.97783034852E+02  0.20332118904E+03  0.17251843721E+03 0.  0.
        -24    2    5    5    0    0 -0.59034631736E+02  0.76100194634E+01 -0.11421252212E+03  0.15170300971E+03  0.80164223991E+02 0.  0.
          5    1    3    3  501    0  0.12075745091E+02  0.68675662351E+02 -0.80124363963E+02  0.10632108878E+03  0.47000000000E+01 0. -1.
        -11    1    4    4    0    0 -0.21170956613E+02 -0.68443856192E+01 -0.23633594689E+02  0.32459233145E+02  0.00000000000E+00 0.  1.
         12    1    4    4    0    0  0.40246106951E+02 -0.29504901329E+02 -0.27241159124E+03  0.27694469370E+03  0.00000000000E+00 0. -1.
         -5    1    5    5    0  502  0.27883736306E+02 -0.39936394866E+02  0.16429487264E+02  0.51618179327E+02  0.47000000000E+01 0.  1.
         11    1    6    6    0    0 -0.39054821647E+02  0.11213388310E+02 -0.53733177398E+01  0.40986482098E+02  0.00000000000E+00 0. -1.
        -12    1    6    6    0    0 -0.19979810089E+02 -0.36033688469E+01 -0.10883920438E+03  0.11071652762E+03  0.00000000000E+00 0.  1.
</event>
<event>
12    1  0.8494789E-002  0.2019326E+03  0.7818608E-02  0.1148733E+00
         21   -1    0    0  503  502  0.00000000000E+00  0.00000000000E+00  0.11190736272E+03  0.11190736272E+03  0.00000000000E+00 0. -1.
         21   -1    0    0  501  503 -0.00000000000E+00 -0.00000000000E+00 -0.69851565796E+03  0.69851565796E+03  0.00000000000E+00 0. -1.
          6    2    1    2  501    0 -0.92737622540E+02  0.44904169645E+02 -0.57465289334E+03  0.60813678145E+03  0.17025788099E+03 0.  0.
         24    2    3    3    0    0 -0.84108678212E+02 -0.29886735758E+02 -0.40205348840E+03  0.41977334869E+03  0.81210652118E+02 0.  0.
         -6    2    1    2    0  502  0.92737622540E+02 -0.44904169645E+02 -0.11955401893E+02  0.20228623924E+03  0.17366674945E+03 0.  0.
        -24    2    5    5    0    0 -0.32192738111E+02  0.12363063359E+02 -0.17127906917E+02  0.64678187885E+02  0.51968115899E+02 0.  0.
          5    1    3    3  501    0 -0.86289443286E+01  0.74790905403E+02 -0.17259940495E+03  0.18836343276E+03  0.47000000000E+01 0. -1.
        -11    1    4    4    0    0  0.73993083786E+01 -0.27984503127E+02 -0.86574106239E+02  0.91285037387E+02  0.00000000000E+00 0.  1.
         12    1    4    4    0    0 -0.91507986590E+02 -0.19022326319E+01 -0.31547938216E+03  0.32848831131E+03  0.00000000000E+00 0. -1.
         -5    1    5    5    0  502  0.12493036065E+03 -0.57267233003E+02  0.51725050242E+01  0.13760805135E+03  0.47000000000E+01 0.  1.
         13    1    6    6    0    0  0.14029922274E+02 -0.14970333688E+01 -0.41651409628E+01  0.14711499827E+02  0.00000000000E+00 0. -1.
        -14    1    6    6    0    0 -0.46222660385E+02  0.13860096727E+02 -0.12962765955E+02  0.49966688058E+02  0.00000000000E+00 0.  1.
</event>
<event>
12    1  0.8494789E-002  0.3379197E+03  0.7818608E-02  0.1067729E+00
         21   -1    0    0  503  502  0.00000000000E+00  0.00000000000E+00  0.34176204640E+03  0.34176204640E+03  0.00000000000E+00 0.  1.
         21   -1    0    0  501  503 -0.00000000000E+00 -0.00000000000E+00 -0.43193718728E+03  0.43193718728E+03  0.00000000000E+00 0.  1.
          6    2    1    2  501    0  0.24076861734E+03 -0.16318586762E+03 -0.22953835218E+03  0.40816967519E+03  0.17121762216E+03 0.  0.
         24    2    3    3    0    0  0.19979115351E+03 -0.13729282783E+03 -0.10999326414E+03  0.27908551611E+03  0.83811583641E+02 0.  0.
         -6    2    1    2    0  502 -0.24076861734E+03  0.16318586762E+03  0.13936321130E+03  0.36552955848E+03  0.17201918199E+03 0.  0.
        -24    2    5    5    0    0 -0.14233131562E+03  0.25484452555E+02  0.97642020347E+02  0.19113251190E+03  0.78038530488E+02 0.  0.
          5    1    3    3  501    0  0.40977463824E+02 -0.25893039797E+02 -0.11954508804E+03  0.12908415908E+03  0.47000000000E+01 0. -1.
        -13    1    4    4    0    0  0.45951016371E+02 -0.63512959830E+02 -0.67028473277E+02  0.10314168993E+03  0.00000000000E+00 0.  1.
         14    1    4    4    0    0  0.15384013714E+03 -0.73779867996E+02 -0.42964790866E+02  0.17594382618E+03  0.00000000000E+00 0. -1.
         -5    1    5    5    0  502 -0.98437301720E+02  0.13770141507E+03  0.41721190957E+02  0.17439704658E+03  0.47000000000E+01 0.  1.
         11    1    6    6    0    0 -0.22714175302E+02 -0.12583892422E+02 -0.78877660843E+01  0.27138624909E+02  0.00000000000E+00 0. -1.
        -12    1    6    6    0    0 -0.11961714032E+03  0.38068344977E+02  0.10552978643E+03  0.16399388699E+03  0.00000000000E+00 0.  1.
</event>
<event>
12    1  0.8494789E-002  0.2031970E+03  0.7818608E-02  0.1147260E+00
         21   -1    0    0  503  502  0.00000000000E+00  0.00000000000E+00  0.12917985072E+04  0.12917985072E+04  0.00000000000E+00 0. -1.
         21   -1    0    0  501  503 -0.00000000000E+00 -0.00000000000E+00 -0.55207445576E+02  0.55207445576E+02  0.00000000000E+00 0.  1.
          6    2    1    2  501    0 -0.59421894768E+02 -0.90161708907E+02  0.17910601975E+03  0.27017558685E+03  0.17104322872E+03 0.  0.
         24    2    3    3    0    0 -0.93071723562E+01 -0.10460675194E+03  0.17272486947E+03  0.21742187846E+03  0.80057458681E+02 0.  0.
         -6    2    1    2    0  502  0.59421894768E+02  0.90161708907E+02  0.10574850419E+04  0.10768303659E+04  0.17213055467E+03 0.  0.
        -24    2    5    5    0    0  0.13920075480E+02  0.11624370512E+03  0.61201218251E+03  0.62825613069E+03  0.80252643098E+02 0.  0.
          5    1    3    3  501    0 -0.50114722412E+02  0.14445043033E+02  0.63811502796E+01  0.52753708396E+02  0.47000000000E+01 0. -1.
        -13    1    4    4    0    0 -0.85579070329E+01 -0.61518371921E+02  0.31250438232E+02  0.69529402027E+02  0.00000000000E+00 0.  1.
         14    1    4    4    0    0 -0.74926532331E+00 -0.43088380019E+02  0.14147443123E+03  0.14789247643E+03  0.00000000000E+00 0. -1.
         -5    1    5    5    0  502  0.45501819288E+02 -0.26081996215E+02  0.44547285937E+03  0.44857423524E+03  0.47000000000E+01 0.  1.
         11    1    6    6    0    0  0.30004787894E+02  0.11392553642E+03  0.44071046192E+03  0.45618529831E+03  0.00000000000E+00 0. -1.
        -12    1    6    6    0    0 -0.16084712414E+02  0.23181687053E+01  0.17130172059E+03  0.17207083239E+03  0.00000000000E+00 0.  1.
</event>
<event>
12    1  0.8494789E-002  0.1741262E+03  0.7818608E-02  0.1174489E+00
         21   -1    0    0  503  502  0.00000000000E+00  0.00000000000E+00  0.26862900174E+03  0.26862900174E+03  0.00000000000E+00 0. -1.
         21   -1    0    0  501  503 -0.00000000000E+00 -0.00000000000E+00 -0.16926779840E+03  0.16926779840E+03  0.00000000000E+00 0. -1.
          6    2    1    2  501    0  0.94474290150E+00  0.12705027522E+01 -0.79478453101E+02  0.18829000826E+03  0.17068625014E+03 0.  0.
         24    2    3    3    0    0 -0.15711579476E+02 -0.37696360523E+02  0.30715849484E+01  0.95379038557E+02  0.86138592023E+02 0.  0.
         -6    2    1    2    0  502 -0.94474290150E+00 -0.12705027522E+01  0.17883965644E+03  0.24960679188E+03  0.17411898552E+03 0.  0.
        -24    2    5    5    0    0 -0.10617078483E+02 -0.68428797887E+02  0.11689950537E+03  0.15761514554E+03  0.79886275497E+02 0.  0.
          5    1    3    3  501    0  0.16656322378E+02  0.38966863275E+02 -0.82550038049E+02  0.92910969700E+02  0.47000000000E+01 0. -1.
        -11    1    4    4    0    0 -0.35490641392E+02 -0.70811203346E+01  0.32416505592E+02  0.48585571175E+02  0.00000000000E+00 0.  1.
         12    1    4    4    0    0  0.19779061916E+02 -0.30615240188E+02 -0.29344920644E+02  0.46793467382E+02  0.00000000000E+00 0. -1.
         -5    1    5    5    0  502  0.96723355812E+01  0.67158295134E+02  0.61940151070E+02  0.91991646336E+02  0.47000000000E+01 0.  1.
         11    1    6    6    0    0  0.73272220327E+01 -0.27304481984E+02  0.10830084642E+03  0.11192987204E+03  0.00000000000E+00 0. -1.
        -12    1    6    6    0    0 -0.17944300515E+02 -0.41124315903E+02  0.85986589500E+01  0.45685273505E+02  0.00000000000E+00 0.  1.
</event>
<event>
12    1  0.8494789E-002  0.1791101E+03  0.7818608E-02  0.1168984E+00
         21   -1    0    0  501  502  0.00000000000E+00  0.00000000000E+00  0.13724589796E+03  0.13724589796E+03  0.00000000000E+00 0.  1.
         21   -1    0    0  502  503 -0.00000000000E+00 -0.00000000000E+00 -0.23216236775E+03  0.23216236775E+03  0.00000000000E+00 0.  1.
         -6    2    1    2    0  503 -0.41951587695E+02  0.24223980545E+02 -0.51640962409E+02  0.18640602778E+03  0.17243457093E+03 0.  0.
        -24    2    3    3    0    0 -0.48564937704E+02 -0.48937788335E+02 -0.21440795918E+02  0.10684145727E+03  0.78752326702E+02 0.  0.
          6    2    1    2  501    0  0.41951587695E+02 -0.24223980545E+02 -0.43275507373E+02  0.18300223793E+03  0.17108568790E+03 0.  0.
         24    2    5    5    0    0  0.79535961068E+02 -0.58090204882E+02 -0.28719598907E+02  0.13014894339E+03  0.80084274970E+02 0.  0.
          5    1    5    5  501    0 -0.37584373373E+02  0.33866224337E+02 -0.14555908466E+02  0.52853294542E+02  0.47000000000E+01 0. -1.
        -13    1    6    6    0    0  0.87197110755E+00 -0.45014208943E+02  0.10368771525E+01  0.45034591756E+02  0.00000000000E+00 0.  1.
         14    1    6    6    0    0  0.78663989961E+02 -0.13075995939E+02 -0.29756476060E+02  0.85114351633E+02  0.00000000000E+00 0. -1.
         -5    1    3    3    0  503  0.66133500092E+01  0.73161768880E+02 -0.30200166491E+02  0.79564570508E+02  0.47000000000E+01 0.  1.
         11    1    4    4    0    0 -0.21914247886E+02 -0.41964149966E+02  0.24476273873E+02  0.53294578763E+02  0.00000000000E+00 0. -1.
        -12    1    4    4    0    0 -0.26650689818E+02 -0.69736383693E+01 -0.45917069791E+02  0.53546878509E+02  0.00000000000E+00 0.  1.
</event>
<event>
12    1  0.8494789E-002  0.2362920E+03  0.7818608E-02  0.1122552E+00
         21   -1    0    0  501  502  0.00000000000E+00  0.00000000000E+00  0.88668764530E+03  0.88668764530E+03  0.00000000000E+00 0. -1.
         21   -1    0    0  502  503 -0.00000000000E+00 -0.00000000000E+00 -0.95534680764E+02  0.95534680764E+02  0.00000000000E+00 0. -1.
         -6    2    1    2    0  503 -0.53212217853E+02 -0.15070889506E+03  0.10788559740E+03  0.25975608674E+03  0.17403795935E+03 0.  0.
        -24    2    3    3    0    0 -0.11933911777E+02 -0.16849380254E+03  0.11716510940E+03  0.21362149203E+03  0.58085275680E+02 0.  0.
          6    2    1    2  501    0  0.53212217853E+02  0.15070889506E+03  0.68326736713E+03  0.72246623932E+03  0.17192574207E+03 0.  0.
         24    2    5    5    0    0  0.52342728951E+02  0.11661835739E+03  0.28183718692E+03  0.31956277649E+03  0.79677886747E+02 0.  0.
          5    1    5    5  501    0  0.86948890220E+00  0.34090537674E+02  0.40143018021E+03  0.40290346282E+03  0.47000000000E+01 0. -1.
        -13    1    6    6    0    0  0.67466171909E+02  0.54615129367E+02  0.16134845075E+03  0.18321522663E+03  0.00000000000E+00 0.  1.
         14    1    6    6    0    0 -0.15123442958E+02  0.62003228018E+02  0.12048873617E+03  0.13634754987E+03  0.00000000000E+00 0. -1.
         -5    1    3    3    0  503 -0.41278306076E+02  0.17784907481E+02 -0.92795120002E+01  0.46134594716E+02  0.47000000000E+01 0.  1.
         13    1    4    4    0    0 -0.21343269676E+01 -0.15015701508E+03  0.12053045027E+03  0.19255979324E+03  0.00000000000E+00 0. -1.
        -14    1    4    4    0    0 -0.97995848090E+01 -0.18336787457E+02 -0.33653408699E+01  0.21061698788E+02  0.00000000000E+00 0.  1.
</event>
<event>
12    1  0.8494789E-002  0.2074687E+03  0.7818608E-02  0.1143754E+00
         21   -1    0    0  501  502  0.00000000000E+00  0.00000000000E+00  0.12042674637E+03  0.12042674637E+03  0.00000000000E+00 0.  1.
         21   -1    0    0  502  503 -0.00000000000E+00 -0.00000000000E+00 -0.38306775718E+03  0.38306775718E+03  0.00000000000E+00 0. -1.
         -6    2    1    2    0  503 -0.11046438151E+03  0.31282785080E+02 -0.19800267798E+03  0.28618973201E+03  0.17180951660E+03 0.  0.
        -24    2    3    3    0    0  0.38631048152E+01 -0.11708601476E+02 -0.10647279344E+03  0.13348464627E+03  0.79559286820E+02 0.  0.
          6    2    1    2  501    0  0.11046438151E+03 -0.31282785080E+02 -0.64638332820E+02  0.21730477154E+03  0.17280699476E+03 0.  0.
         24    2    5    5    0    0  0.14172015257E+03 -0.34978146198E+02 -0.33160356831E+02  0.17254394167E+03  0.85812179703E+02 0.  0.
          5    1    5    5  501    0 -0.31255771061E+02  0.36953611181E+01 -0.31477975989E+02  0.44760829871E+02  0.47000000000E+01 0. -1.
        -11    1    6    6    0    0  0.41543213273E+02  0.21363899853E+02  0.13305429143E+02  0.48572515177E+02  0.00000000000E+00 0.  1.
         12    1    6    6    0    0  0.10017693929E+03 -0.56342046050E+02 -0.46465785974E+02  0.12397142649E+03  0.00000000000E+00 0. -1.
         -5    1    3    3    0  503 -0.11432748632E+03  0.42991386556E+02 -0.91529884544E+02  0.15270508574E+03  0.47000000000E+01 0.  1.
         11    1    4    4    0    0 -0.25619448025E+02  0.19410439648E+02 -0.70656696479E+02  0.77624030054E+02  0.00000000000E+00 0. -1.
        -12    1    4    4    0    0  0.29482552840E+02 -0.31119041124E+02 -0.35816096960E+02  0.55860616215E+02  0.00000000000E+00 0.  1.
</event>
<event>
12    1  0.8494789E-002  0.1940854E+03  0.7818608E-02  0.1154997E+00
         21   -1    0    0  501  502  0.00000000000E+00  0.00000000000E+00  0.72438570392E+02  0.72438570392E+02  0.00000000000E+00 0. -1.
         21   -1    0    0  502  503 -0.00000000000E+00 -0.00000000000E+00 -0.52353390851E+03  0.52353390851E+03  0.00000000000E+00 0.  1.
         -6    2    1    2    0  503  0.56092928755E+02  0.72179384620E+02 -0.25588873688E+03  0.32070035242E+03  0.17033317399E+03 0.  0.
        -24    2    3    3    0    0 -0.11052451836E+02  0.23707113059E+02 -0.48489310666E+02  0.97329192158E+02  0.80234496921E+02 0.  0.
          6    2    1    2  501    0 -0.56092928755E+02 -0.72179384620E+02 -0.19520660124E+03  0.27527212647E+03  0.17120994780E+03 0.  0.
         24    2    5    5    0    0  0.33018690932E+02 -0.44200350740E+02 -0.13000931855E+03  0.16127000908E+03  0.77856842754E+02 0.  0.
          5    1    5    5  501    0 -0.89111619687E+02 -0.27979033880E+02 -0.65197282690E+02  0.11400211739E+03  0.47000000000E+01 0. -1.
        -13    1    6    6    0    0  0.33766423588E+02 -0.33641622101E+02 -0.13927305167E+03  0.14720364473E+03  0.00000000000E+00 0.  1.
         14    1    6    6    0    0 -0.74773265603E+00 -0.10558728639E+02  0.92637331268E+01  0.14066364350E+02  0.00000000000E+00 0. -1.
         -5    1    3    3    0  503  0.67145380591E+02  0.48472271561E+02 -0.20739942621E+03  0.22337116027E+03  0.47000000000E+01 0.  1.
         11    1    4    4    0    0 -0.15958269036E+01 -0.20970699996E+02  0.98645702773E+01  0.23229865875E+02  0.00000000000E+00 0. -1.
        -12    1    4    4    0    0 -0.94566249325E+01  0.44677813055E+02 -0.58353880943E+02  0.74099326283E+02  0.00000000000E+00 0.  1.
</event>
<event>
12    1  0.8494789E-002  0.2438036E+03  0.7818608E-02  0.1117308E+00
         21   -1    0    0  501  502  0.00000000000E+00  0.00000000000E+00  0.30966807169E+03  0.30966807169E+03  0.00000000000E+00 0.  1.
         21   -1    0    0  502  503 -0.00000000000E+00 -0.00000000000E+00 -0.20808018300E+03  0.20808018300E+03  0.00000000000E+00 0.  1.
         -6    2    1    2    0  503  0.84341817352E+02  0.15007566785E+03 -0.21552620625E+02  0.24461134020E+03  0.17243533299E+03 0.  0.
        -24    2    3    3    0    0  0.97133080070E+02  0.94537474685E+02 -0.67629440723E+02  0.17117244960E+03  0.79712589254E+02 0.  0.
          6    2    1    2  501    0 -0.84341817352E+02 -0.15007566785E+03  0.12314050932E+03  0.27313691448E+03  0.17263817881E+03 0.  0.
         24    2    5    5    0    0 -0.71385591175E+02 -0.22537679852E+02  0.26998339733E+02  0.11282718629E+03  0.79982585469E+02 0.  0.
          5    1    5    5  501    0 -0.12956226176E+02 -0.12753798800E+03  0.96142169582E+02  0.16030972819E+03  0.47000000000E+01 0. -1.
        -11    1    6    6    0    0 -0.41480951145E+02 -0.18176740335E+02  0.55262157751E+02  0.71449067709E+02  0.00000000000E+00 0.  1.
         12    1    6    6    0    0 -0.29904640030E+02 -0.43609395168E+01 -0.28263818017E+02  0.41378118586E+02  0.00000000000E+00 0. -1.
         -5    1    3    3    0  503 -0.12791262719E+02  0.55538193168E+02  0.46076820097E+02  0.73438890600E+02  0.47000000000E+01 0.  1.
         13    1    4    4    0    0  0.64875920853E+02  0.32366171729E+02  0.18370101123E+01  0.72524677077E+02  0.00000000000E+00 0. -1.
        -14    1    4    4    0    0  0.32257159217E+02  0.62171302957E+02 -0.69466450835E+02  0.98647772523E+02  0.00000000000E+00 0.  1.
</event>
<event>
12    1  0.8494789E-002  0.3295378E+03  0.7818608E-02  0.1071350E+00
         21   -1    0    0  501  502  0.00000000000E+00  0.00000000000E+00  0.25279880568E+03  0.25279880568E+03  0.00000000000E+00 0. -1.
         21   -1    0    0  502  503 -0.00000000000E+00 -0.00000000000E+00 -0.13470987235E+04  0.13470987235E+04  0.00000000000E+00 0.  1.
         -6    2    1    2    0  503  0.26430357038E+03 -0.96013268714E+02 -0.12074034643E+04  0.12515663465E+04  0.17181463572E+03 0.  0.
        -24    2    3    3    0    0  0.87035072552E+02 -0.75708071517E+02 -0.69062432906E+03  0.70483132297E+03  0.80736695507E+02 0.  0.
          6    2    1    2  501    0 -0.26430357038E+03  0.96013268714E+02  0.11310354652E+03  0.34833118262E+03  0.17166034914E+03 0.  0.
         24    2    5    5    0    0 -0.16954071404E+03  0.21318591815E+02  0.87343655499E+01  0.18872444832E+03  0.79637253701E+02 0.  0.
          5    1    5    5  501    0 -0.94762856342E+02  0.74694676898E+02  0.10436918097E+03  0.15960673431E+03  0.47000000000E+01 0. -1.
        -13    1    6    6    0    0 -0.12552426837E+03  0.39977826461E+02  0.31982521003E+02  0.13556345454E+03  0.00000000000E+00 0.  1.
         14    1    6    6    0    0 -0.44016445672E+02 -0.18659234646E+02 -0.23248155453E+02  0.53160993775E+02  0.00000000000E+00 0. -1.
         -5    1    3    3    0  503  0.17726849783E+03 -0.20305197197E+02 -0.51677913523E+03  0.54673502354E+03  0.47000000000E+01 0.  1.
         13    1    4    4    0    0  0.47947026816E+02 -0.65569192844E+02 -0.26185675769E+03  0.27416636916E+03  0.00000000000E+00 0. -1.
        -14    1    4    4    0    0  0.39088045736E+02 -0.10138878673E+02 -0.42876757137E+03  0.43066495381E+03  0.00000000000E+00 0.  1.
</event>
<event>
12    1  0.8494789E-002  0.1978858E+03  0.7818608E-02  0.1151761E+00
         21   -1    0    0  501  502  0.00000000000E+00  0.00000000000E+00  0.16537862168E+03  0.16537862168E+03  0.00000000000E+00 0. -1.
         21   -1    0    0  502  503 -0.00000000000E+00 -0.00000000000E+00 -0.33604916986E+03  0.33604916986E+03  0.00000000000E+00 0. -1.
         -6    2    1    2    0  503 -0.59483826220E+02  0.75279398916E+02 -0.22261797807E+03  0.29785492469E+03  0.17307073270E+03 0.  0.
        -24    2    3    3    0    0 -0.99355873242E+02  0.82158700581E+02 -0.20085477445E+03  0.25167233103E+03  0.79841594158E+02 0.  0.
          6    2    1    2  501    0  0.59483826220E+02 -0.75279398916E+02  0.51947429888E+02  0.20357286685E+03  0.17186641081E+03 0.  0.
         24    2    5    5    0    0 -0.22502143132E+01 -0.19827593564E+02 -0.30830527631E+02  0.86268669448E+02  0.78061289788E+02 0.  0.
          5    1    5    5  501    0  0.61734040534E+02 -0.55451805352E+02  0.82777957519E+02  0.11730419740E+03  0.47000000000E+01 0. -1.
        -13    1    6    6    0    0 -0.23457463146E+02 -0.99581808770E+01  0.18622308212E+02  0.31562767730E+02  0.00000000000E+00 0.  1.
         14    1    6    6    0    0  0.21207248833E+02 -0.98694126868E+01 -0.49452835843E+02  0.54705901718E+02  0.00000000000E+00 0. -1.
         -5    1    3    3    0  503  0.39872047022E+02 -0.68793016650E+01 -0.21763203615E+02  0.46182593655E+02  0.47000000000E+01 0.  1.
         11    1    4    4    0    0 -0.99207435646E+02  0.44022801528E+02 -0.11721283063E+03  0.15974658058E+03  0.00000000000E+00 0. -1.
        -12    1    4    4    0    0 -0.14843759627E+00  0.38135899053E+02 -0.83641943819E+02  0.91925750452E+02  0.00000000000E+00 0.  1.
</event>
<event>
12    1  0.8494789E-002  0.4421854E+03  0.7818608E-02  0.1030095E+00
         21   -1    0    0  501  502  0.00000000000E+00  0.00000000000E+00  0.67282993865E+03  0.67282993865E+03  0.00000000000E+00 0. -1.
         21   -1    0    0  502  503 -0.00000000000E+00 -0.00000000000E+00 -0.11540657387E+04  0.11540657387E+04  0.00000000000E+00 0. -1.
         -6    2    1    2    0  503 -0.36583819146E+03 -0.17946029207E+03 -0.10307810394E+04  0.11215391314E+04  0.17116335260E+03 0.  0.
        -24    2    3    3    0    0 -0.37568539318E+03 -0.15573492335E+03 -0.99178928818E+03  0.10746103858E+04  0.75819575509E+02 0.  0.
          6    2    1    2  501    0  0.36583819146E+03  0.17946029207E+03  0.54954523939E+03  0.70535654594E+03  0.17170995312E+03 0.  0.
         24    2    5    5    0    0  0.13268612860E+03  0.12392073901E+03  0.19728584727E+03  0.27926583294E+03  0.78139245156E+02 0.  0.
          5    1    5    5  501    0  0.23315206286E+03  0.55539553065E+02  0.35225939212E+03  0.42609071300E+03  0.47000000000E+01 0. -1.
        -11    1    6    6    0    0  0.22652280144E+02  0.68065320218E+02  0.94645759469E+02  0.11875956129E+03  0.00000000000E+00 0.  1.
         12    1    6    6    0    0  0.11003384846E+03  0.55855418789E+02  0.10264008780E+03  0.16050627165E+03  0.00000000000E+00 0. -1.
         -5    1    3    3    0  503  0.98472017194E+01 -0.23725368721E+02 -0.38991751218E+02  0.46928745622E+02  0.47000000000E+01 0.  1.
         13    1    4    4    0    0 -0.13473582233E+03 -0.86523027879E+02 -0.44978208365E+03  0.47743470648E+03  0.00000000000E+00 0. -1.
        -14    1    4    4    0    0 -0.24094957084E+03 -0.69211895473E+02 -0.54200720452E+03  0.59717567928E+03  0.00000000000E+00 0.  1.
</event>
<event>
12    1  0.8494789E-002  0.2192828E+03  0.7818608E-02  0.1134622E+00
         21   -1    0    0  501  502  0.00000000000E+00  0.00000000000E+00  0.80385813576E+03  0.80385813576E+03  0.00000000000E+00 0.  1.
         21   -1    0    0  502  503 -0.00000000000E+00 -0.00000000000E+00 -0.23764522306E+03  0.23764522306E+03  0.00000000000E+00 0.  1.
         -6    2    1    2    0  503 -0.10010077829E+03  0.90936623848E+02 -0.16756095614E+03  0.27597397369E+03  0.17261322302E+03 0.  0.
        -24    2    3    3    0    0 -0.51691222952E+01  0.53201590478E+02 -0.14043878957E+03  0.17017390766E+03  0.79868493016E+02 0.  0.
          6    2    1    2  501    0  0.10010077829E+03 -0.90936623848E+02  0.73377386884E+03  0.76552938512E+03  0.17123525782E+03 0.  0.
         24    2    5    5    0    0  0.85172053732E+02 -0.11156591060E+03  0.71610773290E+03  0.73418266842E+03  0.80701142156E+02 0.  0.
          5    1    5    5  501    0  0.14928724558E+02  0.20629286755E+02  0.17666135943E+02  0.31346716704E+02  0.47000000000E+01 0. -1.
        -11    1    6    6    0    0  0.96488688422E+02 -0.81315402665E+02  0.62248214637E+03  0.63514272747E+03  0.00000000000E+00 0.  1.
         12    1    6    6    0    0 -0.11316634690E+02 -0.30250507938E+02  0.93625586523E+02  0.99039940948E+02  0.00000000000E+00 0. -1.
         -5    1    3    3    0  503 -0.94931655994E+02  0.37735033370E+02 -0.27122166568E+02  0.10580006603E+03  0.47000000000E+01 0.  1.
         11    1    4    4    0    0  0.14191331957E+02  0.14854027801E+02  0.27071922692E+01  0.20721122909E+02  0.00000000000E+00 0. -1.
        -12    1    4    4    0    0 -0.19360454252E+02  0.38347562677E+02 -0.14314598184E+03  0.14945278475E+03  0.00000000000E+00 0.  1.
</event>
<event>
12    1  0.8494789E-002  0.1814250E+03  0.7818608E-02  0.1167158E+00
         21   -1    0    0  503  502  0.00000000000E+00  0.00000000000E+00  0.25744340061E+03  0.25744340061E+03  0.00000000000E+00 0.  1.
         21   -1    0    0  501  503 -0.00000000000E+00 -0.00000000000E+00 -0.16385205632E+03  0.16385205632E+03  0.00000000000E+00 0.  1.
          6    2    1    2  501    0  0.65060138000E+01 -0.56143504672E+02 -0.54491054340E+02  0.18943156227E+03  0.17239669500E+03 0.  0.
         24    2    3    3    0    0  0.27878169878E+01 -0.10495068698E+03 -0.46580083401E+02  0.13962554361E+03  0.79392503663E+02 0.  0.
         -6    2    1    2    0  502 -0.65060138000E+01  0.56143504672E+02  0.14808239862E+03  0.23186389467E+03  0.16922779776E+03 0.  0.
        -24    2    5    5    0    0  0.48723277847E+02 -0.22104401761E+01  0.91786358896E+02  0.13364581270E+03  0.84009664469E+02 0.  0.
          5    1    3    3  501    0  0.37181968122E+01  0.48807182313E+02 -0.79109709385E+01  0.49806018653E+02  0.47000000000E+01 0. -1.
        -11    1    4    4    0    0 -0.32032020313E+02 -0.30453329117E+02  0.17667821959E+01  0.44233212623E+02  0.00000000000E+00 0.  1.
         12    1    4    4    0    0  0.34819837301E+02 -0.74497357868E+02 -0.48346865597E+02  0.95392330992E+02  0.00000000000E+00 0. -1.
         -5    1    5    5    0  502 -0.55229291647E+02  0.58353944848E+02  0.56296039728E+02  0.98218081961E+02  0.47000000000E+01 0.  1.
         13    1    6    6    0    0  0.69970811541E+02  0.17889975902E+01  0.48177956507E+02  0.84971939329E+02  0.00000000000E+00 0. -1.
        -14    1    6    6    0    0 -0.21247533694E+02 -0.39994377663E+01  0.43608402388E+02  0.48673873376E+02  0.00000000000E+00 0.  1.
</event>
<event>
12    1  0.8494789E-002  0.1970943E+03  0.7818608E-02  0.1152273E+00
         21   -1    0    0  503  502  0.00000000000E+00  0.00000000000E+00  0.96409328213E+02  0.96409328213E+02  0.00000000000E+00 0. -1.
         21   -1    0    0  501  503 -0.00000000000E+00 -0.00000000000E+00 -0.13967008114E+04  0.13967008114E+04  0.00000000000E+00 0. -1.
          6    2    1    2  501    0 -0.97531069981E+02  0.15191787283E+01 -0.12801845937E+04  0.12952678373E+04  0.17126458707E+03 0.  0.
         24    2    3    3    0    0 -0.35722770892E+02 -0.30900447719E+02 -0.33558742615E+03  0.34808401299E+03  0.79451906720E+02 0.  0.
         -6    2    1    2    0  502  0.97531069981E+02 -0.15191787283E+01 -0.20106889411E+02  0.19784230227E+03  0.17094640111E+03 0.  0.
        -24    2    5    5    0    0  0.10947574535E+03  0.93098854983E+01 -0.64533146543E+02  0.15034781602E+03  0.79801791900E+02 0.  0.
          5    1    3    3  501    0 -0.61808299089E+02  0.32419626447E+02 -0.94459716760E+03  0.94718382432E+03  0.47000000000E+01 0. -1.
        -11    1    4    4    0    0  0.65228988984E+01  0.19005295394E+02 -0.34031371739E+02  0.39520674659E+02  0.00000000000E+00 0.  1.
         12    1    4    4    0    0 -0.42245669791E+02 -0.49905743113E+02 -0.30155605441E+03  0.30856333833E+03  0.00000000000E+00 0. -1.
         -5    1    5    5    0  502 -0.11944675374E+02 -0.10829064227E+02  0.44426257132E+02  0.47494486254E+02  0.47000000000E+01 0.  1.
         13    1    6    6    0    0  0.47760900763E+02  0.36945201428E+02 -0.55837670764E+01  0.60640168247E+02  0.00000000000E+00 0. -1.
        -14    1    6    6    0    0  0.61714844591E+02 -0.27635315930E+02 -0.58949379467E+02  0.89707647773E+02  0.00000000000E+00 0.  1.
</event>
<event>
12    1  0.8494789E-002  0.1851390E+03  0.7818608E-02  0.1163541E+00
         21   -1    0    0  503  502  0.00000000000E+00  0.00000000000E+00  0.45967432271E+02  0.45967432271E+02  0.00000000000E+00 0. -1.
         21   -1    0    0  501  503 -0.00000000000E+00 -0.00000000000E+00 -0.15423996019E+04  0.15423996019E+04  0.00000000000E+00 0.  1.
          6    2    1    2  501    0 -0.18526900811E+01  0.64401188064E+02 -0.13253491077E+04  0.13382177296E+04  0.17356695851E+03 0.  0.
         24    2    3    3    0    0 -0.30354876490E+02  0.67090543168E+02 -0.12790560881E+04  0.12835849471E+04  0.78633837614E+02 0.  0.
         -6    2    1    2    0  502  0.18526900811E+01 -0.64401188064E+02 -0.17108306194E+03  0.25014930457E+03  0.17074634698E+03 0.  0.
        -24    2    5    5    0    0 -0.38418202668E+02 -0.27944616855E+02 -0.24763396662E+02  0.94000782852E+02  0.77240283888E+02 0.  0.
          5    1    3    3  501    0  0.28502186408E+02 -0.26893551046E+01 -0.46293019598E+02  0.54632782507E+02  0.47000000000E+01 0. -1.
        -13    1    4    4    0    0 -0.23718409026E+02  0.84629162757E+02 -0.97603164269E+03  0.97998082923E+03  0.00000000000E+00 0.  1.
         14    1    4    4    0    0 -0.66364674631E+01 -0.17538619589E+02 -0.30302444542E+03  0.30360411789E+03  0.00000000000E+00 0. -1.
         -5    1    5    5    0  502  0.40270892749E+02 -0.36456571208E+02 -0.14631966527E+03  0.15614852171E+03  0.47000000000E+01 0.  1.
         13    1    6    6    0    0 -0.35934732561E+02 -0.31645470463E+02 -0.49497945960E+02  0.68867898613E+02  0.00000000000E+00 0. -1.
        -14    1    6    6    0    0 -0.24834701067E+01  0.37008536076E+01  0.24734549298E+02  0.25132884239E+02  0.00000000000E+00 0.  1.
</event>
<event>
12    1  0.8494789E-002  0.1873461E+03  0.7818608E-02  0.1161332E+00
         21   -1    0    0  501  502  0.00000000000E+00  0.00000000000E+00  0.88058189462E+02  0.88058189462E+02  0.00000000000E+00 0. -1.
         21   -1    0    0  502  503 -0.00000000000E+00 -0.00000000000E+00 -0.56738335286E+03  0.56738335286E+03  0.00000000000E+00 0. -1.
         -6    2    1    2    0  503 -0.40054556480E+02 -0.61278600689E+02 -0.41973343180E+03  0.45884621150E+03  0.17030636407E+03 0.  0.
        -24    2    3    3    0    0  0.53117651511E+01 -0.96871901829E+02 -0.25868137893E+03  0.28771807250E+03  0.80332143167E+02 0.  0.
          6    2    1    2  501    0  0.40054556480E+02  0.61278600689E+02 -0.59591731594E+02  0.19659533081E+03  0.17245032684E+03 0.  0.
         24    2    5    5    0    0  0.18516961052E+02  0.87764364175E+02  0.58161574552E+01  0.12266532585E+03  0.83471510186E+02 0.  0.
          5    1    5    5  501    0  0.21537595428E+02 -0.26485763486E+02 -0.65407889049E+02  0.73930004965E+02  0.47000000000E+01 0. -1.
        -13    1    6    6    0    0 -0.77179383319E+01  0.62344707827E+02 -0.31645684995E+02  0.70341158257E+02  0.00000000000E+00 0.  1.
         14    1    6    6    0    0  0.26234899384E+02  0.25419656348E+02  0.37461842450E+02  0.52324167593E+02  0.00000000000E+00 0. -1.
         -5    1    3    3    0  503 -0.45366321631E+02  0.35593301139E+02 -0.16105205287E+03  0.17112813900E+03  0.47000000000E+01 0.  1.
         13    1    4    4    0    0  0.38324343192E+02 -0.47720206321E+02 -0.89089271452E+02  0.10808733349E+03  0.00000000000E+00 0. -1.
        -14    1    4    4    0    0 -0.33012578040E+02 -0.49151695507E+02 -0.16959210748E+03  0.17963073902E+03  0.00000000000E+00 0.  1.
</event>
<event>
12    1  0.8494789E-002  0.2139749E+03  0.7818608E-02  0.1138566E+00
         21   -1    0    0  503  502  0.00000000000E+00  0.00000000000E+00  0.11916939903E+03  0.11916939903E+03  0.00000000000E+00 0. -1.
         21   -1    0    0  501  503 -0.00000000000E+00 -0.00000000000E+00 -0.38527923663E+03  0.38527923663E+03  0.00000000000E+00 0. -1.
          6    2    1    2  501    0  0.10234923533E+03  0.74931962597E+02 -0.11430203561E+03  0.24209224651E+03  0.17162032364E+03 0.  0.
         24    2    3    3    0    0  0.58227554741E+02 -0.17919085860E+02 -0.92094017158E+02  0.13681487012E+03  0.80780312698E+02 0.  0.
         -6    2    1    2    0  502 -0.10234923533E+03 -0.74931962597E+02 -0.15180780198E+03  0.26235638914E+03  0.17232266592E+03 0.  0.
        -24    2    5    5    0    0 -0.96245364326E+02 -0.11681250757E+03 -0.11730444221E+03  0.20754937203E+03  0.80050469015E+02 0.  0.
          5    1    3    3  501    0  0.44121680588E+02  0.92851048458E+02 -0.22208018457E+02  0.10527737640E+03  0.47000000000E+01 0. -1.
        -13    1    4    4    0    0 -0.12328342489E+02 -0.24233412263E+02 -0.42082760520E+02  0.50101946384E+02  0.00000000000E+00 0.  1.
         14    1    4    4    0    0  0.70555897230E+02  0.63143264027E+01 -0.50011256637E+02  0.86712923733E+02  0.00000000000E+00 0. -1.
         -5    1    5    5    0  502 -0.61038710033E+01  0.41880544977E+02 -0.34503359779E+02  0.54807017113E+02  0.47000000000E+01 0.  1.
         13    1    6    6    0    0 -0.74237018271E+02 -0.39464661477E+02 -0.31058833141E+02  0.89628374432E+02  0.00000000000E+00 0. -1.
        -14    1    6    6    0    0 -0.22008346055E+02 -0.77347846098E+02 -0.86245609064E+02  0.11792099760E+03  0.00000000000E+00 0.  1.
</event>
<event>
12    1  0.8494789E-002  0.1757843E+03  0.7818608E-02  0.1173143E+00
         21   -1    0    0  501  502  0.00000000000E+00  0.00000000000E+00  0.21767152010E+03  0.21767152010E+03  0.00000000000E+00 0. -1.
         21   -1    0    0  502  503 -0.00000000000E+00 -0.00000000000E+00 -0.52182733484E+03  0.52182733484E+03  0.00000000000E+00 0. -1.
         -6    2    1    2    0  503  0.35225758744E+02  0.12788034531E+02 -0.46966101425E+03  0.50147939424E+03  0.17174319969E+03 0.  0.
        -24    2    3    3    0    0  0.44232332532E+01 -0.42133056651E+02 -0.38948701075E+03  0.39942508189E+03  0.77752845886E+02 0.  0.
          6    2    1    2  501    0 -0.35225758744E+02 -0.12788034531E+02  0.16550519950E+03  0.23801946069E+03  0.16690387862E+03 0.  0.
         24    2    5    5    0    0 -0.50593716580E+02 -0.38408849642E+02  0.42520146853E+02  0.11137028592E+03  0.80996381457E+02 0.  0.
          5    1    5    5  501    0  0.15367957836E+02  0.25620815111E+02  0.12298505265E+03  0.12664917477E+03  0.47000000000E+01 0. -1.
        -11    1    6    6    0    0 -0.44912346835E+02  0.16290096008E+02  0.22918227187E+02  0.52988029436E+02  0.00000000000E+00 0.  1.
         12    1    6    6    0    0 -0.56813697455E+01 -0.54698945651E+02  0.19601919667E+02  0.58382256483E+02  0.00000000000E+00 0. -1.
         -5    1    3    3    0  503  0.30802525491E+02  0.54921091182E+02 -0.80174003494E+02  0.10205431235E+03  0.47000000000E+01 0.  1.
         13    1    4    4    0    0 -0.19365730204E+02  0.15753702604E+02 -0.13998587235E+03  0.14219442714E+03  0.00000000000E+00 0. -1.
        -14    1    4    4    0    0  0.23788963458E+02 -0.57886759255E+02 -0.24950113840E+03  0.25723065475E+03  0.00000000000E+00 0.  1.
</event>
<event>
12    1  0.8494789E-002  0.1815178E+03  0.7818608E-02  0.1166649E+00
         21   -1    0    0  501  502  0.00000000000E+00  0.00000000000E+00  0.37862040366E+02  0.37862040366E+02  0.00000000000E+00 0.  1.
         21   -1    0    0  502  503 -0.00000000000E+00 -0.00000000000E+00 -0.10170954097E+04  0.10170954097E+04  0.00000000000E+00 0.  1.
         -6    2    1    2    0  503 -0.27743394381E+02  0.54054965312E+02 -0.69565149794E+03  0.71894348521E+03  0.17104704949E+03 0.  0.
        -24    2    3    3    0    0 -0.52981627892E+02  0.39524313974E+02 -0.23204520161E+03  0.25439962694E+03  0.80653396150E+02 0.  0.
          6    2    1    2  501    0  0.27743394381E+02 -0.54054965312E+02 -0.28358187141E+03  0.33601396487E+03  0.16969110639E+03 0.  0.
         24    2    5    5    0    0 -0.31340244023E+02 -0.68510523605E+02 -0.12587545589E+03  0.16691859831E+03  0.79632187763E+02 0.  0.
          5    1    5    5  501    0  0.59083638404E+02  0.14455558293E+02 -0.15770641552E+03  0.16909536655E+03  0.47000000000E+01 0. -1.
        -13    1    6    6    0    0 -0.13056393081E+02  0.66636827643E+01  0.44849658121E+01  0.15329350495E+02  0.00000000000E+00 0.  1.
         14    1    6    6    0    0 -0.18283850943E+02 -0.75174206370E+02 -0.13036042170E+03  0.15158924782E+03  0.00000000000E+00 0. -1.
         -5    1    3    3    0  503  0.25238233511E+02  0.14530651339E+02 -0.46360629633E+03  0.46454385827E+03  0.47000000000E+01 0.  1.
         13    1    4    4    0    0 -0.33018120001E+02  0.37649400518E+01 -0.19905616860E+03  0.20181112279E+03  0.00000000000E+00 0. -1.
        -14    1    4    4    0    0 -0.19963507891E+02  0.35759373922E+02 -0.32989033001E+02  0.52588504152E+02  0.00000000000E+00 0.  1.
</event>
<event>
12    1  0.8494789E-002  0.1920605E+03  0.7818608E-02  0.1156737E+00
         21   -1    0    0  501  502  0.00000000000E+00  0.00000000000E+00  0.33219733468E+02  0.33219733468E+02  0.00000000000E+00 0.  1.
         21   -1    0    0  502  503 -0.00000000000E+00 -0.00000000000E+00 -0.11922475623E+04  0.11922475623E+04  0.00000000000E+00 0.  1.
         -6    2    1    2    0  503 -0.85002258998E+02 -0.15667260573E+02 -0.74234540340E+03  0.76665200456E+03  0.17090275320E+03 0.  0.
        -24    2    3    3    0    0  0.96321131124E+01 -0.24449051858E+02 -0.49063819766E+03  0.49755835606E+03  0.78408819242E+02 0.  0.
          6    2    1    2  501    0  0.85002258998E+02  0.15667260573E+02 -0.41668242539E+03  0.45881529117E+03  0.17151204242E+03 0.  0.
         24    2    5    5    0    0  0.85581089927E+02 -0.40380642768E+02 -0.20263184960E+03  0.23749777829E+03  0.79942535328E+02 0.  0.
          5    1    5    5  501    0 -0.57883092895E+00  0.56047903341E+02 -0.21405057579E+03  0.22131751289E+03  0.47000000000E+01 0. -1.
        -11    1    6    6    0    0  0.43235765336E+02  0.17314718569E+02 -0.46839635622E+02  0.66053632364E+02  0.00000000000E+00 0.  1.
         12    1    6    6    0    0  0.42345324591E+02 -0.57695361337E+02 -0.15579221398E+03  0.17144414592E+03  0.00000000000E+00 0. -1.
         -5    1    3    3    0  503 -0.94634372110E+02  0.87817912845E+01 -0.25170720574E+03  0.26909364850E+03  0.47000000000E+01 0.  1.
         11    1    4    4    0    0 -0.18706802440E+02  0.19043298734E+02 -0.10062118280E+03  0.10410194096E+03  0.00000000000E+00 0. -1.
        -12    1    4    4    0    0  0.28338915553E+02 -0.43492350592E+02 -0.39001701486E+03  0.39345641509E+03  0.00000000000E+00 0.  1.
</event>
<event>
12    1  0.8494789E-002  0.1777549E+03  0.7818608E-02  0.1170243E+00
         21   -1    0    0  501  502  0.00000000000E+00  0.00000000000E+00  0.60104481063E+03  0.60104481063E+03  0.00000000000E+00 0. -1.
         21   -1    0    0  502  503 -0.00000000000E+00 -0.00000000000E+00 -0.92907057920E+02  0.92907057920E+02  0.00000000000E+00 0. -1.
         -6    2    1    2    0  503 -0.26309960963E+02  0.35309254498E+02  0.25005815023E+02  0.17950517178E+03  0.17221457085E+03 0.  0.
        -24    2    3    3    0    0 -0.30342116501E+02 -0.34392387664E+02  0.50846843694E+02  0.10491009178E+03  0.79481101404E+02 0.  0.
          6    2    1    2  501    0  0.26309960963E+02 -0.35309254498E+02  0.48313193769E+03  0.51444669677E+03  0.17117236080E+03 0.  0.
         24    2    5    5    0    0 -0.19571618739E+02 -0.30182920235E+01  0.11547244532E+03  0.14250124655E+03  0.81120658846E+02 0.  0.
          5    1    5    5  501    0  0.45881579702E+02 -0.32290962475E+02  0.36765949237E+03  0.37194545022E+03  0.47000000000E+01 0. -1.
        -11    1    6    6    0    0  0.91055596097E+01  0.15557657501E+02 -0.38074180801E+01  0.18424124271E+02  0.00000000000E+00 0.  1.
         12    1    6    6    0    0 -0.28677178348E+02 -0.18575949524E+02  0.11927986340E+03  0.12407712228E+03  0.00000000000E+00 0. -1.
         -5    1    3    3    0  503  0.40321555382E+01  0.69701642162E+02 -0.25841028670E+02  0.74595080006E+02  0.47000000000E+01 0.  1.
         11    1    4    4    0    0 -0.19125393747E+02  0.24898121622E+02  0.16209645149E+02  0.35333408301E+02  0.00000000000E+00 0. -1.
        -12    1    4    4    0    0 -0.11216722754E+02 -0.59290509286E+02  0.34637198545E+02  0.69576683478E+02  0.00000000000E+00 0.  1.
</event>
<event>
12    1  0.8494789E-002  0.2182291E+03  0.7818608E-02  0.1135791E+00
         21   -1    0    0  501  502  0.00000000000E+00  0.00000000000E+00  0.70271416433E+03  0.70271416433E+03  0.00000000000E+00 0.  1.
         21   -1    0    0  502  503 -0.00000000000E+00 -0.00000000000E+00 -0.10141766907E+03  0.10141766907E+03  0.00000000000E+00 0. -1.
         -6    2    1    2    0  503  0.11278131228E+03  0.65400633039E+02  0.64434160436E+02  0.22461038541E+03  0.17117592413E+03 0.  0.
        -24    2    3    3    0    0  0.11400147923E+02  0.58421126779E+02  0.72789856500E+02  0.12253805003E+03  0.78576199126E+02 0.  0.
          6    2    1    2  501    0 -0.11278131228E+03 -0.65400633039E+02  0.53686233482E+03  0.57952144799E+03  0.17500592827E+03 0.  0.
         24    2    5    5    0    0 -0.11197340809E+03  0.22610478657E+01  0.44575155787E+03  0.46593439129E+03  0.76532667462E+02 0.  0.
          5    1    5    5  501    0 -0.80790418424E+00 -0.67661680904E+02  0.91110776948E+02  0.11358705669E+03  0.47000000000E+01 0. -1.
        -13    1    6    6    0    0 -0.56059454670E+02 -0.36908911355E+02  0.23541514456E+03  0.24479628364E+03  0.00000000000E+00 0.  1.
         14    1    6    6    0    0 -0.55913953425E+02  0.39169959221E+02  0.21033641331E+03  0.22113810766E+03  0.00000000000E+00 0. -1.
         -5    1    3    3    0  503  0.10138116436E+03  0.69795062595E+01 -0.83556960632E+01  0.10207233538E+03  0.47000000000E+01 0.  1.
         13    1    4    4    0    0 -0.28791741393E+02  0.39538820903E+02  0.18246074917E+02  0.52203467133E+02  0.00000000000E+00 0. -1.
        -14    1    4    4    0    0  0.40191889316E+02  0.18882305876E+02  0.54543781582E+02  0.70334582897E+02  0.00000000000E+00 0.  1.
</event>
<event>
12    1  0.8494789E-002  0.2173105E+03  0.7818608E-02  0.1138261E+00
         21   -1    0    0  503  502  0.00000000000E+00  0.00000000000E+00  0.28116209584E+02  0.28116209584E+02  0.00000000000E+00 0. -1.
         21   -1    0    0  501  503 -0.00000000000E+00 -0.00000000000E+00 -0.16085973584E+04  0.16085973584E+04  0.00000000000E+00 0. -1.
          6    2    1    2  501    0  0.82536036467E+02 -0.75134349207E+02 -0.86141612781E+03  0.88552892686E+03  0.17223927344E+03 0.  0.
         24    2    3    3    0    0  0.21132788683E+02  0.11090873554E+02 -0.54833188191E+03  0.55500058783E+03  0.82390518445E+02 0.  0.
         -6    2    1    2    0  502 -0.82536036467E+02  0.75134349207E+02 -0.71906502101E+03  0.75118464113E+03  0.18645775091E+03 0.  0.
        -24    2    5    5    0    0 -0.10525604016E+03  0.70594141853E+02 -0.34570092992E+03  0.37707283088E+03  0.81316787834E+02 0.  0.
          5    1    3    3  501    0  0.61403247783E+02 -0.86225222761E+02 -0.31308424590E+03  0.33052833904E+03  0.47000000000E+01 0. -1.
        -11    1    4    4    0    0 -0.30118540184E+02 -0.76072725918E+01 -0.21538936769E+03  0.21761796059E+03  0.00000000000E+00 0.  1.
         12    1    4    4    0    0  0.51251328868E+02  0.18698146146E+02 -0.33294251423E+03  0.33738262723E+03  0.00000000000E+00 0. -1.
         -5    1    5    5    0  502  0.22720003698E+02  0.45402073544E+01 -0.37336409109E+03  0.37411181025E+03  0.47000000000E+01 0.  1.
         13    1    6    6    0    0 -0.27649259143E+02  0.58144710518E+02 -0.21622712059E+03  0.22560907910E+03  0.00000000000E+00 0. -1.
        -14    1    6    6    0    0 -0.77606781022E+02  0.12449431335E+02 -0.12947380933E+03  0.15146375178E+03  0.00000000000E+00 0.  1.
</event>
<event>
12    1  0.8494789E-002  0.2434999E+03  0.7818608E-02  0.1117586E+00
         21   -1    0    0  503  502  0.00000000000E+00  0.00000000000E+00  0.38651329083E+03  0.38651329083E+03  0.00000000000E+00 0.  1.
         21   -1    0    0  501  503 -0.00000000000E+00 -0.00000000000E+00 -0.94004120516E+03  0.94004120516E+03  0.00000000000E+00 0. -1.
          6    2    1    2  501    0  0.17185811767E+03 -0.66251887548E+01 -0.88372453905E+03  0.91665764784E+03  0.17237481450E+03 0.  0.
         24    2    3    3    0    0  0.14145288447E+03 -0.12106383232E+02 -0.86499342614E+03  0.88022323704E+03  0.80148841086E+02 0.  0.
         -6    2    1    2    0  502 -0.17185811767E+03  0.66251887548E+01  0.33019662473E+03  0.40989684815E+03  0.17148326276E+03 0.  0.
        -24    2    5    5    0    0 -0.46853269844E+02 -0.13300344689E+02  0.22595676272E+03  0.24585027643E+03  0.83748264068E+02 0.  0.
          5    1    3    3  501    0  0.30405233200E+02  0.54811944769E+01 -0.18731112916E+02  0.36434410794E+02  0.47000000000E+01 0. -1.
        -13    1    4    4    0    0  0.65203951120E+02 -0.45313708697E+02 -0.38943902692E+03  0.39745143493E+03  0.00000000000E+00 0.  1.
         14    1    4    4    0    0  0.76248933354E+02  0.33207325465E+02 -0.47555439922E+03  0.48277180212E+03  0.00000000000E+00 0. -1.
         -5    1    5    5    0  502 -0.12500484783E+03  0.19925533444E+02  0.10423986201E+03  0.16404657173E+03  0.47000000000E+01 0.  1.
         13    1    6    6    0    0 -0.66919939000E+02 -0.20543683360E+02  0.20192692688E+03  0.21371664643E+03  0.00000000000E+00 0. -1.
        -14    1    6    6    0    0  0.20066669157E+02  0.72433386704E+01  0.24029835845E+02  0.32133629999E+02  0.00000000000E+00 0.  1.
</event>
<event>
12    1  0.8494789E-002  0.1802148E+03  0.7818608E-02  0.1167819E+00
         21   -1    0    0  501  502  0.00000000000E+00  0.00000000000E+00  0.16193771170E+04  0.16193771170E+04  0.00000000000E+00 0.  1.
         21   -1    0    0  502  503 -0.00000000000E+00 -0.00000000000E+00 -0.23860497274E+02  0.23860497274E+02  0.00000000000E+00 0.  1.
         -6    2    1    2    0  503 -0.49959777552E+02 -0.24212913050E+01  0.46354193142E+03  0.49700724229E+03  0.17217210772E+03 0.  0.
        -24    2    3    3    0    0 -0.79090457560E+02  0.31894314703E+02  0.41245413021E+03  0.42875615610E+03  0.80255118706E+02 0.  0.
          6    2    1    2  501    0  0.49959777552E+02  0.24212913050E+01  0.11319746883E+04  0.11462303720E+04  0.17313442372E+03 0.  0.
         24    2    5    5    0    0  0.42078958280E+02 -0.39675847565E+02  0.37860071537E+03  0.39162536968E+03  0.81774793715E+02 0.  0.
          5    1    5    5  501    0  0.78808192721E+01  0.42097138870E+02  0.75337397292E+03  0.75460500229E+03  0.47000000000E+01 0. -1.
        -13    1    6    6    0    0 -0.10807660192E+02  0.66079060889E+01  0.18890792260E+03  0.18933217678E+03  0.00000000000E+00 0.  1.
         14    1    6    6    0    0  0.52886618472E+02 -0.46283753654E+02  0.18969279277E+03  0.20229319290E+03  0.00000000000E+00 0. -1.
         -5    1    3    3    0  503  0.29130680008E+02 -0.34315606007E+02  0.51087801214E+02  0.68251086191E+02  0.47000000000E+01 0.  1.
         11    1    4    4    0    0 -0.51770534018E+02  0.85615207989E+01  0.89034764272E+02  0.10334736126E+03  0.00000000000E+00 0. -1.
        -12    1    4    4    0    0 -0.27319923542E+02  0.23332793904E+02  0.32341936594E+03  0.32540879484E+03  0.00000000000E+00 0.  1.
</event>
<event>
12    1  0.8494789E-002  0.1784582E+03  0.7818608E-02  0.1169602E+00
         21   -1    0    0  503  502  0.00000000000E+00  0.00000000000E+00  0.11705301885E+03  0.11705301885E+03  0.00000000000E+00 0.  1.
         21   -1    0    0  501  503 -0.00000000000E+00 -0.00000000000E+00 -0.50459908655E+03  0.50459908655E+03  0.00000000000E+00 0. -1.
          6    2    1    2  501    0 -0.31273670496E+02  0.34032800972E+02 -0.40525240890E+03  0.44231765910E+03  0.17111143336E+03 0.  0.
         24    2    3    3    0    0 -0.59913858614E+02  0.48243014862E+02 -0.16269506852E+03  0.19761714025E+03  0.81644288618E+02 0.  0.
         -6    2    1    2    0  502  0.31273670496E+02 -0.34032800972E+02  0.17706341202E+02  0.17933444629E+03  0.17236895051E+03 0.  0.
        -24    2    5    5    0    0  0.20613305529E+02 -0.46709646836E+01 -0.57862153182E+02  0.97429329513E+02  0.75483237892E+02 0.  0.
          5    1    3    3  501    0  0.28640188119E+02 -0.14210213890E+02 -0.24255734038E+03  0.24470051885E+03  0.47000000000E+01 0. -1.
        -11    1    4    4    0    0 -0.19372109865E+02 -0.21483806341E+02 -0.25972808639E+02  0.38876977302E+02  0.00000000000E+00 0.  1.
         12    1    4    4    0    0 -0.40541748749E+02  0.69726821203E+02 -0.13672225988E+03  0.15874016295E+03  0.00000000000E+00 0. -1.
         -5    1    5    5    0  502  0.10660364966E+02 -0.29361836289E+02  0.75568494384E+02  0.81905116781E+02  0.47000000000E+01 0.  1.
         11    1    6    6    0    0  0.30923798772E+02  0.28646430072E+02 -0.22584354368E+02  0.47822090592E+02  0.00000000000E+00 0. -1.
        -12    1    6    6    0    0 -0.10310493243E+02 -0.33317394756E+02 -0.35277798813E+02  0.49607238921E+02  0.00000000000E+00 0.  1.
</event>
<event>
12    1  0.8494789E-002  0.1879688E+03  0.7818608E-02  0.1160970E+00
         21   -1    0    0  501  502  0.00000000000E+00  0.00000000000E+00  0.11376857958E+03  0.11376857958E+03  0.00000000000E+00 0. -1.
         21   -1    0    0  502  503 -0.00000000000E+00 -0.00000000000E+00 -0.33493980691E+03  0.33493980691E+03  0.00000000000E+00 0. -1.
         -6    2    1    2    0  503  0.47460934013E+02  0.48853511504E+02 -0.17751322546E+03  0.25854054766E+03  0.17519435986E+03 0.  0.
        -24    2    3    3    0    0  0.40391907102E+02  0.10245220274E+03 -0.12569196214E+03  0.18350506154E+03  0.75813443795E+02 0.  0.
          6    2    1    2  501    0 -0.47460934013E+02 -0.48853511504E+02 -0.43658001859E+02  0.19016783883E+03  0.17210049377E+03 0.  0.
         24    2    5    5    0    0  0.30432666353E+02 -0.15914764017E+02 -0.57237173832E+02  0.10438405263E+03  0.80252784868E+02 0.  0.
          5    1    5    5  501    0 -0.77893600366E+02 -0.32938747487E+02  0.13579171974E+02  0.85783786204E+02  0.47000000000E+01 0. -1.
        -13    1    6    6    0    0 -0.12602794776E+01 -0.11408130287E+01 -0.67827046969E+02  0.67848346032E+02  0.00000000000E+00 0.  1.
         14    1    6    6    0    0  0.31692945830E+02 -0.14773950989E+02  0.10589873137E+02  0.36535706593E+02  0.00000000000E+00 0. -1.
         -5    1    3    3    0  503  0.70690269111E+01 -0.53598691240E+02 -0.51821263327E+02  0.75035486118E+02  0.47000000000E+01 0.  1.
         13    1    4    4    0    0  0.59782191028E+02  0.77457085422E+02 -0.73114208473E+02  0.12214416862E+03  0.00000000000E+00 0. -1.
        -14    1    4    4    0    0 -0.19390283926E+02  0.24995117323E+02 -0.52577753663E+02  0.61360892928E+02  0.00000000000E+00 0.  1.
</event>
<event>
12    1  0.8494789E-002  0.2163763E+03  0.7818608E-02  0.1136751E+00
         21   -1    0    0  501  502  0.00000000000E+00  0.00000000000E+00  0.16005011184E+03  0.16005011184E+03  0.00000000000E+00 0. -1.
         21   -1    0    0  502  503 -0.00000000000E+00 -0.00000000000E+00 -0.30917703991E+03  0.30917703991E+03  0.00000000000E+00 0. -1.
         -6    2    1    2    0  503 -0.11923901278E+03 -0.54507216417E+02 -0.13068985407E+03  0.25278164041E+03  0.17213291656E+03 0.  0.
        -24    2    3    3    0    0 -0.67316834689E+02 -0.20517263359E+02 -0.15843737227E+03  0.18464028548E+03  0.63538333008E+02 0.  0.
          6    2    1    2  501    0  0.11923901278E+03  0.54507216417E+02 -0.18437073998E+02  0.21644551133E+03  0.17123012255E+03 0.  0.
         24    2    5    5    0    0  0.84636044112E+02  0.29259360393E+01  0.47933506717E+02  0.12542277840E+03  0.79129205802E+02 0.  0.
          5    1    5    5  501    0  0.34602968663E+02  0.51581280378E+02 -0.66370580715E+02  0.91022732931E+02  0.47000000000E+01 0. -1.
        -11    1    6    6    0    0 -0.90704775766E+01 -0.16277211740E+02  0.16055602589E+02  0.24596820120E+02  0.00000000000E+00 0.  1.
         12    1    6    6    0    0  0.93706521689E+02  0.19203147779E+02  0.31877904128E+02  0.10082595828E+03  0.00000000000E+00 0. -1.
         -5    1    3    3    0  503 -0.51922178086E+02 -0.33989953059E+02  0.27747518202E+02  0.68141354936E+02  0.47000000000E+01 0.  1.
         13    1    4    4    0    0 -0.43579364706E+02  0.17286232504E+02 -0.10514104152E+03  0.11511999598E+03  0.00000000000E+00 0. -1.
        -14    1    4    4    0    0 -0.23737469983E+02 -0.37803495863E+02 -0.53296330752E+02  0.69520289501E+02  0.00000000000E+00 0.  1.
</event>
<event>
12    1  0.8494789E-002  0.2160631E+03  0.7818608E-02  0.1137891E+00
         21   -1    0    0  503  502  0.00000000000E+00  0.00000000000E+00  0.13711207194E+03  0.13711207194E+03  0.00000000000E+00 0.  1.
         21   -1    0    0  501  503 -0.00000000000E+00 -0.00000000000E+00 -0.10011947797E+04  0.10011947797E+04  0.00000000000E+00 0.  1.
          6    2    1    2  501    0 -0.12779452123E+03  0.23888283176E+02 -0.89912514357E+03  0.92472120488E+03  0.17257228408E+03 0.  0.
         24    2    3    3    0    0 -0.15249814326E+03  0.15931695697E+02 -0.86153161550E+03  0.87879801272E+03  0.80868535491E+02 0.  0.
         -6    2    1    2    0  502  0.12779452123E+03 -0.23888283176E+02  0.35042435760E+02  0.21358564681E+03  0.16579736574E+03 0.  0.
        -24    2    5    5    0    0  0.12039774952E+03 -0.17396083327E+02 -0.29182083144E+02  0.14844165461E+03  0.79906752176E+02 0.  0.
          5    1    3    3  501    0  0.24703622028E+02  0.79565874784E+01 -0.37593528070E+02  0.45923192162E+02  0.47000000000E+01 0. -1.
        -11    1    4    4    0    0 -0.79671359575E+02  0.35941812364E+02 -0.30882841451E+03  0.32095845374E+03  0.00000000000E+00 0.  1.
         12    1    4    4    0    0 -0.72826783685E+02 -0.20010116667E+02 -0.55270320098E+03  0.55783955898E+03  0.00000000000E+00 0. -1.
         -5    1    5    5    0  502  0.73967717153E+01 -0.64921998486E+01  0.64224518903E+02  0.65143992194E+02  0.47000000000E+01 0.  1.
         13    1    6    6    0    0  0.40481600646E+02 -0.24645222360E+01 -0.50135607535E+02  0.64485758146E+02  0.00000000000E+00 0. -1.
        -14    1    6    6    0    0  0.79916148870E+02 -0.14931561091E+02  0.20953524392E+02  0.83955896465E+02  0.00000000000E+00 0.  1.
</event>
<event>
12    1  0.8494789E-002  0.2444090E+03  0.7818608E-02  0.1116910E+00
         21   -1    0    0  503  502  0.00000000000E+00  0.00000000000E+00  0.15505302710E+03  0.15505302710E+03  0.00000000000E+00 0. -1.
         21   -1    0    0  501  503 -0.00000000000E+00 -0.00000000000E+00 -0.51426144040E+03  0.51426144040E+03  0.00000000000E+00 0. -1.
          6    2    1    2  501    0  0.16885445861E+03  0.40051456072E+02 -0.34737870009E+03  0.42474431072E+03  0.17210409900E+03 0.  0.
         24    2    3    3    0    0  0.24156609390E+02  0.20936950213E+02 -0.30787271763E+02  0.76096846384E+02  0.61814045859E+02 0.  0.
         -6    2    1    2    0  502 -0.16885445861E+03 -0.40051456072E+02 -0.11829713220E+02  0.24457015678E+03  0.17192635675E+03 0.  0.
        -24    2    5    5    0    0 -0.18108648547E+03 -0.12870343215E+02 -0.42234259030E+02  0.20173370287E+03  0.77167307105E+02 0.  0.
          5    1    3    3  501    0  0.14469784922E+03  0.19114505858E+02 -0.31659142832E+03  0.34864746434E+03  0.47000000000E+01 0. -1.
        -13    1    4    4    0    0 -0.20106596411E+02  0.27253047577E+00 -0.44305649744E+01  0.20590760018E+02  0.00000000000E+00 0.  1.
         14    1    4    4    0    0  0.44263205802E+02  0.20664419738E+02 -0.26356706789E+02  0.55506086366E+02  0.00000000000E+00 0. -1.
         -5    1    5    5    0  502  0.12232026859E+02 -0.27181112857E+02  0.30404545810E+02  0.42836453905E+02  0.47000000000E+01 0.  1.
         11    1    6    6    0    0 -0.12182759113E+03 -0.25310214274E+02  0.56202719387E+01  0.12455583633E+03  0.00000000000E+00 0. -1.
        -12    1    6    6    0    0 -0.59258894339E+02  0.12439871059E+02 -0.47854530969E+02  0.77177866545E+02  0.00000000000E+00 0.  1.
</event>
<event>
12    1  0.8494789E-002  0.1756919E+03  0.7818608E-02  0.1172049E+00
         21   -1    0    0  501  502  0.00000000000E+00  0.00000000000E+00  0.17411464225E+03  0.17411464225E+03  0.00000000000E+00 0. -1.
         21   -1    0    0  502  503 -0.00000000000E+00 -0.00000000000E+00 -0.17749505327E+03  0.17749505327E+03  0.00000000000E+00 0. -1.
         -6    2    1    2    0  503 -0.20618344238E+02  0.23974691223E+02 -0.83122810834E+01  0.17584860580E+03  0.17278233766E+03 0.  0.
        -24    2    3    3    0    0  0.39510072153E+02  0.35394197967E+02  0.33287204018E+02  0.10169714760E+03  0.80127877970E+02 0.  0.
          6    2    1    2  501    0  0.20618344238E+02 -0.23974691223E+02  0.49318700623E+01  0.17576108972E+03  0.17282284392E+03 0.  0.
         24    2    5    5    0    0 -0.42040457494E+01 -0.82066608591E+02  0.10303873085E+00  0.11222976265E+03  0.76438908683E+02 0.  0.
          5    1    5    5  501    0  0.24822389987E+02  0.58091917368E+02  0.48288313315E+01  0.63531327077E+02  0.47000000000E+01 0. -1.
        -13    1    6    6    0    0  0.21731341251E+02 -0.15370982727E+02  0.24944949744E+02  0.36479704225E+02  0.00000000000E+00 0.  1.
         14    1    6    6    0    0 -0.25935387001E+02 -0.66695625864E+02 -0.24841911013E+02  0.75750058423E+02  0.00000000000E+00 0. -1.
         -5    1    3    3    0  503 -0.60128416390E+02 -0.11419506744E+02 -0.41599485102E+02  0.74151458196E+02  0.47000000000E+01 0.  1.
         11    1    4    4    0    0  0.47107537383E+02  0.55508067528E+02  0.33626495247E+02  0.80193558480E+02  0.00000000000E+00 0. -1.
        -12    1    4    4    0    0 -0.75974652300E+01 -0.20113869561E+02 -0.33929122876E+00  0.21503589124E+02  0.00000000000E+00 0.  1.
</event>
<event>
12    1  0.8494789E-002  0.1826370E+03  0.7818608E-02  0.1165302E+00
         21   -1    0    0  501  502  0.00000000000E+00  0.00000000000E+00  0.64185992018E+02  0.64185992018E+02  0.00000000000E+00 0.  1.
         21   -1    0    0  502  503 -0.00000000000E+00 -0.00000000000E+00 -0.12526343514E+04  0.12526343514E+04  0.00000000000E+00 0.  1.
         -6    2    1    2    0  503 -0.22221462280E+02 -0.53970399628E+02 -0.10979011194E+04  0.11129697157E+04  0.17293965062E+03 0.  0.
        -24    2    3    3    0    0  0.22084434052E+02  0.21735478511E+02 -0.35748383155E+03  0.36735973553E+03  0.78729487616E+02 0.  0.
          6    2    1    2  501    0  0.22221462280E+02  0.53970399628E+02 -0.90547239932E+02  0.20385062763E+03  0.17305975356E+03 0.  0.
         24    2    5    5    0    0 -0.33236775917E+02  0.45682251102E+02 -0.10726265730E+03  0.14514965006E+03  0.79822252051E+02 0.  0.
          5    1    5    5  501    0  0.55458238198E+02  0.82881485263E+01  0.16715417363E+02  0.58700977570E+02  0.47000000000E+01 0. -1.
        -13    1    6    6    0    0 -0.21600331930E+02  0.40231956461E+02 -0.96212945274E+01  0.46666411567E+02  0.00000000000E+00 0.  1.
         14    1    6    6    0    0 -0.11636443988E+02  0.54502946413E+01 -0.97641362768E+02  0.98483238490E+02  0.00000000000E+00 0. -1.
         -5    1    3    3    0  503 -0.44305896332E+02 -0.75705878140E+02 -0.74041728786E+03  0.74560998021E+03  0.47000000000E+01 0.  1.
         11    1    4    4    0    0  0.44935458529E+02 -0.78549712438E+01 -0.16036826587E+03  0.16672995143E+03  0.00000000000E+00 0. -1.
        -12    1    4    4    0    0 -0.22851024477E+02  0.29590449755E+02 -0.19711556567E+03  0.20062978410E+03  0.00000000000E+00 0.  1.
</event>
<event>
12    1  0.8494789E-002  0.2051923E+03  0.7818608E-02  0.1145669E+00
         21   -1    0    0  501  502  0.00000000000E+00  0.00000000000E+00  0.88043341675E+03  0.88043341675E+03  0.00000000000E+00 0.  1.
         21   -1    0    0  502  503 -0.00000000000E+00 -0.00000000000E+00 -0.77099084545E+02  0.77099084545E+02  0.00000000000E+00 0. -1.
         -6    2    1    2    0  503 -0.20726134441E+02 -0.10756189632E+03  0.10457082957E+03  0.22926448452E+03  0.17212789222E+03 0.  0.
        -24    2    3    3    0    0 -0.11861890200E+02  0.12963866999E+02  0.49557012964E+02  0.96397466542E+02  0.80794849682E+02 0.  0.
          6    2    1    2  501    0  0.20726134441E+02  0.10756189632E+03  0.69876350264E+03  0.72826801677E+03  0.17350716826E+03 0.  0.
         24    2    5    5    0    0  0.66481949860E+02  0.11863782186E+03  0.52895362635E+03  0.55199052287E+03  0.80042589129E+02 0.  0.
          5    1    5    5  501    0 -0.45755815419E+02 -0.11075925533E+02  0.16980987629E+03  0.17627749390E+03  0.47000000000E+01 0. -1.
        -13    1    6    6    0    0  0.11278602580E+02  0.92911713594E+02  0.37308996884E+03  0.38465038444E+03  0.00000000000E+00 0.  1.
         14    1    6    6    0    0  0.55203347280E+02  0.25726108263E+02  0.15586365751E+03  0.16734013843E+03  0.00000000000E+00 0. -1.
         -5    1    3    3    0  503 -0.88642442414E+01 -0.12052576332E+03  0.55013816602E+02  0.13286701798E+03  0.47000000000E+01 0.  1.
         13    1    4    4    0    0 -0.24256038937E+02 -0.26300989471E+02  0.56798820513E+01  0.36226489372E+02  0.00000000000E+00 0. -1.
        -14    1    4    4    0    0  0.12394148737E+02  0.39264856470E+02  0.43877130912E+02  0.60170977170E+02  0.00000000000E+00 0.  1.
</event>
<event>
12    1  0.8494789E-002  0.2731560E+03  0.7818608E-02  0.1099537E+00
         21   -1    0    0  503  502  0.00000000000E+00  0.00000000000E+00  0.68410748402E+02  0.68410748402E+02  0.00000000000E+00 0. -1.
         21   -1    0    0  501  503 -0.00000000000E+00 -0.00000000000E+00 -0.13646641671E+04  0.13646641671E+04  0.00000000000E+00 0. -1.
          6    2    1    2  501    0  0.20430794557E+03 -0.57187254854E+02 -0.97036290847E+03  0.10080765788E+04  0.17205259595E+03 0.  0.
         24    2    3    3    0    0  0.43499193100E+02 -0.64834578566E+02 -0.36535224918E+03  0.38199517488E+03  0.79638842741E+02 0.  0.
         -6    2    1    2    0  502 -0.20430794557E+03  0.57187254854E+02 -0.32589051024E+03  0.42499833675E+03  0.17148423495E+03 0.  0.
        -24    2    5    5    0    0 -0.18249616367E+03  0.30730850262E+02 -0.33342932610E+03  0.38957773655E+03  0.79664687293E+02 0.  0.
          5    1    3    3  501    0  0.16080875247E+03  0.76473237118E+01 -0.60501065929E+03  0.62608140388E+03  0.47000000000E+01 0. -1.
        -11    1    4    4    0    0  0.71683740625E+01 -0.58631817132E+02 -0.30944588998E+03  0.31503306873E+03  0.00000000000E+00 0.  1.
         12    1    4    4    0    0  0.36330819037E+02 -0.62027614332E+01 -0.55906359198E+02  0.66962106150E+02  0.00000000000E+00 0. -1.
         -5    1    5    5    0  502 -0.21811781897E+02  0.26456404592E+02  0.75388158645E+01  0.35420600194E+02  0.47000000000E+01 0.  1.
         13    1    6    6    0    0 -0.10037962502E+03 -0.20732907997E+02 -0.14341898117E+03  0.17628081789E+03  0.00000000000E+00 0. -1.
        -14    1    6    6    0    0 -0.82116538651E+02  0.51463758259E+02 -0.19001034493E+03  0.21329691867E+03  0.00000000000E+00 0.  1.
</event>
<event>
12    1  0.8494789E-002  0.2327096E+03  0.7818608E-02  0.1124884E+00
         21   -1    0    0  503  502  0.00000000000E+00  0.00000000000E+00  0.38441463451E+03  0.38441463451E+03  0.00000000000E+00 0. -1.
         21   -1    0    0  501  503 -0.00000000000E+00 -0.00000000000E+00 -0.14040381090E+03  0.14040381090E+03  0.00000000000E+00 0.  1.
          6    2    1    2  501    0 -0.25529426028E+02  0.15487019245E+03  0.12011818677E+03  0.26188193017E+03  0.17180581613E+03 0.  0.
         24    2    3    3    0    0  0.41196689798E+02  0.13647202750E+03  0.89741748093E+02  0.18614762465E+03  0.79218528585E+02 0.  0.
         -6    2    1    2    0  502  0.25529426028E+02 -0.15487019245E+03  0.12389263684E+03  0.26293651523E+03  0.17073282484E+03 0.  0.
        -24    2    5    5    0    0  0.42548421115E+02 -0.66030171080E+02  0.17043646360E+01  0.11083701012E+03  0.78176635392E+02 0.  0.
          5    1    3    3  501    0 -0.66726115827E+02  0.18398164952E+02  0.30376438676E+02  0.75734305526E+02  0.47000000000E+01 0. -1.
        -11    1    4    4    0    0  0.94587802358E+01  0.36162138905E+02 -0.12527475946E+02  0.39422157061E+02  0.00000000000E+00 0.  1.
         12    1    4    4    0    0  0.31737909562E+02  0.10030988859E+03  0.10226922404E+03  0.14672546759E+03  0.00000000000E+00 0. -1.
         -5    1    5    5    0  502 -0.17018995086E+02 -0.88840021370E+02  0.12218827221E+03  0.15209950511E+03  0.47000000000E+01 0.  1.
         13    1    6    6    0    0  0.43374320207E+02 -0.68083544786E+01  0.20832661868E+02  0.48597172187E+02  0.00000000000E+00 0. -1.
        -14    1    6    6    0    0 -0.82589909223E+00 -0.59221816601E+02 -0.19128297232E+02  0.62239837932E+02  0.00000000000E+00 0.  1.
</event>
<event>
12    1  0.8494789E-002  0.2094885E+03  0.7818608E-02  0.1142012E+00
         21   -1    0    0  501  502  0.00000000000E+00  0.00000000000E+00  0.56387736775E+02  0.56387736775E+02  0.00000000000E+00 0. -1.
         21   -1    0    0  502  503 -0.00000000000E+00 -0.00000000000E+00 -0.79219902962E+03  0.79219902962E+03  0.00000000000E+00 0. -1.
         -6    2    1    2    0  503  0.11268612433E+03  0.38329921148E+02 -0.42547760712E+03  0.47416395676E+03  0.17214214550E+03 0.  0.
        -24    2    3    3    0    0  0.12887099870E+03  0.59818058226E+02 -0.41436473138E+03  0.44468046645E+03  0.76528767393E+02 0.  0.
          6    2    1    2  501    0 -0.11268612433E+03 -0.38329921148E+02 -0.31033368573E+03  0.37442280964E+03  0.17238938021E+03 0.  0.
         24    2    5    5    0    0 -0.97495765385E+02 -0.17347248927E+02 -0.97781785399E+02  0.16024666747E+03  0.79444103415E+02 0.  0.
          5    1    5    5  501    0 -0.15190358947E+02 -0.20982672221E+02 -0.21255190033E+03  0.21417614217E+03  0.47000000000E+01 0. -1.
        -13    1    6    6    0    0 -0.18633651588E+02 -0.39536219801E+02 -0.23320730777E+02  0.49539702579E+02  0.00000000000E+00 0.  1.
         14    1    6    6    0    0 -0.78862113797E+02  0.22188970873E+02 -0.74461054621E+02  0.11070696489E+03  0.00000000000E+00 0. -1.
         -5    1    3    3    0  503 -0.16184874368E+02 -0.21488137078E+02 -0.11112875739E+02  0.29483490305E+02  0.47000000000E+01 0.  1.
         11    1    4    4    0    0  0.44459746944E+02 -0.90220359009E+01 -0.69264845568E+02  0.82799064377E+02  0.00000000000E+00 0. -1.
        -12    1    4    4    0    0  0.84411251757E+02  0.68840094127E+02 -0.34509988581E+03  0.36188140207E+03  0.00000000000E+00 0.  1.
</event>
<event>
12    1  0.8494789E-002  0.1898566E+03  0.7818608E-02  0.1158655E+00
         21   -1    0    0  503  502  0.00000000000E+00  0.00000000000E+00  0.41335192527E+03  0.41335192527E+03  0.00000000000E+00 0. -1.
         21   -1    0    0  501  503 -0.00000000000E+00 -0.00000000000E+00 -0.14102391495E+03  0.14102391495E+03  0.00000000000E+00 0.  1.
          6    2    1    2  501    0 -0.77770420568E+02 -0.17445496963E+02 -0.35345891543E+02  0.19283917261E+03  0.17200299638E+03 0.  0.
         24    2    3    3    0    0 -0.56301406114E+02 -0.75779469247E+02 -0.38588821287E+02  0.13041820260E+03  0.81286125202E+02 0.  0.
         -6    2    1    2    0  502  0.77770420568E+02  0.17445496963E+02  0.30767390187E+03  0.36153666761E+03  0.17231641958E+03 0.  0.
        -24    2    5    5    0    0  0.66643750905E+02  0.19240298290E+02  0.77641288374E+02  0.13118016703E+03  0.79802806648E+02 0.  0.
          5    1    3    3  501    0 -0.21469014455E+02  0.58333972284E+02  0.32429297439E+01  0.62420970013E+02  0.47000000000E+01 0. -1.
        -13    1    4    4    0    0 -0.19193006945E+00 -0.62830232529E+02 -0.36782782158E+02  0.72805549377E+02  0.00000000000E+00 0.  1.
         14    1    4    4    0    0 -0.56109476044E+02 -0.12949236717E+02 -0.18060391286E+01  0.57612653218E+02  0.00000000000E+00 0. -1.
         -5    1    5    5    0  502  0.11126669663E+02 -0.17948013268E+01  0.23003261349E+03  0.23035650058E+03  0.47000000000E+01 0.  1.
         11    1    6    6    0    0  0.61550532514E+02  0.27692876146E+02  0.91787965150E+02  0.11393153202E+03  0.00000000000E+00 0. -1.
        -12    1    6    6    0    0  0.50932183912E+01 -0.84525778560E+01 -0.14146676775E+02  0.17248635012E+02  0.00000000000E+00 0.  1.
</event>
<event>
12    1  0.8494789E-002  0.1891319E+03  0.7818608E-02  0.1159266E+00
         21   -1    0    0  501  502  0.00000000000E+00  0.00000000000E+00  0.93169481825E+03  0.93169481825E+03  0.00000000000E+00 0. -1.
         21   -1    0    0  502  503 -0.00000000000E+00 -0.00000000000E+00 -0.54644365901E+02  0.54644365901E+02  0.00000000000E+00 0. -1.
         -6    2    1    2    0  503  0.54777379579E+02 -0.53605866846E+02  0.16937051589E+03  0.25382176586E+03  0.17281483414E+03 0.  0.
        -24    2    3    3    0    0  0.10283790845E+03 -0.29385023584E+02  0.11043156068E+03  0.17386956686E+03  0.81218111662E+02 0.  0.
          6    2    1    2  501    0 -0.54777379579E+02  0.53605866846E+02  0.70767993646E+03  0.73251741829E+03  0.17290669553E+03 0.  0.
         24    2    5    5    0    0  0.36932173958E+02  0.37393400942E+02  0.37454961517E+03  0.38658189363E+03  0.79974335571E+02 0.  0.
          5    1    5    5  501    0 -0.91709553537E+02  0.16212465903E+02  0.33313032128E+03  0.34593552466E+03  0.47000000000E+01 0. -1.
        -11    1    6    6    0    0  0.13903514722E+02  0.56357598310E+02  0.16485822971E+03  0.17477906772E+03  0.00000000000E+00 0.  1.
         12    1    6    6    0    0  0.23028659236E+02 -0.18964197368E+02  0.20969138546E+03  0.21180282591E+03  0.00000000000E+00 0. -1.
         -5    1    3    3    0  503 -0.48060528869E+02 -0.24220843262E+02  0.58938955216E+02  0.79952199003E+02  0.47000000000E+01 0.  1.
         13    1    4    4    0    0  0.31775834447E+02 -0.39789832282E+02  0.12512673539E+02  0.52435688295E+02  0.00000000000E+00 0. -1.
        -14    1    4    4    0    0  0.71062074000E+02  0.10404808698E+02  0.97918887138E+02  0.12143387857E+03  0.00000000000E+00 0.  1.
</event>
<event>
12    1  0.8494789E-002  0.2121939E+03  0.7818608E-02  0.1139943E+00
         21   -1    0    0  501  502  0.00000000000E+00  0.00000000000E+00  0.31167519170E+03  0.31167519170E+03  0.00000000000E+00 0.  1.
         21   -1    0    0  502  503 -0.00000000000E+00 -0.00000000000E+00 -0.14628275816E+03  0.14628275816E+03  0.00000000000E+00 0.  1.
         -6    2    1    2    0  503  0.12816751108E+02 -0.12390932797E+03  0.54872291945E+02  0.21917392736E+03  0.17178024143E+03 0.  0.
        -24    2    3    3    0    0  0.64512595951E+02 -0.76112186028E+02  0.57696430565E+02  0.14855457513E+03  0.93726430599E+02 0.  0.
          6    2    1    2  501    0 -0.12816751108E+02  0.12390932797E+03  0.11052014159E+03  0.23878402250E+03  0.17112953292E+03 0.  0.
         24    2    5    5    0    0  0.58856210200E+02  0.60432488573E+02  0.54474562558E+02  0.12774565322E+03  0.78964136145E+02 0.  0.
          5    1    5    5  501    0 -0.71672961308E+02  0.63476839393E+02  0.56045579034E+02  0.11103836928E+03  0.47000000000E+01 0. -1.
        -13    1    6    6    0    0  0.66160312143E+01  0.30654924327E+02  0.59650810724E+02  0.67392250850E+02  0.00000000000E+00 0.  1.
         14    1    6    6    0    0  0.52240178986E+02  0.29777564246E+02 -0.51762481663E+01  0.60353402373E+02  0.00000000000E+00 0. -1.
         -5    1    3    3    0  503 -0.51695844843E+02 -0.47797141938E+02 -0.28241386201E+01  0.70619352237E+02  0.47000000000E+01 0.  1.
         11    1    4    4    0    0 -0.16062083158E+02 -0.17251184046E+01  0.32114083395E+02  0.35948308739E+02  0.00000000000E+00 0. -1.
        -12    1    4    4    0    0  0.80574679109E+02 -0.74387067624E+02  0.25582347170E+02  0.11260626639E+03  0.00000000000E+00 0.  1.
</event>
<event>
12    1  0.8494789E-002  0.2246676E+03  0.7818608E-02  0.1130545E+00
         21   -1    0    0  501  502  0.00000000000E+00  0.00000000000E+00  0.17252662086E+03  0.17252662086E+03  0.00000000000E+00 0. -1.
         21   -1    0    0  502  503 -0.00000000000E+00 -0.00000000000E+00 -0.15751550134E+04  0.15751550134E+04  0.00000000000E+00 0.  1.
         -6    2    1    2    0  503 -0.12226726414E+03  0.75468650139E+02 -0.14901964798E+04  0.15070371921E+04  0.17271580393E+03 0.  0.
        -24    2    3    3    0    0 -0.12716003673E+03  0.16411690149E+01 -0.97176732881E+03  0.98333373518E+03  0.80256619806E+02 0.  0.
          6    2    1    2  501    0  0.12226726414E+03 -0.75468650139E+02  0.87568087266E+02  0.24064444216E+03  0.17203713728E+03 0.  0.
         24    2    5    5    0    0  0.68193701113E+01 -0.29599755629E+02  0.80333034284E+02  0.11611891181E+03  0.78150853737E+02 0.  0.
          5    1    5    5  501    0  0.11544789403E+03 -0.45868894510E+02  0.72350529812E+01  0.12452553036E+03  0.47000000000E+01 0. -1.
        -13    1    6    6    0    0  0.10039324350E+02  0.22747973984E+02  0.49204112999E+02  0.55129874748E+02  0.00000000000E+00 0.  1.
         14    1    6    6    0    0 -0.32199542384E+01 -0.52347729613E+02  0.31128921286E+02  0.60989037059E+02  0.00000000000E+00 0. -1.
         -5    1    3    3    0  503  0.48927725933E+01  0.73827481124E+02 -0.51842915099E+03  0.52370345692E+03  0.47000000000E+01 0.  1.
         11    1    4    4    0    0 -0.41803137382E+02  0.12094700468E+02 -0.12799595537E+03  0.13519152587E+03  0.00000000000E+00 0. -1.
        -12    1    4    4    0    0 -0.85356899350E+02 -0.10453531453E+02 -0.84377137344E+03  0.84814220931E+03  0.00000000000E+00 0.  1.
</event>
<event>
12    1  0.8494789E-002  0.1829050E+03  0.7818608E-02  0.1165171E+00
         21   -1    0    0  503  502  0.00000000000E+00  0.00000000000E+00  0.11179650744E+03  0.11179650744E+03  0.00000000000E+00 0.  1.
         21   -1    0    0  501  503 -0.00000000000E+00 -0.00000000000E+00 -0.30894785188E+03  0.30894785188E+03  0.00000000000E+00 0.  1.
          6    2    1    2  501    0 -0.57961245826E+02  0.18695176315E+02 -0.13762828357E+03  0.22839774179E+03  0.17179920948E+03 0.  0.
         24    2    3    3    0    0 -0.44581188825E+02 -0.47508247334E+02 -0.26922956650E+02  0.98629954424E+02  0.68981927728E+02 0.  0.
         -6    2    1    2    0  502  0.57961245826E+02 -0.18695176315E+02 -0.59523060870E+02  0.19234661753E+03  0.17246799954E+03 0.  0.
        -24    2    5    5    0    0 -0.92069438351E+01  0.15170627430E+02  0.17237576532E+02  0.84769929445E+02  0.81079535901E+02 0.  0.
          5    1    3    3  501    0 -0.13380057000E+02  0.66203423648E+02 -0.11070532692E+03  0.12976778736E+03  0.47000000000E+01 0. -1.
        -13    1    4    4    0    0 -0.35246021255E+02 -0.13153671367E-02 -0.34854285967E+02  0.49569176574E+02  0.00000000000E+00 0.  1.
         14    1    4    4    0    0 -0.93351675705E+01 -0.47506931967E+02  0.79313293171E+01  0.49060777849E+02  0.00000000000E+00 0. -1.
         -5    1    5    5    0  502  0.67168189661E+02 -0.33865803745E+02 -0.76760637401E+02  0.10757668809E+03  0.47000000000E+01 0.  1.
         11    1    6    6    0    0  0.24094043020E+01 -0.39081211602E+01 -0.31144192124E+02  0.31480777359E+02  0.00000000000E+00 0. -1.
        -12    1    6    6    0    0 -0.11616348137E+02  0.19078748590E+02  0.48381768655E+02  0.53289152086E+02  0.00000000000E+00 0.  1.
</event>
<event>
12    1  0.8494789E-002  0.1965411E+03  0.7818608E-02  0.1152766E+00
         21   -1    0    0  503  502  0.00000000000E+00  0.00000000000E+00  0.27603425135E+02  0.27603425135E+02  0.00000000000E+00 0.  1.
         21   -1    0    0  501  503 -0.00000000000E+00 -0.00000000000E+00 -0.14338150382E+04  0.14338150382E+04  0.00000000000E+00 0.  1.
          6    2    1    2  501    0  0.77306232346E+02  0.53112736212E+02 -0.81973338965E+03  0.84288382234E+03  0.17231683476E+03 0.  0.
         24    2    3    3    0    0 -0.17932702806E+02  0.10602158993E+02 -0.47038812080E+03  0.47827195910E+03  0.83935064586E+02 0.  0.
         -6    2    1    2    0  502 -0.77306232346E+02 -0.53112736212E+02 -0.58647822341E+03  0.61853464099E+03  0.17271704973E+03 0.  0.
        -24    2    5    5    0    0  0.24838278435E+02 -0.36118921246E+02 -0.21766830249E+03  0.23543525624E+03  0.78286355286E+02 0.  0.
          5    1    3    3  501    0  0.95238935152E+02  0.42510577219E+02 -0.34934526885E+03  0.36461186324E+03  0.47000000000E+01 0. -1.
        -11    1    4    4    0    0  0.63637397485E+01 -0.33744851052E+02 -0.23649870462E+03  0.23897876358E+03  0.00000000000E+00 0.  1.
         12    1    4    4    0    0 -0.24296442555E+02  0.44347010044E+02 -0.23388941617E+03  0.23929319551E+03  0.00000000000E+00 0. -1.
         -5    1    5    5    0  502 -0.10214451078E+03 -0.16993814966E+02 -0.36880992091E+03  0.38309938475E+03  0.47000000000E+01 0.  1.
         11    1    6    6    0    0  0.25004822922E+02 -0.53151151601E+02 -0.20737524898E+03  0.21553370961E+03  0.00000000000E+00 0. -1.
        -12    1    6    6    0    0 -0.16654448673E+00  0.17032230354E+02 -0.10293053508E+02  0.19901546634E+02  0.00000000000E+00 0.  1.
</event>
<event>
12    1  0.8494789E-002  0.2862149E+03  0.7818608E-02  0.1092390E+00
         21   -1    0    0  503  502  0.00000000000E+00  0.00000000000E+00  0.70343820350E+03  0.70343820350E+03  0.00000000000E+00 0.  1.
         21   -1    0    0  501  503 -0.00000000000E+00 -0.00000000000E+00 -0.13133677390E+03  0.13133677390E+03  0.00000000000E+00 0.  1.
          6    2    1    2  501    0 -0.22052657394E+03 -0.60661452559E+02  0.42740792895E+03  0.51438947441E+03  0.17206746355E+03 0.  0.
         24    2    3    3    0    0 -0.23416762208E+03 -0.75437305487E+02  0.41700638870E+03  0.49126619472E+03  0.83203867493E+02 0.  0.
         -6    2    1    2    0  502  0.22052657394E+03  0.60661452559E+02  0.14469350065E+03  0.32038550299E+03  0.17146101526E+03 0.  0.
        -24    2    5    5    0    0  0.19043855256E+03  0.44229007410E+02  0.46813043410E+02  0.21656841290E+03  0.80544205464E+02 0.  0.
          5    1    3    3  501    0  0.13641048138E+02  0.14775852928E+02  0.10401540241E+02  0.23123279686E+02  0.47000000000E+01 0. -1.
        -13    1    4    4    0    0 -0.24094980536E+02  0.55035833315E+01  0.96368636519E+02  0.99487545055E+02  0.00000000000E+00 0.  1.
         14    1    4    4    0    0 -0.21007264154E+03 -0.80940888818E+02  0.32063775219E+03  0.39177864966E+03  0.00000000000E+00 0. -1.
         -5    1    5    5    0  502  0.30088021376E+02  0.16432445149E+02  0.97880457244E+02  0.10381709009E+03  0.47000000000E+01 0.  1.
         11    1    6    6    0    0 -0.18681519602E+00  0.37688851449E+01  0.19416926546E+02  0.19780203024E+02  0.00000000000E+00 0. -1.
        -12    1    6    6    0    0  0.19062536776E+03  0.40460122265E+02  0.27396116864E+02  0.19678820987E+03  0.00000000000E+00 0.  1.
</event>
<event>
12    1  0.8494789E-002  0.1789632E+03  0.7818608E-02  0.1168992E+00
         21   -1    0    0  503  502  0.00000000000E+00  0.00000000000E+00  0.32007593062E+03  0.32007593062E+03  0.00000000000E+00 0. -1.
         21   -1    0    0  501  503 -0.00000000000E+00 -0.00000000000E+00 -0.12749217289E+03  0.12749217289E+03  0.00000000000E+00 0. -1.
          6    2    1    2  501    0 -0.97177832757E+01  0.47409011893E+02 -0.81340949576E+01  0.17914793781E+03  0.17229559020E+03 0.  0.
         24    2    3    3    0    0 -0.28325435266E+02 -0.27692807104E+02  0.28024779197E+02  0.93613838711E+02  0.80055859879E+02 0.  0.
         -6    2    1    2    0  502  0.97177832757E+01 -0.47409011893E+02  0.20071785269E+03  0.26842016569E+03  0.17152165823E+03 0.  0.
        -24    2    5    5    0    0  0.12802949948E+01 -0.94203108129E+02  0.94408059662E+02  0.15186656967E+03  0.72627188564E+02 0.  0.
          5    1    3    3  501    0  0.18607651990E+02  0.75101818997E+02 -0.36158874154E+02  0.85534099103E+02  0.47000000000E+01 0. -1.
        -13    1    4    4    0    0  0.16900059173E+02  0.16560397813E+02  0.17592618875E+02  0.29484894686E+02  0.00000000000E+00 0.  1.
         14    1    4    4    0    0 -0.45225494439E+02 -0.44253204917E+02  0.10432160322E+02  0.64128944025E+02  0.00000000000E+00 0. -1.
         -5    1    5    5    0  502  0.84374882810E+01  0.46794096236E+02  0.10630979303E+03  0.11655359602E+03  0.47000000000E+01 0.  1.
         11    1    6    6    0    0  0.27404668734E+02 -0.42872675568E+02  0.75885085590E+02  0.91365356639E+02  0.00000000000E+00 0. -1.
        -12    1    6    6    0    0 -0.26124373739E+02 -0.51330432560E+02  0.18522974072E+02  0.60501213034E+02  0.00000000000E+00 0.  1.
</event>
<event>
12    1  0.8494789E-002  0.1767241E+03  0.7818608E-02  0.1171140E+00
         21   -1    0    0  501  502  0.00000000000E+00  0.00000000000E+00  0.14919867585E+04  0.14919867585E+04  0.00000000000E+00 0.  1.
         21   -1    0    0  502  503 -0.00000000000E+00 -0.00000000000E+00 -0.23564197368E+02  0.23564197368E+02  0.00000000000E+00 0.  1.
         -6    2    1    2    0  503  0.32878532557E+02 -0.21819344472E+02  0.47900874760E+03  0.51056908762E+03  0.17226239075E+03 0.  0.
        -24    2    3    3    0    0  0.68964160227E+02  0.32953227418E+02  0.31170314709E+03  0.33080407123E+03  0.80190467312E+02 0.  0.
          6    2    1    2  501    0 -0.32878532557E+02  0.21819344472E+02  0.98941381349E+03  0.10049818682E+04  0.17173170758E+03 0.  0.
         24    2    5    5    0    0 -0.67692470346E+02  0.18618257887E+02  0.32057688567E+03  0.33521535423E+03  0.68343865979E+02 0.  0.
          5    1    5    5  501    0  0.34813937789E+02  0.32010865846E+01  0.66883692783E+03  0.66976651398E+03  0.47000000000E+01 0. -1.
        -11    1    6    6    0    0 -0.77047201284E+02  0.24505906181E+01  0.28212361916E+03  0.29246540497E+03  0.00000000000E+00 0.  1.
         12    1    6    6    0    0  0.93547309378E+01  0.16167667269E+02  0.38453266511E+02  0.42749949254E+02  0.00000000000E+00 0. -1.
         -5    1    3    3    0  503 -0.36085627670E+02 -0.54772571890E+02  0.16730560051E+03  0.17976501639E+03  0.47000000000E+01 0.  1.
         11    1    4    4    0    0 -0.15654020001E+02 -0.29180536887E+01  0.24209039580E+02  0.28976559094E+02  0.00000000000E+00 0. -1.
        -12    1    4    4    0    0  0.84618180228E+02  0.35871281107E+02  0.28749410751E+03  0.30182751214E+03  0.00000000000E+00 0.  1.
</event>
<event>
12    1  0.8494789E-002  0.2270030E+03  0.7818608E-02  0.1129009E+00
         21   -1    0    0  501  502  0.00000000000E+00  0.00000000000E+00  0.20045541815E+03  0.20045541815E+03  0.00000000000E+00 0. -1.
         21   -1    0    0  502  503 -0.00000000000E+00 -0.00000000000E+00 -0.27958230225E+03  0.27958230225E+03  0.00000000000E+00 0.  1.
         -6    2    1    2    0  503  0.11096430735E+03 -0.92963149456E+02  0.30706759343E+02  0.22907046992E+03  0.17485751473E+03 0.  0.
        -24    2    3    3    0    0  0.64391103471E+00 -0.33745032094E+02  0.52529571604E+02  0.10188674296E+03  0.80513419295E+02 0.  0.
          6    2    1    2  501    0 -0.11096430735E+03  0.92963149456E+02 -0.10983364344E+03  0.25096725048E+03  0.17310663454E+03 0.  0.
         24    2    5    5    0    0  0.19892580147E+01  0.36177241463E+02 -0.59119903893E+01  0.87245085682E+02  0.79145457217E+02 0.  0.
          5    1    5    5  501    0 -0.11295356536E+03  0.56785907993E+02 -0.10392165305E+03  0.16372216480E+03  0.47000000000E+01 0. -1.
        -11    1    6    6    0    0  0.32179464849E+01  0.42457358159E+02 -0.36446296671E+02  0.56047435111E+02  0.00000000000E+00 0.  1.
         12    1    6    6    0    0 -0.12286884702E+01 -0.62801166963E+01  0.30534306282E+02  0.31197650572E+02  0.00000000000E+00 0. -1.
         -5    1    3    3    0  503  0.11032039631E+03 -0.59218117362E+02 -0.21822812261E+02  0.12718372695E+03  0.47000000000E+01 0.  1.
         13    1    4    4    0    0  0.20721449409E+02 -0.39370058452E+02 -0.93521926871E+00  0.44500051722E+02  0.00000000000E+00 0. -1.
        -14    1    4    4    0    0 -0.20077538375E+02  0.56250263585E+01  0.53464790872E+02  0.57386691242E+02  0.00000000000E+00 0.  1.
</event>
<event>
12    1  0.8494789E-002  0.2029793E+03  0.7818608E-02  0.1147365E+00
         21   -1    0    0  503  502  0.00000000000E+00  0.00000000000E+00  0.67969974086E+02  0.67969974086E+02  0.00000000000E+00 0. -1.
         21   -1    0    0  501  503 -0.00000000000E+00 -0.00000000000E+00 -0.60625267585E+03  0.60625267585E+03  0.00000000000E+00 0. -1.
          6    2    1    2  501    0  0.10404949650E+03 -0.26869822755E+02 -0.28692386076E+03  0.35114083467E+03  0.17154095372E+03 0.  0.
         24    2    3    3    0    0  0.12981809111E+03 -0.38555285131E+02 -0.28207954681E+03  0.32205255737E+03  0.76221599224E+02 0.  0.
         -6    2    1    2    0  502 -0.10404949650E+03  0.26869822755E+02 -0.25135884100E+03  0.32308181526E+03  0.17219845326E+03 0.  0.
        -24    2    5    5    0    0 -0.94882329056E+02  0.68902145083E+02 -0.22630646683E+03  0.27307717017E+03  0.98012050145E+02 0.  0.
          5    1    3    3  501    0 -0.25768594606E+02  0.11685462377E+02 -0.48443139518E+01  0.29088277305E+02  0.47000000000E+01 0. -1.
        -13    1    4    4    0    0  0.43356786744E+02 -0.45999776083E+02 -0.16200876603E+03  0.17390408456E+03  0.00000000000E+00 0.  1.
         14    1    4    4    0    0  0.86461304366E+02  0.74444909511E+01 -0.12007078078E+03  0.14814847281E+03  0.00000000000E+00 0. -1.
         -5    1    5    5    0  502 -0.91671674486E+01 -0.42032322328E+02 -0.25052374174E+02  0.50004645095E+02  0.47000000000E+01 0.  1.
         13    1    6    6    0    0  0.46860712635E+01 -0.19213412193E+02 -0.26215072292E+02  0.32838155966E+02  0.00000000000E+00 0. -1.
        -14    1    6    6    0    0 -0.99568400319E+02  0.88115557276E+02 -0.20009139454E+03  0.24023901420E+03  0.00000000000E+00 0.  1.
</event>
<event>
12    1  0.8494789E-002  0.2765837E+03  0.7818608E-02  0.1097682E+00
         21   -1    0    0  501  502  0.00000000000E+00  0.00000000000E+00  0.52229940138E+03  0.52229940138E+03  0.00000000000E+00 0. -1.
         21   -1    0    0  502  503 -0.00000000000E+00 -0.00000000000E+00 -0.20735740149E+03  0.20735740149E+03  0.00000000000E+00 0.  1.
         -6    2    1    2    0  503 -0.10554429729E+03 -0.18838978545E+03 -0.41083697356E+02  0.27882106923E+03  0.17153136304E+03 0.  0.
        -24    2    3    3    0    0 -0.15348023186E+02 -0.15964371287E+03 -0.45619587220E+02  0.18392971637E+03  0.77635796837E+02 0.  0.
          6    2    1    2  501    0  0.10554429729E+03  0.18838978545E+03  0.35602569725E+03  0.45083573365E+03  0.17282433763E+03 0.  0.
         24    2    5    5    0    0  0.15306463012E+02  0.14378763892E+03  0.15774971975E+03  0.22842244388E+03  0.79891588238E+02 0.  0.
          5    1    5    5  501    0  0.90237834278E+02  0.44602146525E+02  0.19827597750E+03  0.22241328976E+03  0.47000000000E+01 0. -1.
        -13    1    6    6    0    0 -0.30282763914E+02  0.35856991623E+02  0.33632718631E+02  0.57740188786E+02  0.00000000000E+00 0.  1.
         14    1    6    6    0    0  0.45589226926E+02  0.10793064730E+03  0.12411700112E+03  0.17068225510E+03  0.00000000000E+00 0. -1.
         -5    1    3    3    0  503 -0.90196274104E+02 -0.28746072579E+02  0.45358898639E+01  0.94891352861E+02  0.47000000000E+01 0.  1.
         13    1    4    4    0    0 -0.11093413476E+02 -0.44349781401E+02  0.21429163721E+02  0.50489365124E+02  0.00000000000E+00 0. -1.
        -14    1    4    4    0    0 -0.42546097098E+01 -0.11529393147E+03 -0.67048750941E+02  0.13344035124E+03  0.00000000000E+00 0.  1.
</event>
<event>
12    1  0.8494789E-002  0.1995657E+03  0.7818608E-02  0.1150165E+00
         21   -1    0    0  501  502  0.00000000000E+00  0.00000000000E+00  0.15037913703E+04  0.15037913703E+04  0.00000000000E+00 0. -1.
         21   -1    0    0  502  503 -0.00000000000E+00 -0.00000000000E+00 -0.49346559798E+02  0.49346559798E+02  0.00000000000E+00 0. -1.
         -6    2    1    2    0  503  0.87652864229E+02 -0.46701588142E+02  0.19848467458E+03  0.28146513434E+03  0.17309648425E+03 0.  0.
        -24    2    3    3    0    0  0.20982271305E+02  0.32739518135E+02  0.98559509233E+02  0.13737146342E+03  0.87434606110E+02 0.  0.
          6    2    1    2  501    0 -0.87652864229E+02  0.46701588142E+02  0.12559601359E+04  0.12716727958E+04  0.17277665791E+03 0.  0.
         24    2    5    5    0    0 -0.62532862888E+02 -0.29799959777E+02  0.46204781366E+03  0.47367381911E+03  0.77976331403E+02 0.  0.
          5    1    5    5  501    0 -0.25120001341E+02  0.76501547919E+02  0.79391232226E+03  0.79799897665E+03  0.47000000000E+01 0. -1.
        -11    1    6    6    0    0 -0.52678762726E+01  0.79800223935E+01  0.37523077959E+01  0.10271859210E+02  0.00000000000E+00 0.  1.
         12    1    6    6    0    0 -0.57264986615E+02 -0.37779982170E+02  0.45829550587E+03  0.46340195990E+03  0.00000000000E+00 0. -1.
         -5    1    3    3    0  503  0.66670592923E+02 -0.79441106277E+02  0.99925165349E+02  0.14409367091E+03  0.47000000000E+01 0.  1.
         11    1    4    4    0    0  0.24037769961E+02 -0.26833373867E+02  0.38297534838E+02  0.52578945524E+02  0.00000000000E+00 0. -1.
        -12    1    4    4    0    0 -0.30554986554E+01  0.59572892002E+02  0.60261974395E+02  0.84792517898E+02  0.00000000000E+00 0.  1.
</event>
<event>
12    1  0.8494789E-002  0.2517119E+03  0.7818608E-02  0.1113138E+00
         21   -1    0    0  501  502  0.00000000000E+00  0.00000000000E+00  0.34322750831E+03  0.34322750831E+03  0.00000000000E+00 0. -1.
         21   -1    0    0  502  503 -0.00000000000E+00 -0.00000000000E+00 -0.33245744682E+03  0.33245744682E+03  0.00000000000E+00 0. -1.
         -6    2    1    2    0  503 -0.17131832975E+03 -0.45337874987E+02 -0.22304660304E+03  0.33631629458E+03  0.17875505547E+03 0.  0.
        -24    2    3    3    0    0 -0.17168435193E+03 -0.83315402773E+02 -0.21093017826E+03  0.29617498994E+03  0.82529458557E+02 0.  0.
          6    2    1    2  501    0  0.17131832975E+03  0.45337874987E+02  0.23381666454E+03  0.33936866055E+03  0.17057362672E+03 0.  0.
         24    2    5    5    0    0  0.71236741052E+02  0.34685076456E+01  0.35019431381E+02  0.11284758377E+03  0.80134341993E+02 0.  0.
          5    1    5    5  501    0  0.10008158870E+03  0.41869367341E+02  0.19879723315E+03  0.22652107679E+03  0.47000000000E+01 0. -1.
        -11    1    6    6    0    0 -0.29013990300E+01 -0.43298798035E+01 -0.19697087139E+02  0.20375014533E+02  0.00000000000E+00 0.  1.
         12    1    6    6    0    0  0.74138140082E+02  0.77983874491E+01  0.54716518521E+02  0.92472569233E+02  0.00000000000E+00 0. -1.
         -5    1    3    3    0  503  0.36602217399E+00  0.37977527786E+02 -0.12116424789E+02  0.40141304645E+02  0.47000000000E+01 0.  1.
         11    1    4    4    0    0 -0.16107005501E+03 -0.73641626469E+02 -0.21741206451E+03  0.28041871829E+03  0.00000000000E+00 0. -1.
        -12    1    4    4    0    0 -0.10614296914E+02 -0.96737763040E+01  0.64818862535E+01  0.15756271652E+02  0.00000000000E+00 0.  1.
</event>
<event>
12    1  0.8494789E-002  0.2029541E+03  0.7818608E-02  0.1148519E+00
         21   -1    0    0  501  502  0.00000000000E+00  0.00000000000E+00  0.24366733943E+03  0.24366733943E+03  0.00000000000E+00 0.  1.
         21   -1    0    0  502  503 -0.00000000000E+00 -0.00000000000E+00 -0.16544315728E+03  0.16544315728E+03  0.00000000000E+00 0. -1.
         -6    2    1    2    0  503  0.97273450411E+02  0.44096291952E+01  0.57881138200E+02  0.21104641501E+03  0.17806963285E+03 0.  0.
        -24    2    3    3    0    0  0.10301129612E+03 -0.55844327319E+02  0.46530191026E+02  0.14928561716E+03  0.79945111122E+02 0.  0.
          6    2    1    2  501    0 -0.97273450411E+02 -0.44096291952E+01  0.20343043945E+02  0.19806408171E+03  0.17127163233E+03 0.  0.
         24    2    5    5    0    0  0.58493249774E+00 -0.19593853300E+02 -0.29849899820E+02  0.86941422583E+02  0.79268740424E+02 0.  0.
          5    1    5    5  501    0 -0.97858382909E+02  0.15184224104E+02  0.50192943766E+02  0.11112265913E+03  0.47000000000E+01 0. -1.
        -13    1    6    6    0    0  0.12492955392E+02  0.22064431362E+02  0.10772813444E+02  0.27549348001E+02  0.00000000000E+00 0.  1.
         14    1    6    6    0    0 -0.11908022894E+02 -0.41658284662E+02 -0.40622713265E+02  0.59392074583E+02  0.00000000000E+00 0. -1.
         -5    1    3    3    0  503 -0.57378457058E+01  0.60253956514E+02  0.11350947173E+02  0.61760797847E+02  0.47000000000E+01 0.  1.
         11    1    4    4    0    0  0.32029003689E+02 -0.48192016286E+02 -0.93604624072E+01  0.58616940960E+02  0.00000000000E+00 0. -1.
        -12    1    4    4    0    0  0.70982292428E+02 -0.76523110326E+01  0.55890653434E+02  0.90668676199E+02  0.00000000000E+00 0.  1.
</event>
<event>
12    1  0.8494789E-002  0.1824179E+03  0.7818608E-02  0.1166831E+00
         21   -1    0    0  501  502  0.00000000000E+00  0.00000000000E+00  0.35933090545E+03  0.35933090545E+03  0.00000000000E+00 0.  1.
         21   -1    0    0  502  503 -0.00000000000E+00 -0.00000000000E+00 -0.20880420722E+03  0.20880420722E+03  0.00000000000E+00 0.  1.
         -6    2    1    2    0  503 -0.12903742690E+01 -0.43272098030E+02 -0.13867826347E+03  0.22914612917E+03  0.17720651292E+03 0.  0.
        -24    2    3    3    0    0 -0.59992396602E+02 -0.61125652544E+02 -0.68230857725E+02  0.13560681224E+03  0.79989527636E+02 0.  0.
          6    2    1    2  501    0  0.12903742690E+01  0.43272098030E+02  0.28920496169E+03  0.33898898350E+03  0.17146393653E+03 0.  0.
         24    2    5    5    0    0 -0.50328622175E+02  0.39020685667E+02  0.10153243475E+03  0.14424386118E+03  0.80261273725E+02 0.  0.
          5    1    5    5  501    0  0.51618996444E+02  0.42514123631E+01  0.18767252694E+03  0.19474512232E+03  0.47000000000E+01 0. -1.
        -13    1    6    6    0    0 -0.68348805477E+02  0.11543203327E+02  0.63792215508E+02  0.94203245765E+02  0.00000000000E+00 0.  1.
         14    1    6    6    0    0  0.18020183302E+02  0.27477482340E+02  0.37740219247E+02  0.50040615412E+02  0.00000000000E+00 0. -1.
         -5    1    3    3    0  503  0.58702022333E+02  0.17853554514E+02 -0.70447405744E+02  0.93539316925E+02  0.47000000000E+01 0.  1.
         11    1    4    4    0    0 -0.69275950554E+02 -0.24652512876E+02 -0.23601400704E+02  0.77226484003E+02  0.00000000000E+00 0. -1.
        -12    1    4    4    0    0  0.92835539519E+01 -0.36473139668E+02 -0.44629457021E+02  0.58380328239E+02  0.00000000000E+00 0.  1.
</event>
<event>
12    1  0.8494789E-002  0.1917145E+03  0.7818608E-02  0.1157020E+00
         21   -1    0    0  501  502  0.00000000000E+00  0.00000000000E+00  0.58344561141E+02  0.58344561141E+02  0.00000000000E+00 0.  1.
         21   -1    0    0  502  503 -0.00000000000E+00 -0.00000000000E+00 -0.80031519625E+03  0.80031519625E+03  0.00000000000E+00 0. -1.
         -6    2    1    2    0  503  0.59669423439E+01 -0.83543766431E+02 -0.17240949124E+03  0.25783615858E+03  0.17245082397E+03 0.  0.
        -24    2    3    3    0    0 -0.37697982441E+02 -0.95620148871E+02 -0.75248187765E+02  0.15052877969E+03  0.80201452631E+02 0.  0.
          6    2    1    2  501    0 -0.59669423439E+01  0.83543766431E+02 -0.56956114387E+03  0.60082359882E+03  0.17197073873E+03 0.  0.
         24    2    5    5    0    0  0.18829826846E+01  0.24932300970E+02 -0.11311788608E+03  0.14054166045E+03  0.79568441705E+02 0.  0.
          5    1    5    5  501    0 -0.78499250286E+01  0.58611465461E+02 -0.45644325779E+03  0.46028193837E+03  0.47000000000E+01 0. -1.
        -13    1    6    6    0    0  0.28885466878E+02 -0.13090164909E+02 -0.23347427649E+02  0.39380515384E+02  0.00000000000E+00 0.  1.
         14    1    6    6    0    0 -0.27002484193E+02  0.38022465879E+02 -0.89770458434E+02  0.10116114507E+03  0.00000000000E+00 0. -1.
         -5    1    3    3    0  503  0.43664924785E+02  0.12076382440E+02 -0.97161303477E+02  0.10730737888E+03  0.47000000000E+01 0.  1.
         11    1    4    4    0    0  0.64679906735E-01  0.96158503313E+01 -0.27173905616E+02  0.28825161015E+02  0.00000000000E+00 0. -1.
        -12    1    4    4    0    0 -0.37762662348E+02 -0.10523599920E+03 -0.48074282149E+02  0.12170361868E+03  0.00000000000E+00 0.  1.
</event>
<event>
12    1  0.8494789E-002  0.2019862E+03  0.7818608E-02  0.1148325E+00
         21   -1    0    0  503  502  0.00000000000E+00  0.00000000000E+00  0.26658829282E+03  0.26658829282E+03  0.00000000000E+00 0. -1.
         21   -1    0    0  501  503 -0.00000000000E+00 -0.00000000000E+00 -0.34455544381E+03  0.34455544381E+03  0.00000000000E+00 0. -1.
          6    2    1    2  501    0  0.43230564539E+02  0.96030090621E+02 -0.26728852256E+03  0.33430263555E+03  0.17095156573E+03 0.  0.
         24    2    3    3    0    0  0.29109851259E+02  0.10187962909E+03 -0.97379389492E+02  0.16364269548E+03  0.77905994779E+02 0.  0.
         -6    2    1    2    0  502 -0.43230564539E+02 -0.96030090621E+02  0.18932137157E+03  0.27684110108E+03  0.17235937311E+03 0.  0.
        -24    2    5    5    0    0 -0.64207453086E+02 -0.11905401708E+03  0.11080046673E+03  0.19223759323E+03  0.79888001653E+02 0.  0.
          5    1    3    3  501    0  0.14120713280E+02 -0.58495384671E+01 -0.16990913307E+03  0.17065994007E+03  0.47000000000E+01 0. -1.
        -11    1    4    4    0    0  0.11259422015E+02  0.25923125315E+02  0.10803892983E+02  0.30257348096E+02  0.00000000000E+00 0.  1.
         12    1    4    4    0    0  0.17850429244E+02  0.75956503773E+02 -0.10818328248E+03  0.13338534738E+03  0.00000000000E+00 0. -1.
         -5    1    5    5    0  502  0.20976888547E+02  0.23023926463E+02  0.78520904843E+02  0.84603507848E+02  0.47000000000E+01 0.  1.
         13    1    6    6    0    0 -0.52876992426E+02 -0.18678079687E+02  0.39986877202E+02  0.68875230215E+02  0.00000000000E+00 0. -1.
        -14    1    6    6    0    0 -0.11330460660E+02 -0.10037593740E+03  0.70813589529E+02  0.12336236302E+03  0.00000000000E+00 0.  1.
</event>
<event>
12    1  0.8494789E-002  0.1797377E+03  0.7818608E-02  0.1168520E+00
         21   -1    0    0  501  502  0.00000000000E+00  0.00000000000E+00  0.17697154966E+03  0.17697154966E+03  0.00000000000E+00 0. -1.
         21   -1    0    0  502  503 -0.00000000000E+00 -0.00000000000E+00 -0.19492055765E+03  0.19492055765E+03  0.00000000000E+00 0. -1.
         -6    2    1    2    0  503  0.27736493060E+02 -0.35096011956E+02 -0.59375454432E+02  0.18929105335E+03  0.17408220813E+03 0.  0.
        -24    2    3    3    0    0  0.73508877316E+02 -0.16872052822E+02 -0.79918662827E+02  0.13570619300E+03  0.79630125834E+02 0.  0.
          6    2    1    2  501    0 -0.27736493060E+02  0.35096011956E+02  0.41426446434E+02  0.18260105396E+03  0.17212190837E+03 0.  0.
         24    2    5    5    0    0  0.33202336444E+02  0.63713490287E+02  0.39450419318E+02  0.11508442127E+03  0.80785422226E+02 0.  0.
          5    1    5    5  501    0 -0.60938829503E+02 -0.28617478331E+02  0.19760271158E+01  0.67516632695E+02  0.47000000000E+01 0. -1.
        -11    1    6    6    0    0 -0.11190313411E+02  0.29148282892E+02 -0.16859592785E+02  0.35483677637E+02  0.00000000000E+00 0.  1.
         12    1    6    6    0    0  0.44392649855E+02  0.34565207395E+02  0.56310012103E+02  0.79600743630E+02  0.00000000000E+00 0. -1.
         -5    1    3    3    0  503 -0.45772384256E+02 -0.18223959134E+02  0.20543208395E+02  0.53584860345E+02  0.47000000000E+01 0.  1.
         11    1    4    4    0    0  0.81474742917E+02  0.73708391140E+01 -0.48032057334E+02  0.94865913448E+02  0.00000000000E+00 0. -1.
        -12    1    4    4    0    0 -0.79658656007E+01 -0.24242891936E+02 -0.31886605492E+02  0.40840279554E+02  0.00000000000E+00 0.  1.
</event>
<event>
12    1  0.8494789E-002  0.1923239E+03  0.7818608E-02  0.1156512E+00
         21   -1    0    0  503  502  0.00000000000E+00  0.00000000000E+00  0.38732198461E+03  0.38732198461E+03  0.00000000000E+00 0. -1.
         21   -1    0    0  501  503 -0.00000000000E+00 -0.00000000000E+00 -0.11911482572E+03  0.11911482572E+03  0.00000000000E+00 0. -1.
          6    2    1    2  501    0  0.59669070224E+02  0.60975110384E+02  0.20498737522E+02  0.19283204271E+03  0.17171382131E+03 0.  0.
         24    2    3    3    0    0  0.12350454374E+02 -0.16658434330E+02  0.50347201516E+02  0.97024738847E+02  0.80305180967E+02 0.  0.
         -6    2    1    2    0  502 -0.59669070224E+02 -0.60975110384E+02  0.24770842137E+03  0.31360476761E+03  0.17236625605E+03 0.  0.
        -24    2    5    5    0    0 -0.66249194863E+02 -0.17791223201E+02  0.57276027147E+02  0.11817003958E+03  0.77318377675E+02 0.  0.
          5    1    3    3  501    0  0.47318615850E+02  0.77633544713E+02 -0.29848463994E+02  0.95807303863E+02  0.47000000000E+01 0. -1.
        -11    1    4    4    0    0 -0.53327117258E+01  0.13957986626E+02  0.58802803278E+02  0.60671516203E+02  0.00000000000E+00 0.  1.
         12    1    4    4    0    0  0.17683166100E+02 -0.30616420955E+02 -0.84556017620E+01  0.36353222644E+02  0.00000000000E+00 0. -1.
         -5    1    5    5    0  502  0.65801246383E+01 -0.43183887183E+02  0.19043239422E+03  0.19543472803E+03  0.47000000000E+01 0.  1.
         11    1    6    6    0    0 -0.76265320681E+02 -0.21974966847E+02  0.66793515795E+02  0.10373365924E+03  0.00000000000E+00 0. -1.
        -12    1    6    6    0    0  0.10016125819E+02  0.41837436466E+01 -0.95174886476E+01  0.14436380345E+02  0.00000000000E+00 0.  1.
</event>
<event>
12    1  0.8494789E-002  0.1760306E+03  0.7818608E-02  0.1172016E+00
         21   -1    0    0  503  502  0.00000000000E+00  0.00000000000E+00  0.13030188908E+03  0.13030188908E+03  0.00000000000E+00 0. -1.
         21   -1    0    0  501  503 -0.00000000000E+00 -0.00000000000E+00 -0.24602195535E+03  0.24602195535E+03  0.00000000000E+00 0. -1.
          6    2    1    2  501    0 -0.11100063745E+02  0.30183664133E+02 -0.95832171900E+02  0.20042598758E+03  0.17306792404E+03 0.  0.
         24    2    3    3    0    0 -0.25291636301E+02  0.50708642970E+01 -0.13020226733E+03  0.15531006016E+03  0.80642444392E+02 0.  0.
         -6    2    1    2    0  502  0.11100063745E+02 -0.30183664133E+02 -0.19887894372E+02  0.17589785685E+03  0.17178551367E+03 0.  0.
        -24    2    5    5    0    0 -0.29115189047E+02  0.24600997750E+02 -0.50546398586E+02  0.10119404426E+03  0.78945505633E+02 0.  0.
          5    1    3    3  501    0  0.14191572556E+02  0.25112799836E+02  0.34370095428E+02  0.45115927419E+02  0.47000000000E+01 0. -1.
        -11    1    4    4    0    0  0.63434423705E+01 -0.22445716913E+02 -0.58041427907E+01  0.24036171542E+02  0.00000000000E+00 0.  1.
         12    1    4    4    0    0 -0.31635078671E+02  0.27516581210E+02 -0.12439812454E+03  0.13127388862E+03  0.00000000000E+00 0. -1.
         -5    1    5    5    0  502  0.40215252792E+02 -0.54784661883E+02  0.30658504214E+02  0.74703812590E+02  0.47000000000E+01 0.  1.
         11    1    6    6    0    0 -0.13569636642E+02  0.42592937090E+01  0.20910730759E+02  0.25289034824E+02  0.00000000000E+00 0. -1.
        -12    1    6    6    0    0 -0.15545552405E+02  0.20341704041E+02 -0.71457129345E+02  0.75905009434E+02  0.00000000000E+00 0.  1.
</event>
<event>
12    1  0.8494789E-002  0.2010142E+03  0.7818608E-02  0.1149064E+00
         21   -1    0    0  503  502  0.00000000000E+00  0.00000000000E+00  0.15777270260E+03  0.15777270260E+03  0.00000000000E+00 0. -1.
         21   -1    0    0  501  503 -0.00000000000E+00 -0.00000000000E+00 -0.48131157075E+03  0.48131157075E+03  0.00000000000E+00 0. -1.
          6    2    1    2  501    0  0.10733962735E+02  0.10316454378E+03 -0.38104989472E+03  0.43081984836E+03  0.17218762565E+03 0.  0.
         24    2    3    3    0    0 -0.40291243154E+02  0.54625729960E+01 -0.17908899727E+03  0.20069044818E+03  0.80935548843E+02 0.  0.
         -6    2    1    2    0  502 -0.10733962735E+02 -0.10316454378E+03  0.57511026576E+02  0.20826442499E+03  0.17119699615E+03 0.  0.
        -24    2    5    5    0    0  0.22310727846E+02 -0.73665577461E+02  0.97309984487E+02  0.14853011625E+03  0.81655229311E+02 0.  0.
          5    1    3    3  501    0  0.51025205889E+02  0.97701970787E+02 -0.20196089744E+03  0.23012940018E+03  0.47000000000E+01 0. -1.
        -13    1    4    4    0    0  0.18276239547E+02  0.11812630466E+02 -0.15224890652E+02  0.26558547887E+02  0.00000000000E+00 0.  1.
         14    1    4    4    0    0 -0.58567482701E+02 -0.63500574702E+01 -0.16386410662E+03  0.17413190029E+03  0.00000000000E+00 0. -1.
         -5    1    5    5    0  502 -0.33044690580E+02 -0.29498966321E+02 -0.39798957911E+02  0.59734308738E+02  0.47000000000E+01 0.  1.
         13    1    6    6    0    0  0.30898099796E+01 -0.78763962484E+02  0.41078799597E+02  0.88886312153E+02  0.00000000000E+00 0. -1.
        -14    1    6    6    0    0  0.19220917866E+02  0.50983850226E+01  0.56231184890E+02  0.59643804100E+02  0.00000000000E+00 0.  1.
</event>
<event>
12    1  0.8494789E-002  0.2003580E+03  0.7818608E-02  0.1149524E+00
         21   -1    0    0  503  502  0.00000000000E+00  0.00000000000E+00  0.18249825743E+03  0.18249825743E+03  0.00000000000E+00 0.  1.
         21   -1    0    0  501  503 -0.00000000000E+00 -0.00000000000E+00 -0.22934233966E+03  0.22934233966E+03  0.00000000000E+00 0.  1.
          6    2    1    2  501    0 -0.12475674747E+02 -0.10088736502E+03  0.19181895532E+02  0.20127413982E+03  0.17265408006E+03 0.  0.
         24    2    3    3    0    0 -0.17689615980E+02 -0.75265035857E+02 -0.54325885910E+02  0.12311294185E+03  0.78916072094E+02 0.  0.
         -6    2    1    2    0  502  0.12475674747E+02  0.10088736502E+03 -0.66025977758E+02  0.21056645727E+03  0.17217694476E+03 0.  0.
        -24    2    5    5    0    0  0.26888102541E+02  0.13307928540E+03 -0.27781237837E+02  0.15832865540E+03  0.76570880147E+02 0.  0.
          5    1    3    3  501    0  0.52139412333E+01 -0.25622329166E+02  0.73507781442E+02  0.78161197967E+02  0.47000000000E+01 0. -1.
        -13    1    4    4    0    0 -0.46697180969E+01 -0.90175597598E+02 -0.40472545957E+02  0.98951865296E+02  0.00000000000E+00 0.  1.
         14    1    4    4    0    0 -0.13019897883E+02  0.14910561742E+02 -0.13853339953E+02  0.24161076553E+02  0.00000000000E+00 0. -1.
         -5    1    5    5    0  502 -0.14412427794E+02 -0.32191920372E+02 -0.38244739921E+02  0.52237801866E+02  0.47000000000E+01 0.  1.
         13    1    6    6    0    0  0.20464793007E+02  0.34559773603E+01 -0.19182697122E+02  0.28261765713E+02  0.00000000000E+00 0. -1.
        -14    1    6    6    0    0  0.64233095337E+01  0.12962330804E+03 -0.85985407146E+01  0.13006688969E+03  0.00000000000E+00 0.  1.
</event>
<event>
12    1  0.8494789E-002  0.2211788E+03  0.7818608E-02  0.1133071E+00
         21   -1    0    0  503  502  0.00000000000E+00  0.00000000000E+00  0.14564042130E+04  0.14564042130E+04  0.00000000000E+00 0.  1.
         21   -1    0    0  501  503 -0.00000000000E+00 -0.00000000000E+00 -0.37562915897E+02  0.37562915897E+02  0.00000000000E+00 0. -1.
          6    2    1    2  501    0  0.60727069589E+02  0.12475526638E+03  0.95345655288E+03  0.97869726854E+03  0.17180597120E+03 0.  0.
         24    2    3    3    0    0  0.38931854870E+02  0.84547091376E+01  0.27508603238E+03  0.29006855575E+03  0.82947395320E+02 0.  0.
         -6    2    1    2    0  502 -0.60727069589E+02 -0.12475526638E+03  0.46538474421E+03  0.51526986034E+03  0.17224521870E+03 0.  0.
        -24    2    5    5    0    0 -0.38620430141E+02 -0.14889662252E+03  0.29443884888E+03  0.34115467516E+03  0.77656518275E+02 0.  0.
          5    1    3    3  501    0  0.21795214719E+02  0.11630055725E+03  0.67837052050E+03  0.68862871279E+03  0.47000000000E+01 0. -1.
        -13    1    4    4    0    0  0.51623390565E+01 -0.33084996144E+02  0.15522346599E+03  0.15879417845E+03  0.00000000000E+00 0.  1.
         14    1    4    4    0    0  0.33769515814E+02  0.41539705282E+02  0.11986256639E+03  0.13127437730E+03  0.00000000000E+00 0. -1.
         -5    1    5    5    0  502 -0.22106639449E+02  0.24141356131E+02  0.17094589533E+03  0.17411518519E+03  0.47000000000E+01 0.  1.
         13    1    6    6    0    0 -0.52463346349E+02 -0.55914021556E+02  0.10923469484E+03  0.13345785505E+03  0.00000000000E+00 0. -1.
        -14    1    6    6    0    0  0.13842916208E+02 -0.92982600959E+02  0.18520415404E+03  0.20769682011E+03  0.00000000000E+00 0.  1.
</event>
<event>
12    1  0.8494789E-002  0.2768450E+03  0.7818608E-02  0.1099524E+00
         21   -1    0    0  503  502  0.00000000000E+00  0.00000000000E+00  0.36304536019E+03  0.36304536019E+03  0.00000000000E+00 0. -1.
         21   -1    0    0  501  503 -0.00000000000E+00 -0.00000000000E+00 -0.10856373775E+04  0.10856373775E+04  0.00000000000E+00 0.  1.
          6    2    1    2  501    0 -0.11041899292E+02  0.19826842378E+03 -0.10172811850E+04  0.10542789803E+04  0.19290118599E+03 0.  0.
         24    2    3    3    0    0  0.26305143370E+02  0.67218288704E+02 -0.71445381892E+03  0.72217140264E+03  0.76661701726E+02 0.  0.
         -6    2    1    2    0  502  0.11041899292E+02 -0.19826842378E+03  0.29468916769E+03  0.39440375737E+03  0.17111495220E+03 0.  0.
        -24    2    5    5    0    0  0.60797042498E+02 -0.17191115859E+03  0.26200703434E+03  0.32913131645E+03  0.80187346877E+02 0.  0.
          5    1    3    3  501    0 -0.37347042662E+02  0.13105013508E+03 -0.30282736607E+03  0.33210757766E+03  0.47000000000E+01 0. -1.
        -11    1    4    4    0    0  0.36677843485E+02  0.68106663328E+02 -0.70051947281E+03  0.70477749224E+03  0.00000000000E+00 0.  1.
         12    1    4    4    0    0 -0.10372700115E+02 -0.88837462422E+00 -0.13934346119E+02  0.17393910398E+02  0.00000000000E+00 0. -1.
         -5    1    5    5    0  502 -0.49755143206E+02 -0.26357265191E+02  0.32682133353E+02  0.65272440925E+02  0.47000000000E+01 0.  1.
         11    1    6    6    0    0  0.16412559628E+01 -0.11486205799E+03  0.12853406146E+03  0.17238616836E+03  0.00000000000E+00 0. -1.
        -12    1    6    6    0    0  0.59155786535E+02 -0.57049100604E+02  0.13347297287E+03  0.15674514809E+03  0.00000000000E+00 0.  1.
</event>
<event>
12    1  0.8494789E-002  0.2655288E+03  0.7818608E-02  0.1104083E+00
         21   -1    0    0  503  502  0.00000000000E+00  0.00000000000E+00  0.13263918705E+03  0.13263918705E+03  0.00000000000E+00 0.  1.
         21   -1    0    0  501  503 -0.00000000000E+00 -0.00000000000E+00 -0.61790227897E+03  0.61790227897E+03  0.00000000000E+00 0. -1.
          6    2    1    2  501    0  0.12342102769E+03 -0.15764645698E+03 -0.38471758220E+03  0.46661374876E+03  0.17214998404E+03 0.  0.
         24    2    3    3    0    0  0.11439280075E+03 -0.12301821803E+03 -0.38820824470E+03  0.43035221902E+03  0.79235070094E+02 0.  0.
         -6    2    1    2    0  502 -0.12342102769E+03  0.15764645698E+03 -0.10054550972E+03  0.28392771725E+03  0.17441443066E+03 0.  0.
        -24    2    5    5    0    0 -0.11481392917E+03  0.13058952817E+03 -0.13923592468E+03  0.23570741290E+03  0.77042057161E+02 0.  0.
          5    1    3    3  501    0  0.90282269328E+01 -0.34628238953E+02  0.34906624965E+01  0.36261529741E+02  0.47000000000E+01 0. -1.
        -13    1    4    4    0    0 -0.11231865197E+02 -0.56035509627E+01 -0.15934565280E+02  0.20284598834E+02  0.00000000000E+00 0.  1.
         14    1    4    4    0    0  0.12562466595E+03 -0.11741466707E+03 -0.37227367942E+03  0.41006762019E+03  0.00000000000E+00 0. -1.
         -5    1    5    5    0  502 -0.86070985161E+01  0.27056928811E+02  0.38690414967E+02  0.48220304353E+02  0.47000000000E+01 0.  1.
         11    1    6    6    0    0 -0.43642559814E+02  0.54561468551E+02 -0.10492408388E+03  0.12605828118E+03  0.00000000000E+00 0. -1.
        -12    1    6    6    0    0 -0.71171369357E+02  0.76028059621E+02 -0.34311840809E+02  0.10964913171E+03  0.00000000000E+00 0.  1.
</event>
<event>
12    1  0.8494789E-002  0.2281295E+03  0.7818608E-02  0.1129064E+00
         21   -1    0    0  501  502  0.00000000000E+00  0.00000000000E+00  0.34990645043E+02  0.34990645043E+02  0.00000000000E+00 0. -1.
         21   -1    0    0  502  503 -0.00000000000E+00 -0.00000000000E+00 -0.15132220548E+04  0.15132220548E+04  0.00000000000E+00 0. -1.
         -6    2    1    2    0  503 -0.49355820851E+02 -0.14157546580E+03 -0.90959535977E+03  0.93776691377E+03  0.17194027006E+03 0.  0.
        -24    2    3    3    0    0 -0.38648673840E+02 -0.16439166052E+03 -0.63629564277E+03  0.66326728343E+03  0.80827014223E+02 0.  0.
          6    2    1    2  501    0  0.49355820851E+02  0.14157546580E+03 -0.56863605000E+03  0.61044578609E+03  0.16376046785E+03 0.  0.
         24    2    5    5    0    0  0.94767297121E+02  0.11456061888E+03 -0.44364986649E+03  0.47466787846E+03  0.79871238928E+02 0.  0.
          5    1    5    5  501    0 -0.45411476270E+02  0.27014846921E+02 -0.12498618351E+03  0.13577790763E+03  0.47000000000E+01 0. -1.
        -13    1    6    6    0    0  0.12057982507E+02 -0.44090676250E+01 -0.70382433648E+01  0.14641437400E+02  0.00000000000E+00 0.  1.
         14    1    6    6    0    0  0.82709314613E+02  0.11896968650E+03 -0.43661162312E+03  0.46002644106E+03  0.00000000000E+00 0. -1.
         -5    1    3    3    0  503 -0.10707147011E+02  0.22816194724E+02 -0.27329971701E+03  0.27449963034E+03  0.47000000000E+01 0.  1.
         11    1    4    4    0    0  0.15516920593E+02 -0.67280668597E+02 -0.16180056496E+03  0.17591727037E+03  0.00000000000E+00 0. -1.
        -12    1    4    4    0    0 -0.54165594433E+02 -0.97110991924E+02 -0.47449507780E+03  0.48735001306E+03  0.00000000000E+00 0.  1.
</event>
<event>
12    1  0.8494789E-002  0.1768845E+03  0.7818608E-02  0.1170875E+00
         21   -1    0    0  501  502  0.00000000000E+00  0.00000000000E+00  0.39806959937E+02  0.39806959937E+02  0.00000000000E+00 0. -1.
         21   -1    0    0  502  503 -0.00000000000E+00 -0.00000000000E+00 -0.12464190254E+04  0.12464190254E+04  0.00000000000E+00 0. -1.
         -6    2    1    2    0  503  0.33355655699E+02  0.25490085174E+02 -0.99443957461E+03  0.10100486133E+04  0.17183070018E+03 0.  0.
        -24    2    3    3    0    0  0.46734016689E+02  0.77297849346E+02 -0.76460705647E+03  0.77402297623E+03  0.79552442471E+02 0.  0.
          6    2    1    2  501    0 -0.33355655699E+02 -0.25490085174E+02 -0.21217249082E+03  0.27617737197E+03  0.17173942681E+03 0.  0.
         24    2    5    5    0    0 -0.83907497886E+01  0.33384230846E+02 -0.46709644124E+02  0.98724631083E+02  0.79873965577E+02 0.  0.
          5    1    5    5  501    0 -0.24964905910E+02 -0.58874316020E+02 -0.16546284669E+03  0.17745274089E+03  0.47000000000E+01 0. -1.
        -13    1    6    6    0    0  0.25835751537E+02 -0.11446660883E+02 -0.26702847394E+02  0.38878710907E+02  0.00000000000E+00 0.  1.
         14    1    6    6    0    0 -0.34226501325E+02  0.44830891729E+02 -0.20006796730E+02  0.59845920175E+02  0.00000000000E+00 0. -1.
         -5    1    3    3    0  503 -0.13378360990E+02 -0.51807764172E+02 -0.22983251814E+03  0.23602563710E+03  0.47000000000E+01 0.  1.
         11    1    4    4    0    0  0.64478522903E+02  0.50582611243E+02 -0.41957085958E+03  0.42749945811E+03  0.00000000000E+00 0. -1.
        -12    1    4    4    0    0 -0.17744506214E+02  0.26715238104E+02 -0.34503619688E+03  0.34652351812E+03  0.00000000000E+00 0.  1.
</event>
<event>
12    1  0.8494789E-002  0.1803476E+03  0.7818608E-02  0.1167587E+00
         21   -1    0    0  501  502  0.00000000000E+00  0.00000000000E+00  0.17474922867E+03  0.17474922867E+03  0.00000000000E+00 0. -1.
         21   -1    0    0  502  503 -0.00000000000E+00 -0.00000000000E+00 -0.50252345110E+03  0.50252345110E+03  0.00000000000E+00 0. -1.
         -6    2    1    2    0  503  0.29524475149E+02  0.45200008077E+02 -0.43289032793E+03  0.46895554573E+03  0.17207711206E+03 0.  0.
        -24    2    3    3    0    0  0.41055608988E+02 -0.30765023437E+02 -0.30796379733E+03  0.32221638563E+03  0.79684684883E+02 0.  0.
          6    2    1    2  501    0 -0.29524475149E+02 -0.45200008077E+02  0.10511610550E+03  0.20831713404E+03  0.17155727130E+03 0.  0.
         24    2    5    5    0    0 -0.13967374476E+02 -0.21796061316E+02  0.13996025496E+03  0.16330632581E+03  0.80062021238E+02 0.  0.
          5    1    5    5  501    0 -0.15557100673E+02 -0.23403946761E+02 -0.34844149460E+02  0.45010808224E+02  0.47000000000E+01 0. -1.
        -13    1    6    6    0    0 -0.46558324807E+00  0.12233715877E+02 -0.54189212883E+01  0.13388251561E+02  0.00000000000E+00 0.  1.
         14    1    6    6    0    0 -0.13501791227E+02 -0.34029777193E+02  0.14537917624E+03  0.14991807425E+03  0.00000000000E+00 0. -1.
         -5    1    3    3    0  503 -0.11531133840E+02  0.75965031514E+02 -0.12492653060E+03  0.14673916010E+03  0.47000000000E+01 0.  1.
         13    1    4    4    0    0  0.35005566918E+02 -0.37242384283E+00 -0.27404899903E+03  0.27627591694E+03  0.00000000000E+00 0. -1.
        -14    1    4    4    0    0  0.60500420702E+01 -0.30392599594E+02 -0.33914798304E+02  0.45940468686E+02  0.00000000000E+00 0.  1.
</event>
<event>
12    1  0.8494789E-002  0.1812621E+03  0.7818608E-02  0.1167135E+00
         21   -1    0    0  501  502  0.00000000000E+00  0.00000000000E+00  0.19945745328E+02  0.19945745328E+02  0.00000000000E+00 0.  1.
         21   -1    0    0  502  503 -0.00000000000E+00 -0.00000000000E+00 -0.16451980871E+04  0.16451980871E+04  0.00000000000E+00 0.  1.
         -6    2    1    2    0  503  0.46662027409E+02  0.25128104596E+02 -0.89583927035E+03  0.91354595197E+03  0.17096620019E+03 0.  0.
        -24    2    3    3    0    0  0.48236815616E+02 -0.46824590952E+02 -0.59838211178E+03  0.60746994582E+03  0.80244941743E+02 0.  0.
          6    2    1    2  501    0 -0.46662027409E+02 -0.25128104596E+02 -0.72941307137E+03  0.75159788042E+03  0.17334122046E+03 0.  0.
         24    2    5    5    0    0 -0.79148215149E+02  0.18653041187E+02 -0.60660228121E+03  0.61714818238E+03  0.79329537658E+02 0.  0.
          5    1    5    5  501    0  0.32486187739E+02 -0.43781145783E+02 -0.12281079017E+03  0.13444969803E+03  0.47000000000E+01 0. -1.
        -11    1    6    6    0    0 -0.28355293038E+02 -0.30531612156E+02 -0.18282262453E+03  0.18751083709E+03  0.00000000000E+00 0.  1.
         12    1    6    6    0    0 -0.50792922111E+02  0.49184653342E+02 -0.42377965667E+03  0.42963734529E+03  0.00000000000E+00 0. -1.
         -5    1    3    3    0  503 -0.15747882066E+01  0.71952695548E+02 -0.29745715857E+03  0.30607600615E+03  0.47000000000E+01 0.  1.
         11    1    4    4    0    0 -0.63743697667E+01  0.88615128374E+01 -0.25944233592E+03  0.25967187886E+03  0.00000000000E+00 0. -1.
        -12    1    4    4    0    0  0.54611185382E+02 -0.55686103790E+02 -0.33893977586E+03  0.34779806696E+03  0.00000000000E+00 0.  1.
</event>
<event>
12    1  0.8494789E-002  0.2130541E+03  0.7818608E-02  0.1139604E+00
         21   -1    0    0  503  502  0.00000000000E+00  0.00000000000E+00  0.22520749391E+03  0.22520749391E+03  0.00000000000E+00 0. -1.
         21   -1    0    0  501  503 -0.00000000000E+00 -0.00000000000E+00 -0.54425046009E+03  0.54425046009E+03  0.00000000000E+00 0. -1.
          6    2    1    2  501    0 -0.68904501797E+02 -0.10163090631E+03 -0.46604529562E+03  0.51243564004E+03  0.17411317045E+03 0.  0.
         24    2    3    3    0    0 -0.55064509095E+02 -0.31766002479E+02 -0.11198210460E+03  0.15124942294E+03  0.79342404260E+02 0.  0.
         -6    2    1    2    0  502  0.68904501797E+02  0.10163090631E+03  0.14700232944E+03  0.25702231397E+03  0.17138877889E+03 0.  0.
        -24    2    5    5    0    0  0.51823705755E+02  0.28747564438E+02  0.89604038581E+01  0.99919168437E+02  0.79946434845E+02 0.  0.
          5    1    3    3  501    0 -0.13839992702E+02 -0.69864903832E+02 -0.35406319102E+03  0.36118621710E+03  0.47000000000E+01 0. -1.
        -13    1    4    4    0    0  0.14612193914E+02 -0.12392276881E+01  0.13800517153E+01  0.14729441231E+02  0.00000000000E+00 0.  1.
         14    1    4    4    0    0 -0.69676703009E+02 -0.30526774791E+02 -0.11336215632E+03  0.13651998171E+03  0.00000000000E+00 0. -1.
         -5    1    5    5    0  502  0.17080796042E+02  0.72883341873E+02  0.13804192558E+03  0.15710314553E+03  0.47000000000E+01 0.  1.
         11    1    6    6    0    0  0.13270576069E+02  0.41445433989E+02  0.31283212496E+02  0.53595443573E+02  0.00000000000E+00 0. -1.
        -12    1    6    6    0    0  0.38553129686E+02 -0.12697869551E+02 -0.22322808638E+02  0.46323724863E+02  0.00000000000E+00 0.  1.
</event>
<event>
12    1  0.8494789E-002  0.2417439E+03  0.7818608E-02  0.1118645E+00
         21   -1    0    0  503  502  0.00000000000E+00  0.00000000000E+00  0.14647662326E+03  0.14647662326E+03  0.00000000000E+00 0.  1.
         21   -1    0    0  501  503 -0.00000000000E+00 -0.00000000000E+00 -0.51537999798E+03  0.51537999798E+03  0.00000000000E+00 0. -1.
          6    2    1    2  501    0 -0.15984672340E+03 -0.58422967523E+02 -0.27100887527E+02  0.24320513182E+03  0.17161019761E+03 0.  0.
         24    2    3    3    0    0 -0.12870967315E+03  0.16002498940E+02 -0.39907664690E+02  0.16138356072E+03  0.87348566297E+02 0.  0.
         -6    2    1    2    0  502  0.15984672340E+03  0.58422967523E+02 -0.34180248719E+03  0.41865148942E+03  0.17168550094E+03 0.  0.
        -24    2    5    5    0    0  0.17096564447E+03  0.56891954072E+02 -0.35059819390E+03  0.40363720074E+03  0.86821369619E+02 0.  0.
          5    1    3    3  501    0 -0.31137050246E+02 -0.74425466463E+02  0.12806777163E+02  0.81821571102E+02  0.47000000000E+01 0. -1.
        -11    1    4    4    0    0 -0.54002152043E+02  0.42496539917E+02  0.73320352700E+01  0.69108227233E+02  0.00000000000E+00 0.  1.
         12    1    4    4    0    0 -0.74707521110E+02 -0.26494040977E+02 -0.47239699960E+02  0.92275333487E+02  0.00000000000E+00 0. -1.
         -5    1    5    5    0  502 -0.11118921076E+02  0.15310134508E+01  0.87957067149E+01  0.15014288684E+02  0.47000000000E+01 0.  1.
         11    1    6    6    0    0  0.42500280142E+02 -0.21403030582E+02 -0.61745023847E+02  0.77953906253E+02  0.00000000000E+00 0. -1.
        -12    1    6    6    0    0  0.12846536433E+03  0.78294984654E+02 -0.28885317005E+03  0.32568329448E+03  0.00000000000E+00 0.  1.
</event>
<event>
12    1  0.8494789E-002  0.1917474E+03  0.7818608E-02  0.1158227E+00
         21   -1    0    0  503  502  0.00000000000E+00  0.00000000000E+00  0.70644950741E+03  0.70644950741E+03  0.00000000000E+00 0. -1.
         21   -1    0    0  501  503 -0.00000000000E+00 -0.00000000000E+00 -0.50521650579E+02  0.50521650579E+02  0.00000000000E+00 0. -1.
          6    2    1    2  501    0  0.78328571686E+02 -0.33730958957E+02  0.30980192515E+03  0.36128162221E+03  0.16514852403E+03 0.  0.
         24    2    3    3    0    0  0.68784411458E+02 -0.52300837263E+02  0.11103538455E+03  0.16136624252E+03  0.79016041190E+02 0.  0.
         -6    2    1    2    0  502 -0.78328571686E+02  0.33730958957E+02  0.34612593168E+03  0.39568953578E+03  0.17173789741E+03 0.  0.
        -24    2    5    5    0    0 -0.67661578437E+02  0.63841613424E+02  0.34015426523E+03  0.36285377695E+03  0.85464018706E+02 0.  0.
          5    1    3    3  501    0  0.95441602278E+01  0.18569878307E+02  0.19876654060E+03  0.19991537969E+03  0.47000000000E+01 0.  1.
        -11    1    4    4    0    0  0.47546896034E+02  0.12064937069E+02  0.41375546422E+02  0.64173248871E+02  0.00000000000E+00 0.  1.
         12    1    4    4    0    0  0.21237515424E+02 -0.64365774332E+02  0.69659838126E+02  0.97192993650E+02  0.00000000000E+00 0. -1.
         -5    1    5    5    0  502 -0.10666993249E+02 -0.30110654467E+02  0.59716664526E+01  0.32835758826E+02  0.47000000000E+01 0.  1.
         13    1    6    6    0    0 -0.35148621218E+02  0.48872235355E+01  0.23720359840E+03  0.23984340229E+03  0.00000000000E+00 0. -1.
        -14    1    6    6    0    0 -0.32512957219E+02  0.58954389889E+02  0.10295066683E+03  0.12301037466E+03  0.00000000000E+00 0.  1.
</event>
<event>
12    1  0.8494789E-002  0.1764414E+03  0.7818608E-02  0.1171877E+00
         21   -1    0    0  503  502  0.00000000000E+00  0.00000000000E+00  0.76389299279E+02  0.76389299279E+02  0.00000000000E+00 0.  1.
         21   -1    0    0  501  503 -0.00000000000E+00 -0.00000000000E+00 -0.52707141899E+03  0.52707141899E+03  0.00000000000E+00 0.  1.
          6    2    1    2  501    0 -0.36074874996E+02 -0.16886717803E+02 -0.37108294353E+03  0.40989527526E+03  0.16948459475E+03 0.  0.
         24    2    3    3    0    0 -0.27638489339E+02  0.50671775673E+02 -0.16682268845E+03  0.19453589086E+03  0.81748935825E+02 0.  0.
         -6    2    1    2    0  502  0.36074874996E+02  0.16886717803E+02 -0.79599176190E+02  0.19356544302E+03  0.17188657317E+03 0.  0.
        -24    2    5    5    0    0 -0.24951792269E+02 -0.29587783583E+01 -0.96103661004E+02  0.12713814551E+03  0.79352681604E+02 0.  0.
          5    1    3    3  501    0 -0.84363856565E+01 -0.67558493476E+02 -0.20426025508E+03  0.21535938440E+03  0.47000000000E+01 0. -1.
        -13    1    4    4    0    0  0.21335806756E+02  0.30786055884E+02 -0.30431323873E+02  0.48260370487E+02  0.00000000000E+00 0.  1.
         14    1    4    4    0    0 -0.48974296096E+02  0.19885719789E+02 -0.13639136458E+03  0.14627552037E+03  0.00000000000E+00 0. -1.
         -5    1    5    5    0  502  0.61026667265E+02  0.19845496162E+02  0.16504484815E+02  0.66427297509E+02  0.47000000000E+01 0.  1.
         11    1    6    6    0    0  0.51008303990E+00 -0.38985305307E+02 -0.41535801021E+02  0.56967859193E+02  0.00000000000E+00 0. -1.
        -12    1    6    6    0    0 -0.25461875309E+02  0.36026526948E+02 -0.54567859984E+02  0.70170286314E+02  0.00000000000E+00 0.  1.
</event>
<event>
12    1  0.8494789E-002  0.2412663E+03  0.7818608E-02  0.1119174E+00
         21   -1    0    0  501  502  0.00000000000E+00  0.00000000000E+00  0.29994696940E+03  0.29994696940E+03  0.00000000000E+00 0.  1.
         21   -1    0    0  502  503 -0.00000000000E+00 -0.00000000000E+00 -0.19306618811E+03  0.19306618811E+03  0.00000000000E+00 0. -1.
         -6    2    1    2    0  503  0.13058025594E+03 -0.10457997209E+03  0.48384169142E+02  0.24475668669E+03  0.17197858603E+03 0.  0.
        -24    2    3    3    0    0  0.77034129939E+02  0.17698913392E+01 -0.11329654358E+02  0.11147010906E+03  0.79748570234E+02 0.  0.
          6    2    1    2  501    0 -0.13058025594E+03  0.10457997209E+03  0.58496612147E+02  0.24825647081E+03  0.17384259508E+03 0.  0.
         24    2    5    5    0    0 -0.65039796905E+02  0.99449286588E+02  0.95573953084E+02  0.17263441771E+03  0.80919255353E+02 0.  0.
          5    1    5    5  501    0 -0.65540459034E+02  0.51306854987E+01 -0.37077340937E+02  0.75622053100E+02  0.47000000000E+01 0. -1.
        -13    1    6    6    0    0 -0.15198422156E+01  0.12347022353E+02  0.56680278144E+02  0.58029413334E+02  0.00000000000E+00 0.  1.
         14    1    6    6    0    0 -0.63519954690E+02  0.87102264234E+02  0.38893674940E+02  0.11460500438E+03  0.00000000000E+00 0. -1.
         -5    1    3    3    0  503  0.53546126000E+02 -0.10634986343E+03  0.59713823500E+02  0.13328657763E+03  0.47000000000E+01 0.  1.
         13    1    4    4    0    0  0.75532845752E+02 -0.28106271070E+02 -0.41100718284E+01  0.80697372642E+02  0.00000000000E+00 0. -1.
        -14    1    4    4    0    0  0.15012841870E+01  0.29876162409E+02 -0.72195825294E+01  0.30772736414E+02  0.00000000000E+00 0.  1.
</event>
<event>
12    1  0.8494789E-002  0.2204168E+03  0.7818608E-02  0.1136228E+00
         21   -1    0    0  503  502  0.00000000000E+00  0.00000000000E+00  0.16730115870E+03  0.16730115870E+03  0.00000000000E+00 0.  1.
         21   -1    0    0  501  503 -0.00000000000E+00 -0.00000000000E+00 -0.29231413579E+03  0.29231413579E+03  0.00000000000E+00 0. -1.
          6    2    1    2  501    0 -0.15253552616E+02  0.11392843817E+03 -0.12418836205E+03  0.25299469950E+03  0.18807234995E+03 0.  0.
         24    2    3    3    0    0 -0.54659638980E+02 -0.23722237471E+01 -0.50692710822E+02  0.10980816258E+03  0.80590185882E+02 0.  0.
         -6    2    1    2    0  502  0.15253552616E+02 -0.11392843817E+03 -0.82461503777E+00  0.20662059500E+03  0.17169458465E+03 0.  0.
        -24    2    5    5    0    0  0.25722908664E+01 -0.10512718896E+03  0.58877717314E+02  0.14477615405E+03  0.80219739768E+02 0.  0.
          5    1    3    3  501    0  0.39406086364E+02  0.11630066191E+03 -0.73495651231E+02  0.14318653692E+03  0.47000000000E+01 0. -1.
        -11    1    4    4    0    0 -0.30681772302E+02  0.18894689094E+02  0.13161749759E+02  0.38361596477E+02  0.00000000000E+00 0.  1.
         12    1    4    4    0    0 -0.23977866678E+02 -0.21266912841E+02 -0.63854460581E+02  0.71446566106E+02  0.00000000000E+00 0. -1.
         -5    1    5    5    0  502  0.12681261749E+02 -0.88012492101E+01 -0.59702332352E+02  0.61844440943E+02  0.47000000000E+01 0.  1.
         13    1    6    6    0    0  0.25263360054E+01  0.42487816048E+00 -0.15462109356E+02  0.15672897652E+02  0.00000000000E+00 0. -1.
        -14    1    6    6    0    0  0.45954860939E-01 -0.10555206712E+03  0.74339826670E+02  0.12910325640E+03  0.00000000000E+00 0.  1.
</event>
<event>
12    1  0.8494789E-002  0.1847347E+03  0.7818608E-02  0.1163321E+00
         21   -1    0    0  503  502  0.00000000000E+00  0.00000000000E+00  0.12119779856E+03  0.12119779856E+03  0.00000000000E+00 0.  1.
         21   -1    0    0  501  503 -0.00000000000E+00 -0.00000000000E+00 -0.30572077117E+03  0.30572077117E+03  0.00000000000E+00 0.  1.
          6    2    1    2  501    0 -0.45367638984E+02  0.46635221007E+02 -0.15245444197E+03  0.23951878672E+03  0.17289831060E+03 0.  0.
         24    2    3    3    0    0 -0.93971649518E+02  0.19801998644E+02 -0.12699484929E+03  0.17825988922E+03  0.80162998303E+02 0.  0.
         -6    2    1    2    0  502  0.45367638984E+02 -0.46635221007E+02 -0.32068530632E+02  0.18739978301E+03  0.17279242319E+03 0.  0.
        -24    2    5    5    0    0  0.46659903594E+02 -0.35759666112E+02  0.45271962841E+02  0.10914641521E+03  0.80046792625E+02 0.  0.
          5    1    3    3  501    0  0.48604010533E+02  0.26833222364E+02 -0.25459592686E+02  0.61258897493E+02  0.47000000000E+01 0. -1.
        -11    1    4    4    0    0 -0.28107866662E+02  0.92305869902E+01  0.53402346153E+01  0.30062834367E+02  0.00000000000E+00 0.  1.
         12    1    4    4    0    0 -0.65863782856E+02  0.10571411653E+02 -0.13233508390E+03  0.14819705486E+03  0.00000000000E+00 0. -1.
         -5    1    5    5    0  502 -0.12922646093E+01 -0.10875554896E+02 -0.77340493473E+02  0.78253367805E+02  0.47000000000E+01 0.  1.
         13    1    6    6    0    0 -0.14104203233E+02  0.11697851723E+02  0.21955382949E+02  0.28597327222E+02  0.00000000000E+00 0. -1.
        -14    1    6    6    0    0  0.60764106827E+02 -0.47457517835E+02  0.23316579892E+02  0.80549087986E+02  0.00000000000E+00 0.  1.
</event>
<event>
12    1  0.8494789E-002  0.1877974E+03  0.7818608E-02  0.1160713E+00
         21   -1    0    0  503  502  0.00000000000E+00  0.00000000000E+00  0.43712953250E+03  0.43712953250E+03  0.00000000000E+00 0.  1.
         21   -1    0    0  501  503 -0.00000000000E+00 -0.00000000000E+00 -0.82563842982E+02  0.82563842982E+02  0.00000000000E+00 0.  1.
          6    2    1    2  501    0 -0.44716837589E+02  0.61190836973E+02  0.22061521021E+03  0.28901919630E+03  0.17063736626E+03 0.  0.
         24    2    3    3    0    0  0.27695310225E+02  0.12822625365E+02  0.50165380138E+02  0.97555785658E+02  0.77904531455E+02 0.  0.
         -6    2    1    2    0  502  0.44716837589E+02 -0.61190836973E+02  0.13395047931E+03  0.23067417918E+03  0.17182529482E+03 0.  0.
        -24    2    5    5    0    0  0.11251039253E+02 -0.10037054953E+03  0.12213304732E+03  0.17760110471E+03  0.80155087492E+02 0.  0.
          5    1    3    3  501    0 -0.72412147813E+02  0.48368211609E+02  0.17044983007E+03  0.19146341064E+03  0.47000000000E+01 0. -1.
        -13    1    4    4    0    0  0.34854497500E+02  0.25265382878E+02  0.64319388697E+02  0.77396119608E+02  0.00000000000E+00 0.  1.
         14    1    4    4    0    0 -0.71591872752E+01 -0.12442757513E+02 -0.14154008559E+02  0.20159666050E+02  0.00000000000E+00 0. -1.
         -5    1    5    5    0  502  0.33465798335E+02  0.39179712556E+02  0.11817431989E+02  0.53073074463E+02  0.47000000000E+01 0.  1.
         11    1    6    6    0    0  0.10581582917E+02 -0.36280935974E+02  0.10450406204E+03  0.11112774268E+03  0.00000000000E+00 0. -1.
        -12    1    6    6    0    0  0.66945633629E+00 -0.64089613555E+02  0.17628985286E+02  0.66473362031E+02  0.00000000000E+00 0.  1.
</event>
<event>
12    1  0.8494789E-002  0.2659793E+03  0.7818608E-02  0.1103622E+00
         21   -1    0    0  503  502  0.00000000000E+00  0.00000000000E+00  0.21727525434E+03  0.21727525434E+03  0.00000000000E+00 0.  1.
         21   -1    0    0  501  503 -0.00000000000E+00 -0.00000000000E+00 -0.33717122528E+03  0.33717122528E+03  0.00000000000E+00 0. -1.
          6    2    1    2  501    0  0.70908912345E+02 -0.19094837407E+03 -0.82557595437E+01  0.26610740873E+03  0.17104280167E+03 0.  0.
         24    2    3    3    0    0  0.79741402464E+02 -0.19642819960E+03  0.27682735727E+02  0.22840188112E+03  0.80363900955E+02 0.  0.
         -6    2    1    2    0  502 -0.70908912345E+02  0.19094837407E+03 -0.11164021140E+03  0.28833907089E+03  0.17084064971E+03 0.  0.
        -24    2    5    5    0    0  0.17720328441E+02  0.13931123871E+03 -0.86286078713E+02  0.18257301720E+03  0.78523805030E+02 0.  0.
          5    1    3    3  501    0 -0.88324901183E+01  0.54798255337E+01 -0.35938495270E+02  0.37705527604E+02  0.47000000000E+01 0. -1.
        -13    1    4    4    0    0  0.59601584015E+02 -0.12702498742E+03  0.55604566528E+02  0.15092900339E+03  0.00000000000E+00 0.  1.
         14    1    4    4    0    0  0.20139818448E+02 -0.69403212184E+02 -0.27921830801E+02  0.77472877730E+02  0.00000000000E+00 0. -1.
         -5    1    5    5    0  502 -0.88629240786E+02  0.51637135358E+02 -0.25354132683E+02  0.10576605370E+03  0.47000000000E+01 0.  1.
         11    1    6    6    0    0 -0.20769451099E+02  0.37585533218E+02 -0.54250560333E+02  0.69189346743E+02  0.00000000000E+00 0. -1.
        -12    1    6    6    0    0  0.38489779540E+02  0.10172570549E+03 -0.32035518380E+02  0.11338367045E+03  0.00000000000E+00 0.  1.
</event>
<event>
12    1  0.8494789E-002  0.2462242E+03  0.7818608E-02  0.1115722E+00
         21   -1    0    0  503  502  0.00000000000E+00  0.00000000000E+00  0.37098118383E+03  0.37098118383E+03  0.00000000000E+00 0. -1.
         21   -1    0    0  501  503 -0.00000000000E+00 -0.00000000000E+00 -0.77681926431E+03  0.77681926431E+03  0.00000000000E+00 0.  1.
          6    2    1    2  501    0  0.16956919491E+03  0.48068744408E+02 -0.71290114233E+03  0.75420918221E+03  0.17186953116E+03 0.  0.
         24    2    3    3    0    0  0.12260157374E+02  0.23347957403E+02 -0.19853922821E+03  0.21574143081E+03  0.80194147266E+02 0.  0.
         -6    2    1    2    0  502 -0.16956919491E+03 -0.48068744408E+02  0.30706306186E+03  0.39359126593E+03  0.17193616433E+03 0.  0.
        -24    2    5    5    0    0 -0.16217444422E+03  0.15748080521E+02  0.23390547621E+03  0.29611618286E+03  0.80152788797E+02 0.  0.
          5    1    3    3  501    0  0.15730903754E+03  0.24720787005E+02 -0.51436191412E+03  0.53846775140E+03  0.47000000000E+01 0. -1.
        -11    1    4    4    0    0 -0.15544948999E+02 -0.20096443742E+02 -0.11327532852E+03  0.11608967457E+03  0.00000000000E+00 0.  1.
         12    1    4    4    0    0  0.27805106373E+02  0.43444401145E+02 -0.85263899691E+02  0.99651756240E+02  0.00000000000E+00 0. -1.
         -5    1    5    5    0  502 -0.73947506949E+01 -0.63816824929E+02  0.73157585645E+02  0.97475083069E+02  0.47000000000E+01 0.  1.
         11    1    6    6    0    0 -0.13757574224E+03 -0.27559237213E+01  0.13593711762E+03  0.19342590290E+03  0.00000000000E+00 0. -1.
        -12    1    6    6    0    0 -0.24598701983E+02  0.18504004243E+02  0.97968358593E+02  0.10269027996E+03  0.00000000000E+00 0.  1.
</event>
<event>
12    1  0.8494789E-002  0.2438359E+03  0.7818608E-02  0.1118270E+00
         21   -1    0    0  503  502  0.00000000000E+00  0.00000000000E+00  0.13351614154E+03  0.13351614154E+03  0.00000000000E+00 0.  1.
         21   -1    0    0  501  503 -0.00000000000E+00 -0.00000000000E+00 -0.51669620577E+03  0.51669620577E+03  0.00000000000E+00 0. -1.
          6    2    1    2  501    0  0.39627657154E+02 -0.16019330599E+03 -0.63777459706E+02  0.25203866613E+03  0.17950954950E+03 0.  0.
         24    2    3    3    0    0  0.27420687826E+02 -0.49619652584E+02  0.35018486856E+02  0.10318211778E+03  0.78779762407E+02 0.  0.
         -6    2    1    2    0  502 -0.39627657154E+02  0.16019330599E+03 -0.31940260452E+03  0.39817368118E+03  0.17114908737E+03 0.  0.
        -24    2    5    5    0    0 -0.89983558496E+02  0.95619583524E+02 -0.23548661643E+03  0.28083031540E+03  0.78559365949E+02 0.  0.
          5    1    3    3  501    0  0.12206969328E+02 -0.11057365341E+03 -0.98795946563E+02  0.14885654834E+03  0.47000000000E+01 0. -1.
        -13    1    4    4    0    0  0.25554505253E+01 -0.62659712971E+02  0.40393808591E+02  0.74595105265E+02  0.00000000000E+00 0.  1.
         14    1    4    4    0    0  0.24865237300E+02  0.13040060387E+02 -0.53753217343E+01  0.28587012517E+02  0.00000000000E+00 0. -1.
         -5    1    5    5    0  502  0.50355901342E+02  0.64573722466E+02 -0.83915988091E+02  0.11734336577E+03  0.47000000000E+01 0.  1.
         13    1    6    6    0    0 -0.61591207447E+02  0.10261586241E+03 -0.15947810423E+03  0.19939096715E+03  0.00000000000E+00 0. -1.
        -14    1    6    6    0    0 -0.28392351048E+02 -0.69962788878E+01 -0.76008512204E+02  0.81439348253E+02  0.00000000000E+00 0.  1.
</event>
<event>
12    1  0.8494789E-002  0.2492680E+03  0.7818608E-02  0.1114230E+00
         21   -1    0    0  501  502  0.00000000000E+00  0.00000000000E+00  0.13474667502E+03  0.13474667502E+03  0.00000000000E+00 0. -1.
         21   -1    0    0  502  503 -0.00000000000E+00 -0.00000000000E+00 -0.46536816589E+03  0.46536816589E+03  0.00000000000E+00 0.  1.
         -6    2    1    2    0  503  0.17856025104E+03 -0.21725327461E+01 -0.12318799059E+03  0.27804645928E+03  0.17391397110E+03 0.  0.
        -24    2    3    3    0    0  0.16080263877E+03 -0.49872589802E+02 -0.57712575356E+02  0.19498173610E+03  0.79639011874E+02 0.  0.
          6    2    1    2  501    0 -0.17856025104E+03  0.21725327461E+01 -0.20743350028E+03  0.32206838163E+03  0.16973774554E+03 0.  0.
         24    2    5    5    0    0 -0.19159796775E+03  0.20051180935E+02 -0.21339337860E+03  0.29867525727E+03  0.80983604333E+02 0.  0.
          5    1    5    5  501    0  0.13037716710E+02 -0.17878648189E+02  0.59598783200E+01  0.23393124367E+02  0.47000000000E+01 0. -1.
        -11    1    6    6    0    0 -0.60030234905E+02  0.19858777928E+02 -0.12526595943E+03  0.14031949528E+03  0.00000000000E+00 0.  1.
         12    1    6    6    0    0 -0.13156773284E+03  0.19240300731E+00 -0.88127419164E+02  0.15835576198E+03  0.00000000000E+00 0. -1.
         -5    1    3    3    0  503  0.17757612274E+02  0.47700057056E+02 -0.65475415231E+02  0.83064723177E+02  0.47000000000E+01 0.  1.
         11    1    4    4    0    0  0.60461603406E+02  0.20274462743E+02 -0.21807753390E+02  0.67396123286E+02  0.00000000000E+00 0. -1.
        -12    1    4    4    0    0  0.10034103536E+03 -0.70147052545E+02 -0.35904821966E+02  0.12758561282E+03  0.00000000000E+00 0.  1.
</event>
<event>
12    1  0.8494789E-002  0.2261240E+03  0.7818608E-02  0.1129687E+00
         21   -1    0    0  503  502  0.00000000000E+00  0.00000000000E+00  0.10381397709E+04  0.10381397709E+04  0.00000000000E+00 0. -1.
         21   -1    0    0  501  503 -0.00000000000E+00 -0.00000000000E+00 -0.31939163158E+03  0.31939163158E+03  0.00000000000E+00 0. -1.
          6    2    1    2  501    0  0.11440488951E+03  0.85642606927E+02 -0.26546168863E+03  0.34767941301E+03  0.17317023773E+03 0.  0.
         24    2    3    3    0    0 -0.16504186490E+01  0.71369777254E+02 -0.12626980151E+03  0.16583052063E+03  0.80369955908E+02 0.  0.
         -6    2    1    2    0  502 -0.11440488951E+03 -0.85642606927E+02  0.98420982797E+03  0.10098519895E+04  0.17523960841E+03 0.  0.
        -24    2    5    5    0    0 -0.10269991928E+03  0.40984510861E+01  0.63196056529E+03  0.64613218405E+03  0.86882520995E+02 0.  0.
          5    1    3    3  501    0  0.11605530816E+03  0.14272829673E+02 -0.13919188711E+03  0.18184889237E+03  0.47000000000E+01 0. -1.
        -13    1    4    4    0    0 -0.27055281706E+02  0.66205022731E+02 -0.55704129851E+02  0.90653424566E+02  0.00000000000E+00 0.  1.
         14    1    4    4    0    0  0.25404863057E+02  0.51647545227E+01 -0.70565671661E+02  0.75177096067E+02  0.00000000000E+00 0. -1.
         -5    1    5    5    0  502 -0.11704970228E+02 -0.89741058013E+02  0.35224926268E+03  0.36371980546E+03  0.47000000000E+01 0.  1.
         13    1    6    6    0    0 -0.41886974275E+02 -0.16261305450E+02  0.92102600081E+02  0.10247847389E+03  0.00000000000E+00 0. -1.
        -14    1    6    6    0    0 -0.60812945007E+02  0.20359756536E+02  0.53985796521E+03  0.54365371016E+03  0.00000000000E+00 0.  1.
</event>
<event>
12    1  0.8494789E-002  0.1906522E+03  0.7818608E-02  0.1157927E+00
         21   -1    0    0  503  502  0.00000000000E+00  0.00000000000E+00  0.10434979886E+04  0.10434979886E+04  0.00000000000E+00 0. -1.
         21   -1    0    0  501  503 -0.00000000000E+00 -0.00000000000E+00 -0.46589057268E+02  0.46589057268E+02  0.00000000000E+00 0. -1.
          6    2    1    2  501    0 -0.72876015225E+02 -0.40805412352E+02  0.22393246695E+03  0.29394580556E+03  0.17112098521E+03 0.  0.
         24    2    3    3    0    0 -0.94318227690E+01  0.70379478067E+01  0.19121807116E+03  0.20788492967E+03  0.80705026189E+02 0.  0.
         -6    2    1    2    0  502  0.72876015225E+02  0.40805412352E+02  0.77297646440E+03  0.79614124033E+03  0.17138338533E+03 0.  0.
        -24    2    5    5    0    0  0.15962609512E+00  0.62925495800E+02  0.57473616175E+03  0.58377768664E+03  0.80716096889E+02 0.  0.
          5    1    3    3  501    0 -0.63444192456E+02 -0.47843360159E+02  0.32714395787E+02  0.86060875892E+02  0.47000000000E+01 0. -1.
        -11    1    4    4    0    0  0.30287757317E+02 -0.16562007464E+01  0.34317510861E+02  0.45801558881E+02  0.00000000000E+00 0.  1.
         12    1    4    4    0    0 -0.39719580086E+02  0.86941485532E+01  0.15690056030E+03  0.16208337078E+03  0.00000000000E+00 0. -1.
         -5    1    5    5    0  502  0.72716389130E+02 -0.22120083448E+02  0.19824030265E+03  0.21236355369E+03  0.47000000000E+01 0.  1.
         13    1    6    6    0    0  0.85044436390E+01  0.56438979175E+02  0.17855403584E+03  0.18745460156E+03  0.00000000000E+00 0. -1.
        -14    1    6    6    0    0 -0.83448175439E+01  0.64865166254E+01  0.39618212591E+03  0.39632308509E+03  0.00000000000E+00 0.  1.
</event>
<event>
12    1  0.8494789E-002  0.2112508E+03  0.7818608E-02  0.1144332E+00
         21   -1    0    0  503  502  0.00000000000E+00  0.00000000000E+00  0.11434062991E+04  0.11434062991E+04  0.00000000000E+00 0.  1.
         21   -1    0    0  501  503 -0.00000000000E+00 -0.00000000000E+00 -0.40219825339E+02  0.40219825339E+02  0.00000000000E+00 0.  1.
          6    2    1    2  501    0  0.93031936725E+02  0.77964979811E+01  0.37629954037E+03  0.43154172311E+03  0.18950247510E+03 0.  0.
         24    2    3    3    0    0  0.45828826446E+02 -0.54383816686E+02  0.31486540447E+03  0.33208938173E+03  0.78008035971E+02 0.  0.
         -6    2    1    2    0  502 -0.93031936725E+02 -0.77964979811E+01  0.72688693336E+03  0.75208440130E+03  0.16896924619E+03 0.  0.
        -24    2    5    5    0    0 -0.10158040772E+03 -0.54681377663E+02  0.60377184984E+03  0.61998337145E+03  0.80810283446E+02 0.  0.
          5    1    3    3  501    0  0.47203110279E+02  0.62180314667E+02  0.61434135907E+02  0.99452341384E+02  0.47000000000E+01 0. -1.
        -13    1    4    4    0    0  0.49182256582E+02 -0.65660901706E+02  0.19373451378E+03  0.21038847450E+03  0.00000000000E+00 0.  1.
         14    1    4    4    0    0 -0.33534301361E+01  0.11277085020E+02  0.12113089069E+03  0.12170090722E+03  0.00000000000E+00 0. -1.
         -5    1    5    5    0  502  0.85484709951E+01  0.46884879682E+02  0.12311508352E+03  0.13210102985E+03  0.47000000000E+01 0.  1.
         13    1    6    6    0    0 -0.37959232789E+02  0.70539133714E+00  0.70420424093E+02  0.80002731581E+02  0.00000000000E+00 0. -1.
        -14    1    6    6    0    0 -0.63621174931E+02 -0.55386769000E+02  0.53335142575E+03  0.53998063987E+03  0.00000000000E+00 0.  1.
</event>
<event>
12    1  0.8494789E-002  0.2282355E+03  0.7818608E-02  0.1128104E+00
         21   -1    0    0  503  502  0.00000000000E+00  0.00000000000E+00  0.53022134809E+03  0.53022134809E+03  0.00000000000E+00 0. -1.
         21   -1    0    0  501  503 -0.00000000000E+00 -0.00000000000E+00 -0.13640343795E+03  0.13640343795E+03  0.00000000000E+00 0.  1.
          6    2    1    2  501    0 -0.14734770063E+03 -0.14631311723E+02  0.19037840977E+02  0.22781783409E+03  0.17208458959E+03 0.  0.
         24    2    3    3    0    0 -0.10744816386E+03 -0.47566392608E+02 -0.42422196205E+02  0.14734349807E+03  0.78120381910E+02 0.  0.
         -6    2    1    2    0  502  0.14734770063E+03  0.14631311723E+02  0.37478006916E+03  0.43880695194E+03  0.17368367992E+03 0.  0.
        -24    2    5    5    0    0  0.13740890689E+03  0.51895168129E+02  0.20609420856E+03  0.26570471574E+03  0.80931186771E+02 0.  0.
          5    1    3    3  501    0 -0.39899536778E+02  0.32935080885E+02  0.61460037182E+02  0.80474336024E+02  0.47000000000E+01 0. -1.
        -11    1    4    4    0    0 -0.81054835788E+02 -0.30714556560E+02 -0.65332459249E+02  0.10854308186E+03  0.00000000000E+00 0.  1.
         12    1    4    4    0    0 -0.26393328068E+02 -0.16851836048E+02  0.22910263043E+02  0.38800416202E+02  0.00000000000E+00 0. -1.
         -5    1    5    5    0  502  0.99387937403E+01 -0.37263856407E+02  0.16868586060E+03  0.17310223621E+03  0.47000000000E+01 0.  1.
         13    1    6    6    0    0  0.10420778443E+03  0.30837565753E+02  0.19755338888E+03  0.22547185912E+03  0.00000000000E+00 0. -1.
        -14    1    6    6    0    0  0.33201122461E+02  0.21057602377E+02  0.85408196835E+01  0.40232856614E+02  0.00000000000E+00 0.  1.
</event>
<event>
12    1  0.8494789E-002  0.2418566E+03  0.7818608E-02  0.1119124E+00
         21   -1    0    0  501  502  0.00000000000E+00  0.00000000000E+00  0.67118591939E+03  0.67118591939E+03  0.00000000000E+00 0. -1.
         21   -1    0    0  502  503 -0.00000000000E+00 -0.00000000000E+00 -0.13294505571E+03  0.13294505571E+03  0.00000000000E+00 0.  1.
         -6    2    1    2    0  503 -0.91376390513E+02 -0.13654411163E+03  0.28814684429E+02  0.24020755536E+03  0.17284514586E+03 0.  0.
        -24    2    3    3    0    0 -0.59648424018E+02 -0.87180362634E+01  0.38238531385E+02  0.10808235604E+03  0.81152151922E+02 0.  0.
          6    2    1    2  501    0  0.91376390513E+02  0.13654411163E+03  0.50942617926E+03  0.56392341974E+03  0.17748423043E+03 0.  0.
         24    2    5    5    0    0  0.11371729878E+03  0.13176186660E+03  0.32069889707E+03  0.37376016595E+03  0.80969534624E+02 0.  0.
          5    1    5    5  501    0 -0.22340908267E+02  0.47822450354E+01  0.18872728219E+03  0.19016325379E+03  0.47000000000E+01 0. -1.
        -13    1    6    6    0    0  0.10191017958E+02 -0.11353601734E+02  0.22869261950E+02  0.27491166972E+02  0.00000000000E+00 0.  1.
         14    1    6    6    0    0  0.10352628082E+03  0.14311546833E+03  0.29782963512E+03  0.34626899897E+03  0.00000000000E+00 0. -1.
         -5    1    3    3    0  503 -0.31727966495E+02 -0.12782607537E+03 -0.94238469560E+01  0.13212519932E+03  0.47000000000E+01 0.  1.
         13    1    4    4    0    0  0.57040976121E+01 -0.25784735547E+02 -0.63336835353E+01  0.27157040780E+02  0.00000000000E+00 0. -1.
        -14    1    4    4    0    0 -0.65352521630E+02  0.17066699284E+02  0.44572214920E+02  0.80925315265E+02  0.00000000000E+00 0.  1.
</event>
<event>
12    1  0.8494789E-002  0.1783363E+03  0.7818608E-02  0.1171017E+00
         21   -1    0    0  501  502  0.00000000000E+00  0.00000000000E+00  0.52469655289E+03  0.52469655289E+03  0.00000000000E+00 0.  1.
         21   -1    0    0  502  503 -0.00000000000E+00 -0.00000000000E+00 -0.14018203289E+03  0.14018203289E+03  0.00000000000E+00 0.  1.
         -6    2    1    2    0  503 -0.38956905339E+02 -0.14927990328E+02 -0.60084148257E+02  0.18818587940E+03  0.17338781666E+03 0.  0.
        -24    2    3    3    0    0  0.25192358113E+02  0.37465954601E+02 -0.56627907507E+02  0.10515402367E+03  0.76238416326E+02 0.  0.
          6    2    1    2  501    0  0.38956905339E+02  0.14927990328E+02  0.44459866826E+03  0.47669270638E+03  0.16681569210E+03 0.  0.
         24    2    5    5    0    0  0.69140339746E+02 -0.22958634584E+01  0.39956031114E+03  0.41961167219E+03  0.10788816262E+03 0.  0.
          5    1    5    5  501    0 -0.30183434408E+02  0.17223853786E+02  0.45038357119E+02  0.57081034187E+02  0.47000000000E+01 0. -1.
        -11    1    6    6    0    0  0.20359694765E+02  0.29766961682E+02  0.31382473596E+03  0.31589009810E+03  0.00000000000E+00 0.  1.
         12    1    6    6    0    0  0.48780644981E+02 -0.32062825140E+02  0.85735575179E+02  0.10372157409E+03  0.00000000000E+00 0. -1.
         -5    1    3    3    0  503 -0.64149263452E+02 -0.52393944929E+02 -0.34562407503E+01  0.83031855735E+02  0.47000000000E+01 0.  1.
         13    1    4    4    0    0  0.22323206661E+02 -0.44514669866E-01  0.13130132375E+02  0.25898415268E+02  0.00000000000E+00 0. -1.
        -14    1    4    4    0    0  0.28691514518E+01  0.37510469271E+02 -0.69758039882E+02  0.79255608402E+02  0.00000000000E+00 0.  1.
</event>
<event>
12    1  0.8494789E-002  0.2522483E+03  0.7818608E-02  0.1112009E+00
         21   -1    0    0  503  502  0.00000000000E+00  0.00000000000E+00  0.58163883761E+02  0.58163883761E+02  0.00000000000E+00 0. -1.
         21   -1    0    0  501  503 -0.00000000000E+00 -0.00000000000E+00 -0.16617623762E+04  0.16617623762E+04  0.00000000000E+00 0.  1.
          6    2    1    2  501    0  0.17620995711E+03  0.51330218470E+02 -0.13051322486E+04  0.13291433004E+04  0.17195053466E+03 0.  0.
         24    2    3    3    0    0  0.89242775868E+02  0.98876717659E+02 -0.69496215052E+03  0.71095756878E+03  0.68901346938E+02 0.  0.
         -6    2    1    2    0  502 -0.17620995711E+03 -0.51330218470E+02 -0.29846624389E+03  0.39078295960E+03  0.17304474122E+03 0.  0.
        -24    2    5    5    0    0 -0.15953825512E+03 -0.35712644745E+01 -0.14766032994E+03  0.23164975435E+03  0.79955155390E+02 0.  0.
          5    1    3    3  501    0  0.86967181241E+02 -0.47546499189E+02 -0.61017009806E+03  0.61818573161E+03  0.47000000000E+01 0. -1.
        -11    1    4    4    0    0  0.68524713069E+02  0.35766608546E+02 -0.47283554860E+03  0.47911203555E+03  0.00000000000E+00 0.  1.
         12    1    4    4    0    0  0.20718062798E+02  0.63110109113E+02 -0.22212660192E+03  0.23184553323E+03  0.00000000000E+00 0. -1.
         -5    1    5    5    0  502 -0.16671701988E+02 -0.47758953995E+02 -0.15080591395E+03  0.15913320526E+03  0.47000000000E+01 0.  1.
         13    1    6    6    0    0 -0.62555763516E+02 -0.14176378887E+02 -0.13137186837E+02  0.65473498039E+02  0.00000000000E+00 0. -1.
        -14    1    6    6    0    0 -0.96982491604E+02  0.10605114413E+02 -0.13452314311E+03  0.16617625631E+03  0.00000000000E+00 0.  1.
</event>
<event>
12    1  0.8494789E-002  0.1741067E+03  0.7818608E-02  0.1176508E+00
         21   -1    0    0  501  502  0.00000000000E+00  0.00000000000E+00  0.43725114788E+02  0.43725114788E+02  0.00000000000E+00 0.  1.
         21   -1    0    0  502  503 -0.00000000000E+00 -0.00000000000E+00 -0.85344677511E+03  0.85344677511E+03  0.00000000000E+00 0.  1.
         -6    2    1    2    0  503 -0.13451587372E+02  0.24236071174E+02 -0.63374631765E+03  0.65722717013E+03  0.17188608344E+03 0.  0.
        -24    2    3    3    0    0 -0.45041145944E+02 -0.38184273107E+02 -0.44643965483E+03  0.45722698132E+03  0.79129030687E+02 0.  0.
          6    2    1    2  501    0  0.13451587372E+02 -0.24236071174E+02 -0.17597534268E+03  0.23994471977E+03  0.16074145379E+03 0.  0.
         24    2    5    5    0    0 -0.42189566485E+02  0.55232404180E+01 -0.59273994714E+02  0.10719363975E+03  0.78527729175E+02 0.  0.
          5    1    5    5  501    0  0.55641153857E+02 -0.29759311592E+02 -0.11670134797E+03  0.13275108002E+03  0.47000000000E+01 0. -1.
        -11    1    6    6    0    0 -0.85705077894E+01  0.35462235089E+02 -0.48875858553E+02  0.60990763814E+02  0.00000000000E+00 0.  1.
         12    1    6    6    0    0 -0.33619058695E+02 -0.29938994671E+02 -0.10398136161E+02  0.46202875940E+02  0.00000000000E+00 0. -1.
         -5    1    3    3    0  503  0.31589558572E+02  0.62420344281E+02 -0.18730666282E+03  0.20000018881E+03  0.47000000000E+01 0.  1.
         11    1    4    4    0    0 -0.28595205214E+02  0.15164926637E+02 -0.27567079559E+03  0.27756449395E+03  0.00000000000E+00 0. -1.
        -12    1    4    4    0    0 -0.16445940730E+02 -0.53349199744E+02 -0.17076885924E+03  0.17966248736E+03  0.00000000000E+00 0.  1.
</event>
<event>
12    1  0.8494789E-002  0.1818137E+03  0.7818608E-02  0.1166115E+00
         21   -1    0    0  501  502  0.00000000000E+00  0.00000000000E+00  0.13940744860E+04  0.13940744860E+04  0.00000000000E+00 0. -1.
         21   -1    0    0  502  503 -0.00000000000E+00 -0.00000000000E+00 -0.23996440514E+02  0.23996440514E+02  0.00000000000E+00 0. -1.
         -6    2    1    2    0  503 -0.10163352750E+02  0.56278079516E+02  0.60337302209E+03  0.63010339659E+03  0.17233911523E+03 0.  0.
        -24    2    3    3    0    0 -0.62072871471E+00  0.39312729756E+02  0.13814024146E+03  0.16443987543E+03  0.80074154987E+02 0.  0.
          6    2    1    2  501    0  0.10163352750E+02 -0.56278079516E+02  0.76670502342E+03  0.78796752995E+03  0.17258539723E+03 0.  0.
         24    2    5    5    0    0  0.52999121785E+02 -0.83517855116E+02  0.61510091813E+03  0.62802127890E+03  0.79230349175E+02 0.  0.
          5    1    5    5  501    0 -0.42835769034E+02  0.27239775600E+02  0.15160410529E+03  0.15994625105E+03  0.47000000000E+01 0. -1.
        -13    1    6    6    0    0 -0.34718124507E+01 -0.47320872018E+02  0.13165156505E+03  0.13994089106E+03  0.00000000000E+00 0.  1.
         14    1    6    6    0    0  0.56470934235E+02 -0.36196983098E+02  0.48344935308E+03  0.48808038784E+03  0.00000000000E+00 0. -1.
         -5    1    3    3    0  503 -0.95426240356E+01  0.16965349761E+02  0.46523278063E+03  0.46566352116E+03  0.47000000000E+01 0.  1.
         11    1    4    4    0    0 -0.42740480442E+01 -0.23609341407E+02  0.55849540033E+02  0.60785192360E+02  0.00000000000E+00 0. -1.
        -12    1    4    4    0    0  0.36533193294E+01  0.62922071163E+02  0.82290701425E+02  0.10365468307E+03  0.00000000000E+00 0.  1.
</event>
<event>
12    1  0.8494789E-002  0.1792858E+03  0.7818608E-02  0.1168698E+00
         21   -1    0    0  501  502  0.00000000000E+00  0.00000000000E+00  0.74983570161E+03  0.74983570161E+03  0.00000000000E+00 0. -1.
         21   -1    0    0  502  503 -0.00000000000E+00 -0.00000000000E+00 -0.59910492643E+02  0.59910492643E+02  0.00000000000E+00 0. -1.
         -6    2    1    2    0  503 -0.43454868125E+02  0.15685322108E+02  0.12720376291E+03  0.21915426620E+03  0.17237586897E+03 0.  0.
        -24    2    3    3    0    0 -0.61929355848E+02  0.18606781379E+02  0.13590060873E+02  0.10391536256E+03  0.80201342840E+02 0.  0.
          6    2    1    2  501    0  0.43454868125E+02 -0.15685322108E+02  0.56272144605E+03  0.59059192805E+03  0.17323118869E+03 0.  0.
         24    2    5    5    0    0  0.55746870982E+02 -0.49063802318E+02  0.21545255185E+03  0.24147448197E+03  0.79844555365E+02 0.  0.
          5    1    5    5  501    0 -0.12292002858E+02  0.33378480209E+02  0.34726889420E+03  0.34911744608E+03  0.47000000000E+01 0. -1.
        -11    1    6    6    0    0  0.61184517143E+02 -0.24045842684E+02  0.79631114072E+02  0.10326113507E+03  0.00000000000E+00 0.  1.
         12    1    6    6    0    0 -0.54376461601E+01 -0.25017959633E+02  0.13582143778E+03  0.13821334689E+03  0.00000000000E+00 0. -1.
         -5    1    3    3    0  503  0.18474487723E+02 -0.29214592711E+01  0.11361370204E+03  0.11523890364E+03  0.47000000000E+01 0.  1.
         13    1    4    4    0    0 -0.35560773326E+02  0.12006403270E+02 -0.32998920572E+02  0.49976505259E+02  0.00000000000E+00 0. -1.
        -14    1    4    4    0    0 -0.26368582523E+02  0.66003781097E+01  0.46588981444E+02  0.53938857306E+02  0.00000000000E+00 0.  1.
</event>
<event>
12    1  0.8494789E-002  0.2196375E+03  0.7818608E-02  0.1134357E+00
         21   -1    0    0  503  502  0.00000000000E+00  0.00000000000E+00  0.83281540913E+03  0.83281540913E+03  0.00000000000E+00 0.  1.
         21   -1    0    0  501  503 -0.00000000000E+00 -0.00000000000E+00 -0.57955131056E+02  0.57955131056E+02  0.00000000000E+00 0. -1.
          6    2    1    2  501    0 -0.13335603791E+03 -0.26368903975E+02  0.35546594013E+03  0.41784764400E+03  0.17251512126E+03 0.  0.
         24    2    3    3    0    0 -0.76866665425E+02  0.39016822999E+02  0.27808960583E+03  0.30176349519E+03  0.79351001427E+02 0.  0.
         -6    2    1    2    0  502  0.13335603791E+03  0.26368903975E+02  0.41939433794E+03  0.47292289618E+03  0.17112949217E+03 0.  0.
        -24    2    5    5    0    0  0.59870988136E+02  0.85459974321E+01  0.36793957169E+03  0.38134019307E+03  0.79895213534E+02 0.  0.
          5    1    3    3  501    0 -0.56489372489E+02 -0.65385726975E+02  0.77376334298E+02  0.11608414881E+03  0.47000000000E+01 0. -1.
        -13    1    4    4    0    0 -0.85394943286E+02  0.89255598282E+01  0.20669038683E+03  0.22381438283E+03  0.00000000000E+00 0.  1.
         14    1    4    4    0    0  0.85282778616E+01  0.30091263171E+02  0.71399219006E+02  0.77949112357E+02  0.00000000000E+00 0. -1.
         -5    1    5    5    0  502  0.73485049778E+02  0.17822906543E+02  0.51454766254E+02  0.91582703109E+02  0.47000000000E+01 0.  1.
         11    1    6    6    0    0  0.33155308562E+02  0.27287247590E+02  0.73703206059E+02  0.85299653870E+02  0.00000000000E+00 0. -1.
        -12    1    6    6    0    0  0.26715679574E+02 -0.18741250158E+02  0.29423636563E+03  0.29604053920E+03  0.00000000000E+00 0.  1.
</event>
<event>
12    1  0.8494789E-002  0.3223771E+03  0.7818608E-02  0.1074803E+00
         21   -1    0    0  503  502  0.00000000000E+00  0.00000000000E+00  0.43236485752E+03  0.43236485752E+03  0.00000000000E+00 0. -1.
         21   -1    0    0  501  503 -0.00000000000E+00 -0.00000000000E+00 -0.24013047459E+03  0.24013047459E+03  0.00000000000E+00 0.  1.
          6    2    1    2  501    0 -0.17319075464E+03 -0.20764155872E+03  0.71332252183E+02  0.33017467526E+03  0.17554763336E+03 0.  0.
         24    2    3    3    0    0 -0.93544405931E+02 -0.80872662571E+02 -0.29113368860E+02  0.14982693704E+03  0.79432860855E+02 0.  0.
         -6    2    1    2    0  502  0.17319075464E+03  0.20764155872E+03  0.12090213075E+03  0.34232065685E+03  0.17162765654E+03 0.  0.
        -24    2    5    5    0    0  0.54250406127E+02  0.15874331476E+03  0.10195071179E+03  0.21224725047E+03  0.80699449506E+02 0.  0.
          5    1    3    3  501    0 -0.79646348714E+02 -0.12676889615E+03  0.10044562104E+03  0.18034773822E+03  0.47000000000E+01 0. -1.
        -11    1    4    4    0    0 -0.64602000121E+02 -0.32713074189E+02 -0.52008511032E+02  0.89154073728E+02  0.00000000000E+00 0.  1.
         12    1    4    4    0    0 -0.28942405810E+02 -0.48159588382E+02  0.22895142172E+02  0.60672863310E+02  0.00000000000E+00 0. -1.
         -5    1    5    5    0  502  0.11894034852E+03  0.48898243955E+02  0.18951418955E+02  0.13007340638E+03  0.47000000000E+01 0.  1.
         11    1    6    6    0    0  0.79979151272E+01  0.45885889353E+01  0.37934643783E+02  0.39039198170E+02  0.00000000000E+00 0. -1.
        -12    1    6    6    0    0  0.46252491000E+02  0.15415472583E+03  0.64016068012E+02  0.17320805230E+03  0.00000000000E+00 0.  1.
</event>
<event>
12    1  0.8494789E-002  0.1815755E+03  0.7818608E-02  0.1166575E+00
         21   -1    0    0  503  502  0.00000000000E+00  0.00000000000E+00  0.75567998716E+02  0.75567998716E+02  0.00000000000E+00 0. -1.
         21   -1    0    0  501  503 -0.00000000000E+00 -0.00000000000E+00 -0.70708485233E+03  0.70708485233E+03  0.00000000000E+00 0. -1.
          6    2    1    2  501    0 -0.57604948170E+02 -0.15994185447E+02 -0.55857075873E+03  0.58697252740E+03  0.17018023209E+03 0.  0.
         24    2    3    3    0    0  0.99628853654E+01 -0.39495365829E+02 -0.25909435856E+03  0.27903434876E+03  0.95242522762E+02 0.  0.
         -6    2    1    2    0  502  0.57604948170E+02  0.15994185447E+02 -0.72946094877E+02  0.19568032364E+03  0.17145119504E+03 0.  0.
        -24    2    5    5    0    0  0.52550912198E+02  0.43694897248E+02 -0.10853236481E+03  0.15005855996E+03  0.77893868740E+02 0.  0.
          5    1    3    3  501    0 -0.67567833535E+02  0.23501180381E+02 -0.29947640017E+03  0.30793817864E+03  0.47000000000E+01 0. -1.
        -13    1    4    4    0    0  0.22619946730E+02  0.23850613075E+02 -0.47246032978E+02  0.57556071498E+02  0.00000000000E+00 0.  1.
         14    1    4    4    0    0 -0.12657061365E+02 -0.63345978904E+02 -0.21184832559E+03  0.22147827726E+03  0.00000000000E+00 0. -1.
         -5    1    5    5    0  502  0.50540359716E+01 -0.27700711801E+02  0.35586269929E+02  0.45621763681E+02  0.47000000000E+01 0.  1.
         11    1    6    6    0    0  0.18449927699E+02  0.38436128589E+02 -0.74906160429E+01  0.43287932981E+02  0.00000000000E+00 0. -1.
        -12    1    6    6    0    0  0.34100984499E+02  0.52587686590E+01 -0.10104174876E+03  0.10677062698E+03  0.00000000000E+00 0.  1.
</event>
<event>
12    1  0.8494789E-002  0.1884946E+03  0.7818608E-02  0.1161808E+00
         21   -1    0    0  503  502  0.00000000000E+00  0.00000000000E+00  0.24053544500E+03  0.24053544500E+03  0.00000000000E+00 0.  1.
         21   -1    0    0  501  503 -0.00000000000E+00 -0.00000000000E+00 -0.26218166812E+03  0.26218166812E+03  0.00000000000E+00 0.  1.
          6    2    1    2  501    0  0.36500927515E+02  0.65610420778E+02 -0.18172430164E+03  0.26182809922E+03  0.17289646240E+03 0.  0.
         24    2    3    3    0    0  0.87182874430E+02  0.20330607312E+02 -0.13172029709E+03  0.17732122541E+03  0.77964050224E+02 0.  0.
         -6    2    1    2    0  502 -0.36500927515E+02 -0.65610420778E+02  0.16007807852E+03  0.24088901390E+03  0.16360159160E+03 0.  0.
        -24    2    5    5    0    0 -0.77033329777E+02 -0.24101086184E+02  0.71074348654E+02  0.13454215489E+03  0.80839545739E+02 0.  0.
          5    1    3    3  501    0 -0.50681946916E+02  0.45279813467E+02 -0.50004004553E+02  0.84506873816E+02  0.47000000000E+01 0. -1.
        -11    1    4    4    0    0  0.30378284157E+02 -0.77557244758E+01 -0.10314997450E+03  0.10780959442E+03  0.00000000000E+00 0.  1.
         12    1    4    4    0    0  0.56804590274E+02  0.28086331788E+02 -0.28570322590E+02  0.69511630986E+02  0.00000000000E+00 0. -1.
         -5    1    5    5    0  502  0.40532402262E+02 -0.41509334594E+02  0.89003729864E+02  0.10634685901E+03  0.47000000000E+01 0.  1.
         13    1    6    6    0    0 -0.88223652010E+02 -0.30421665112E+02  0.76423861161E+02  0.12062129595E+03  0.00000000000E+00 0. -1.
        -14    1    6    6    0    0  0.11190322233E+02  0.63205789280E+01 -0.53495125070E+01  0.13920858943E+02  0.00000000000E+00 0.  1.
</event>
<event>
12    1  0.8494789E-002  0.1725152E+03  0.7818608E-02  0.1175303E+00
         21   -1    0    0  501  502  0.00000000000E+00  0.00000000000E+00  0.77509717830E+03  0.77509717830E+03  0.00000000000E+00 0. -1.
         21   -1    0    0  502  503 -0.00000000000E+00 -0.00000000000E+00 -0.39224102321E+02  0.39224102321E+02  0.00000000000E+00 0. -1.
         -6    2    1    2    0  503 -0.14341556087E+02 -0.46825132172E+01  0.30740581017E+03  0.35250509691E+03  0.17185431346E+03 0.  0.
        -24    2    3    3    0    0 -0.58778746565E+02 -0.43627225072E+02  0.17889638541E+03  0.21098436792E+03  0.84570745414E+02 0.  0.
          6    2    1    2  501    0  0.14341556087E+02  0.46825132172E+01  0.42846726581E+03  0.46181618371E+03  0.17164609961E+03 0.  0.
         24    2    5    5    0    0  0.57840735470E+01  0.19834359109E+02  0.43306059976E+03  0.44321517142E+03  0.92039925081E+02 0.  0.
          5    1    5    5  501    0  0.85574825400E+01 -0.15151845892E+02 -0.45933339539E+01  0.18601012289E+02  0.47000000000E+01 0. -1.
        -11    1    6    6    0    0  0.43528908001E+02 -0.76660893857E+01  0.15179412459E+03  0.15809804243E+03  0.00000000000E+00 0.  1.
         12    1    6    6    0    0 -0.37744834454E+02  0.27500448495E+02  0.28126647517E+03  0.28511712900E+03  0.00000000000E+00 0. -1.
         -5    1    3    3    0  503  0.44437190478E+02  0.38944711855E+02  0.12850942476E+03  0.14152072898E+03  0.47000000000E+01 0.  1.
         13    1    4    4    0    0 -0.46332028411E+02 -0.18923030323E+02  0.17622413287E+03  0.18319302099E+03  0.00000000000E+00 0. -1.
        -14    1    4    4    0    0 -0.12446718154E+02 -0.24704194749E+02  0.26722525448E+01  0.27791346938E+02  0.00000000000E+00 0.  1.
</event>
<event>
12    1  0.8494789E-002  0.2577217E+03  0.7818608E-02  0.1108814E+00
         21   -1    0    0  503  502  0.00000000000E+00  0.00000000000E+00  0.22634998039E+03  0.22634998039E+03  0.00000000000E+00 0.  1.
         21   -1    0    0  501  503 -0.00000000000E+00 -0.00000000000E+00 -0.11318772369E+04  0.11318772369E+04  0.00000000000E+00 0.  1.
          6    2    1    2  501    0  0.12422524748E+02 -0.19044367230E+03  0.13292796757E+03  0.28826941312E+03  0.17031235580E+03 0.  0.
         24    2    3    3    0    0  0.55444449914E+02 -0.15598704337E+03  0.53850124186E+02  0.19176272611E+03  0.80418048509E+02 0.  0.
         -6    2    1    2    0  502 -0.12422524748E+02  0.19044367230E+03 -0.10384552241E+04  0.10699578042E+04  0.17319739846E+03 0.  0.
        -24    2    5    5    0    0 -0.75395055139E+02  0.11910276955E+03 -0.63845405540E+03  0.65876674282E+03  0.80499419420E+02 0.  0.
          5    1    3    3  501    0 -0.43021925166E+02 -0.34456628927E+02  0.79077843385E+02  0.96506687004E+02  0.47000000000E+01 0. -1.
        -13    1    4    4    0    0  0.56460053007E+02 -0.43055948721E+02  0.23976210302E+02  0.74942717900E+02  0.00000000000E+00 0.  1.
         14    1    4    4    0    0 -0.10156030923E+01 -0.11293109465E+03  0.29873913884E+02  0.11682000821E+03  0.00000000000E+00 0. -1.
         -5    1    5    5    0  502  0.62972530391E+02  0.71340902745E+02 -0.40000116870E+03  0.41119106137E+03  0.47000000000E+01 0.  1.
         13    1    6    6    0    0 -0.96865543943E+01  0.22415529272E+02 -0.27704878877E+02  0.36930280288E+02  0.00000000000E+00 0. -1.
        -14    1    6    6    0    0 -0.65708500744E+02  0.96687240281E+02 -0.61074917652E+03  0.62183646253E+03  0.00000000000E+00 0.  1.
</event>
<event>
12    1  0.8494789E-002  0.1822005E+03  0.7818608E-02  0.1166126E+00
         21   -1    0    0  501  502  0.00000000000E+00  0.00000000000E+00  0.22637458872E+03  0.22637458872E+03  0.00000000000E+00 0. -1.
         21   -1    0    0  502  503 -0.00000000000E+00 -0.00000000000E+00 -0.13388544511E+04  0.13388544511E+04  0.00000000000E+00 0. -1.
         -6    2    1    2    0  503 -0.53504228521E+02  0.22744102267E+01 -0.12955062327E+04  0.13082558715E+04  0.17415266567E+03 0.  0.
        -24    2    3    3    0    0 -0.41162645913E+02  0.69686798226E+02 -0.86364307306E+03  0.87096349406E+03  0.78405593427E+02 0.  0.
          6    2    1    2  501    0  0.53504228521E+02 -0.22744102267E+01  0.18302637031E+03  0.25697316832E+03  0.17224599152E+03 0.  0.
         24    2    5    5    0    0 -0.88873761107E+01 -0.54499028928E+01  0.21032867202E+02  0.83287299202E+02  0.79910611372E+02 0.  0.
          5    1    5    5  501    0  0.62391604632E+02  0.31754926661E+01  0.16199350311E+03  0.17368586912E+03  0.47000000000E+01 0. -1.
        -11    1    6    6    0    0  0.25560119761E+02 -0.15045520953E+02  0.34119654631E+02  0.45208829393E+02  0.00000000000E+00 0.  1.
         12    1    6    6    0    0 -0.34447495872E+02  0.95956180604E+01 -0.13086787428E+02  0.38078469809E+02  0.00000000000E+00 0. -1.
         -5    1    3    3    0  503 -0.12341582608E+02 -0.67412387999E+02 -0.43186315964E+03  0.43729237744E+03  0.47000000000E+01 0.  1.
         13    1    4    4    0    0 -0.23764491313E+01 -0.13735155176E+02 -0.25766710192E+03  0.25804386722E+03  0.00000000000E+00 0. -1.
        -14    1    4    4    0    0 -0.38786196782E+02  0.83421953401E+02 -0.60597597113E+03  0.61291962684E+03  0.00000000000E+00 0.  1.
</event>
<event>
12    1  0.8494789E-002  0.1729243E+03  0.7818608E-02  0.1174977E+00
         21   -1    0    0  503  502  0.00000000000E+00  0.00000000000E+00  0.70263285723E+02  0.70263285723E+02  0.00000000000E+00 0.  1.
         21   -1    0    0  501  503 -0.00000000000E+00 -0.00000000000E+00 -0.46693243130E+03  0.46693243130E+03  0.00000000000E+00 0.  1.
          6    2    1    2  501    0 -0.22161520110E+02 -0.52968518440E+00 -0.27930800174E+03  0.32820663168E+03  0.17092460238E+03 0.  0.
         24    2    3    3    0    0 -0.69533020101E+02  0.33656417436E+02 -0.20809144284E+03  0.23597520056E+03  0.80091518758E+02 0.  0.
         -6    2    1    2    0  502  0.22161520110E+02  0.52968518440E+00 -0.11736114383E+03  0.20898908535E+03  0.17149748153E+03 0.  0.
        -24    2    5    5    0    0  0.36728722209E+02 -0.47095009903E+02 -0.12935931038E+03  0.15754629227E+03  0.67231421471E+02 0.  0.
          5    1    3    3  501    0  0.47371499990E+02 -0.34186102620E+02 -0.71216558901E+02  0.92231431114E+02  0.47000000000E+01 0. -1.
        -13    1    4    4    0    0 -0.53178579891E+02  0.57938470090E+02 -0.12304120002E+03  0.14602727340E+03  0.00000000000E+00 0.  1.
         14    1    4    4    0    0 -0.16354440210E+02 -0.24282052654E+02 -0.85050242826E+02  0.89947927160E+02  0.00000000000E+00 0. -1.
         -5    1    5    5    0  502 -0.14567202099E+02  0.47624695088E+02  0.11998166546E+02  0.51442793078E+02  0.47000000000E+01 0.  1.
         13    1    6    6    0    0 -0.11042389477E+02  0.97248981219E+01 -0.31032995209E+02  0.34344647334E+02  0.00000000000E+00 0. -1.
        -14    1    6    6    0    0  0.47771111687E+02 -0.56819908025E+02 -0.98326315171E+02  0.12320164494E+03  0.00000000000E+00 0.  1.
</event>
<event>
12    1  0.8494789E-002  0.2282017E+03  0.7818608E-02  0.1128586E+00
         21   -1    0    0  503  502  0.00000000000E+00  0.00000000000E+00  0.12009375618E+04  0.12009375618E+04  0.00000000000E+00 0. -1.
         21   -1    0    0  501  503 -0.00000000000E+00 -0.00000000000E+00 -0.58863987966E+02  0.58863987966E+02  0.00000000000E+00 0.  1.
          6    2    1    2  501    0 -0.13855344605E+03  0.59223177283E+02  0.23702932581E+03  0.32643071069E+03  0.16634201347E+03 0.  0.
         24    2    3    3    0    0 -0.29732164624E+02  0.72602762247E+02  0.89862827402E+02  0.14285197325E+03  0.78588776636E+02 0.  0.
         -6    2    1    2    0  502  0.13855344605E+03 -0.59223177283E+02  0.90504424798E+03  0.93337083904E+03  0.17138141738E+03 0.  0.
        -24    2    5    5    0    0  0.94800158222E+02 -0.98440579067E+02  0.51423081063E+03  0.53813725290E+03  0.80503159874E+02 0.  0.
          5    1    3    3  501    0 -0.10882128143E+03 -0.13379584964E+02  0.14716649841E+03  0.18357873744E+03  0.47000000000E+01 0. -1.
        -13    1    4    4    0    0 -0.54792779485E+02  0.63235652341E+02  0.61357350161E+02  0.10375799164E+03  0.00000000000E+00 0.  1.
         14    1    4    4    0    0  0.25060614860E+02  0.93671099059E+01  0.28505477241E+02  0.39093981607E+02  0.00000000000E+00 0. -1.
         -5    1    5    5    0  502  0.43753287829E+02  0.39217401784E+02  0.39081343735E+03  0.39523358614E+03  0.47000000000E+01 0.  1.
         11    1    6    6    0    0  0.58792847455E+02 -0.82089839239E+02  0.46039760754E+03  0.47133989609E+03  0.00000000000E+00 0. -1.
        -12    1    6    6    0    0  0.36007310767E+02 -0.16350739827E+02  0.53833203092E+02  0.66797356809E+02  0.00000000000E+00 0.  1.
</event>
<event>
12    1  0.8494789E-002  0.1844200E+03  0.7818608E-02  0.1163697E+00
         21   -1    0    0  503  502  0.00000000000E+00  0.00000000000E+00  0.10211484271E+04  0.10211484271E+04  0.00000000000E+00 0. -1.
         21   -1    0    0  501  503 -0.00000000000E+00 -0.00000000000E+00 -0.37119386797E+02  0.37119386797E+02  0.00000000000E+00 0. -1.
          6    2    1    2  501    0  0.55359004341E+02  0.33135732950E+02  0.32012727720E+03  0.36922769286E+03  0.17229341080E+03 0.  0.
         24    2    3    3    0    0  0.10151009035E+03  0.22741444345E+02  0.19496838978E+03  0.23534415736E+03  0.80948920047E+02 0.  0.
         -6    2    1    2    0  502 -0.55359004341E+02 -0.33135732950E+02  0.66390176312E+03  0.68904012106E+03  0.17276614597E+03 0.  0.
        -24    2    5    5    0    0 -0.81395710812E+02  0.33745654413E+01  0.21131521076E+03  0.23421313268E+03  0.59707820212E+02 0.  0.
          5    1    3    3  501    0 -0.46151086014E+02  0.10394288605E+02  0.12515888743E+03  0.13388353550E+03  0.47000000000E+01 0. -1.
        -11    1    4    4    0    0  0.27112573085E+02 -0.25936567516E+02  0.91683362928E+02  0.99063798592E+02  0.00000000000E+00 0.  1.
         12    1    4    4    0    0  0.74397517270E+02  0.48678011861E+02  0.10328502685E+03  0.13628035877E+03  0.00000000000E+00 0. -1.
         -5    1    5    5    0  502  0.26036706471E+02 -0.36510298392E+02  0.45258655237E+03  0.45482698838E+03  0.47000000000E+01 0.  1.
         13    1    6    6    0    0 -0.41709986050E-01 -0.60508236587E+01  0.74596409286E+02  0.74841422254E+02  0.00000000000E+00 0. -1.
        -14    1    6    6    0    0 -0.81354000826E+02  0.94253891001E+01  0.13671880147E+03  0.15937171043E+03  0.00000000000E+00 0.  1.
</event>
<event>
12    1  0.8494789E-002  0.2354082E+03  0.7818608E-02  0.1122895E+00
         21   -1    0    0  503  502  0.00000000000E+00  0.00000000000E+00  0.10056326413E+03  0.10056326413E+03  0.00000000000E+00 0. -1.
         21   -1    0    0  501  503 -0.00000000000E+00 -0.00000000000E+00 -0.58624392804E+03  0.58624392804E+03  0.00000000000E+00 0.  1.
          6    2    1    2  501    0 -0.37735655358E+02 -0.15642922952E+03 -0.32704921631E+03  0.40296181956E+03  0.17182245081E+03 0.  0.
         24    2    3    3    0    0 -0.83785759319E+02 -0.13231564270E+03 -0.28954897601E+03  0.33869335788E+03  0.79668678898E+02 0.  0.
         -6    2    1    2    0  502  0.37735655358E+02  0.15642922952E+03 -0.15863144760E+03  0.28384537260E+03  0.17178526085E+03 0.  0.
        -24    2    5    5    0    0 -0.59276706133E+00  0.17342103390E+03 -0.12140143549E+03  0.22757856904E+03  0.83537357968E+02 0.  0.
          5    1    3    3  501    0  0.46050103961E+02 -0.24113586826E+02 -0.37500240297E+02  0.64268461681E+02  0.47000000000E+01 0. -1.
        -13    1    4    4    0    0 -0.47793103042E+02 -0.13064927858E+03 -0.24041535466E+03  0.27776421197E+03  0.00000000000E+00 0.  1.
         14    1    4    4    0    0 -0.35992656277E+02 -0.16663641182E+01 -0.49133621348E+02  0.60929145916E+02  0.00000000000E+00 0. -1.
         -5    1    5    5    0  502  0.38328422419E+02 -0.16991804379E+02 -0.37230012109E+02  0.56266803560E+02  0.47000000000E+01 0.  1.
         13    1    6    6    0    0  0.20880872749E+02  0.57424920620E+02 -0.41358497672E+01  0.61243265820E+02  0.00000000000E+00 0. -1.
        -14    1    6    6    0    0 -0.21473639810E+02  0.11599611328E+03 -0.11726558573E+03  0.16633530322E+03  0.00000000000E+00 0.  1.
</event>
<event>
12    1  0.8494789E-002  0.2403491E+03  0.7818608E-02  0.1119738E+00
         21   -1    0    0  501  502  0.00000000000E+00  0.00000000000E+00  0.95918037876E+03  0.95918037876E+03  0.00000000000E+00 0.  1.
         21   -1    0    0  502  503 -0.00000000000E+00 -0.00000000000E+00 -0.17832156351E+03  0.17832156351E+03  0.00000000000E+00 0. -1.
         -6    2    1    2    0  503  0.28988826754E+01 -0.16618156549E+03 -0.73228718753E+02  0.25024029850E+03  0.17214251513E+03 0.  0.
        -24    2    3    3    0    0  0.28626534492E+02 -0.15119170463E+02 -0.30534765068E+02  0.91096894807E+02  0.79487134640E+02 0.  0.
          6    2    1    2  501    0 -0.28988826754E+01  0.16618156549E+03  0.85408753401E+03  0.88726164377E+03  0.17361737394E+03 0.  0.
         24    2    5    5    0    0  0.29417003423E+02  0.17888471252E+03  0.78482833016E+03  0.80964325835E+03  0.81863285382E+02 0.  0.
          5    1    5    5  501    0 -0.32315886098E+02 -0.12703147039E+02  0.69259203846E+02  0.77618385427E+02  0.47000000000E+01 0. -1.
        -11    1    6    6    0    0 -0.21065344585E+01  0.57478952102E+02  0.11983301806E+03  0.13292185539E+03  0.00000000000E+00 0.  1.
         12    1    6    6    0    0  0.31523537881E+02  0.12140576042E+03  0.66499531210E+03  0.67672140295E+03  0.00000000000E+00 0. -1.
         -5    1    3    3    0  503 -0.25727651816E+02 -0.15106239502E+03 -0.42693953685E+02  0.15914340369E+03  0.47000000000E+01 0.  1.
         13    1    4    4    0    0 -0.10095567058E+02  0.26401250780E+02 -0.44385017489E+01  0.28612004731E+02  0.00000000000E+00 0. -1.
        -14    1    4    4    0    0  0.38722101550E+02 -0.41520421243E+02 -0.26096263319E+02  0.62484890076E+02  0.00000000000E+00 0.  1.
</event>
<event>
12    1  0.8494789E-002  0.2424412E+03  0.7818608E-02  0.1118287E+00
         21   -1    0    0  501  502  0.00000000000E+00  0.00000000000E+00  0.71407534962E+03  0.71407534962E+03  0.00000000000E+00 0.  1.
         21   -1    0    0  502  503 -0.00000000000E+00 -0.00000000000E+00 -0.10899887473E+03  0.10899887473E+03  0.00000000000E+00 0. -1.
         -6    2    1    2    0  503  0.48869222631E+02 -0.16272734170E+03  0.98362432277E+02  0.26163501803E+03  0.17294312915E+03 0.  0.
        -24    2    3    3    0    0  0.72337856887E+02 -0.17998287794E+03  0.73724482184E+02  0.22319481889E+03  0.82182881541E+02 0.  0.
          6    2    1    2  501    0 -0.48869222631E+02  0.16272734170E+03  0.50671404261E+03  0.56143920632E+03  0.17200718809E+03 0.  0.
         24    2    5    5    0    0 -0.67170606448E+02  0.16379071384E+03  0.32332166377E+03  0.37707292408E+03  0.79421681547E+02 0.  0.
          5    1    5    5  501    0  0.18301383817E+02 -0.10633721423E+01  0.18339237884E+03  0.18436628224E+03  0.47000000000E+01 0. -1.
        -13    1    6    6    0    0 -0.50483598906E+01  0.54208683548E+02  0.17075652977E+03  0.17922572296E+03  0.00000000000E+00 0.  1.
         14    1    6    6    0    0 -0.62122246558E+02  0.10958203029E+03  0.15256513400E+03  0.19784720112E+03  0.00000000000E+00 0. -1.
         -5    1    3    3    0  503 -0.23468634256E+02  0.17255536240E+02  0.24637950093E+02  0.38440199135E+02  0.47000000000E+01 0.  1.
         13    1    4    4    0    0  0.11048776347E+02 -0.33087558436E+02 -0.18244385600E+02  0.39366477972E+02  0.00000000000E+00 0. -1.
        -14    1    4    4    0    0  0.61289080539E+02 -0.14689531950E+03  0.91968867783E+02  0.18382834092E+03  0.00000000000E+00 0.  1.
</event>
<event>
12    1  0.8494789E-002  0.1761931E+03  0.7818608E-02  0.1171761E+00
         21   -1    0    0  503  502  0.00000000000E+00  0.00000000000E+00  0.48301519085E+03  0.48301519085E+03  0.00000000000E+00 0. -1.
         21   -1    0    0  501  503 -0.00000000000E+00 -0.00000000000E+00 -0.78525757851E+02  0.78525757851E+02  0.00000000000E+00 0. -1.
          6    2    1    2  501    0 -0.21872267258E+02  0.24235159276E+02  0.80853120053E+02  0.19305149763E+03  0.17223795950E+03 0.  0.
         24    2    3    3    0    0  0.11404138697E+02 -0.31084061063E+02  0.89222919517E+02  0.12778528221E+03  0.85276466568E+02 0.  0.
         -6    2    1    2    0  502  0.21872267258E+02 -0.24235159276E+02  0.32363631295E+03  0.36848945108E+03  0.17314235032E+03 0.  0.
        -24    2    5    5    0    0 -0.38241613932E+02  0.27675497161E+02  0.13533702225E+03  0.16407049931E+03  0.79841499063E+02 0.  0.
          5    1    3    3  501    0 -0.33276405955E+02  0.55319220339E+02 -0.83697994637E+01  0.65266215420E+02  0.47000000000E+01 0. -1.
        -11    1    4    4    0    0  0.32648007805E+02  0.14630135494E+02  0.16745321153E+02  0.39501127310E+02  0.00000000000E+00 0.  1.
         12    1    4    4    0    0 -0.21243869108E+02 -0.45714196557E+02  0.72477598364E+02  0.88284154898E+02  0.00000000000E+00 0. -1.
         -5    1    5    5    0  502  0.60113881190E+02 -0.51910656437E+02  0.18829929070E+03  0.20441895177E+03  0.47000000000E+01 0.  1.
         11    1    6    6    0    0 -0.48928562367E+02  0.29488200959E+02  0.14078843445E+03  0.15193729458E+03  0.00000000000E+00 0. -1.
        -12    1    6    6    0    0  0.10686948435E+02 -0.18127037978E+01 -0.54514121993E+01  0.12133204724E+02  0.00000000000E+00 0.  1.
</event>
<event>
12    1  0.8494789E-002  0.2160483E+03  0.7818608E-02  0.1138259E+00
         21   -1    0    0  501  502  0.00000000000E+00  0.00000000000E+00  0.14930061677E+03  0.14930061677E+03  0.00000000000E+00 0.  1.
         21   -1    0    0  502  503 -0.00000000000E+00 -0.00000000000E+00 -0.30340467966E+03  0.30340467966E+03  0.00000000000E+00 0. -1.
         -6    2    1    2    0  503  0.65024699901E+02 -0.11165608962E+03 -0.91813268885E+02  0.23474781175E+03  0.17315185483E+03 0.  0.
        -24    2    3    3    0    0 -0.15448102165E+02 -0.74919375435E+02 -0.94196539917E+02  0.14612937111E+03  0.81420195846E+02 0.  0.
          6    2    1    2  501    0 -0.65024699901E+02  0.11165608962E+03 -0.62290793996E+02  0.21795748468E+03  0.16410371161E+03 0.  0.
         24    2    5    5    0    0 -0.40291316560E+02  0.13701416841E+03 -0.24037036394E+02  0.16561044673E+03  0.80329125552E+02 0.  0.
          5    1    5    5  501    0 -0.24733383341E+02 -0.25358078787E+02 -0.38253757602E+02  0.52347037948E+02  0.47000000000E+01 0. -1.
        -11    1    6    6    0    0 -0.52434366212E+02  0.51564899215E+02  0.70418476774E+01  0.73877528450E+02  0.00000000000E+00 0.  1.
         12    1    6    6    0    0  0.12143049652E+02  0.85449269197E+02 -0.31078884072E+02  0.91732918280E+02  0.00000000000E+00 0. -1.
         -5    1    3    3    0  503  0.80472802065E+02 -0.36736714190E+02  0.23832710326E+01  0.88618440646E+02  0.47000000000E+01 0.  1.
         13    1    4    4    0    0 -0.43373434271E+02 -0.24981246912E+02 -0.23827811266E+02  0.55435386600E+02  0.00000000000E+00 0. -1.
        -14    1    4    4    0    0  0.27925332107E+02 -0.49938128523E+02 -0.70368728652E+02  0.90693984506E+02  0.00000000000E+00 0.  1.
</event>
<event>
12    1  0.8494789E-002  0.1790366E+03  0.7818608E-02  0.1169916E+00
         21   -1    0    0  503  502  0.00000000000E+00  0.00000000000E+00  0.22034080162E+03  0.22034080162E+03  0.00000000000E+00 0.  1.
         21   -1    0    0  501  503 -0.00000000000E+00 -0.00000000000E+00 -0.16499590280E+03  0.16499590280E+03  0.00000000000E+00 0.  1.
          6    2    1    2  501    0 -0.36100765086E+02 -0.20062258703E+02  0.99850298557E+02  0.20085139478E+03  0.16930871566E+03 0.  0.
         24    2    3    3    0    0  0.37025468625E+02  0.16764176027E+02  0.73086723539E+02  0.11458430199E+03  0.78332433762E+02 0.  0.
         -6    2    1    2    0  502  0.36100765086E+02  0.20062258703E+02 -0.44505399738E+02  0.18448530963E+03  0.17420774782E+03 0.  0.
        -24    2    5    5    0    0  0.55982577326E+02  0.49887072049E+02  0.18939784979E+02  0.11146348130E+03  0.80265953477E+02 0.  0.
          5    1    3    3  501    0 -0.73126233712E+02 -0.36826434730E+02  0.26763575018E+02  0.86267092796E+02  0.47000000000E+01 0. -1.
        -11    1    4    4    0    0 -0.17405601787E+02  0.12952843769E+02 -0.19749189206E+01  0.21786037731E+02  0.00000000000E+00 0.  1.
         12    1    4    4    0    0  0.54431070413E+02  0.38113322583E+01  0.75061642460E+02  0.92798264254E+02  0.00000000000E+00 0. -1.
         -5    1    5    5    0  502 -0.19881812239E+02 -0.29824813346E+02 -0.63445184717E+02  0.73021828331E+02  0.47000000000E+01 0.  1.
         11    1    6    6    0    0 -0.15766865013E+02  0.29643730506E+02  0.15097292858E+02  0.36814033225E+02  0.00000000000E+00 0. -1.
        -12    1    6    6    0    0  0.71749442338E+02  0.20243341542E+02  0.38424921206E+01  0.74649448078E+02  0.00000000000E+00 0.  1.
</event>
<event>
12    1  0.8494789E-002  0.1883170E+03  0.7818608E-02  0.1160164E+00
         21   -1    0    0  503  502  0.00000000000E+00  0.00000000000E+00  0.81283027900E+03  0.81283027900E+03  0.00000000000E+00 0. -1.
         21   -1    0    0  501  503 -0.00000000000E+00 -0.00000000000E+00 -0.76420478898E+02  0.76420478898E+02  0.00000000000E+00 0. -1.
          6    2    1    2  501    0 -0.52790375398E+02 -0.55004578079E+02  0.75734536409E+02  0.20226088358E+03  0.17135173673E+03 0.  0.
         24    2    3    3    0    0 -0.87661200243E+02 -0.63014304598E+00  0.68664511129E+02  0.13711006726E+03  0.79996702099E+02 0.  0.
         -6    2    1    2    0  502  0.52790375398E+02  0.55004578079E+02  0.66067526369E+03  0.68698987431E+03  0.17219452955E+03 0.  0.
        -24    2    5    5    0    0 -0.13134210518E+02  0.13999050081E+02  0.52439321232E+03  0.53007463643E+03  0.74982652428E+02 0.  0.
          5    1    3    3  501    0  0.34870824845E+02 -0.54374435033E+02  0.70700252799E+01  0.65150816326E+02  0.47000000000E+01 0. -1.
        -13    1    4    4    0    0 -0.69998175786E+02 -0.78665472498E+01  0.86110677576E+02  0.11125050998E+03  0.00000000000E+00 0.  1.
         14    1    4    4    0    0 -0.17663024457E+02  0.72364042038E+01 -0.17446166447E+02  0.25859557275E+02  0.00000000000E+00 0. -1.
         -5    1    5    5    0  502  0.65924585917E+02  0.41005527998E+02  0.13628205137E+03  0.15691523788E+03  0.47000000000E+01 0.  1.
         13    1    6    6    0    0  0.19547118950E+02  0.33903615450E+02  0.26462556705E+03  0.26750371163E+03  0.00000000000E+00 0. -1.
        -14    1    6    6    0    0 -0.32681329468E+02 -0.19904565369E+02  0.25976764528E+03  0.26257092480E+03  0.00000000000E+00 0.  1.
</event>
<event>
12    1  0.8494789E-002  0.1764855E+03  0.7818608E-02  0.1171264E+00
         21   -1    0    0  501  502  0.00000000000E+00  0.00000000000E+00  0.27871011593E+03  0.27871011593E+03  0.00000000000E+00 0.  1.
         21   -1    0    0  502  503 -0.00000000000E+00 -0.00000000000E+00 -0.11346962326E+03  0.11346962326E+03  0.00000000000E+00 0.  1.
         -6    2    1    2    0  503  0.32695356836E+02 -0.23723393392E+02  0.58250356715E+02  0.18584998827E+03  0.17180025707E+03 0.  0.
        -24    2    3    3    0    0  0.24243183934E+01 -0.24041480352E+02  0.10255730767E+03  0.13198318170E+03  0.79483890181E+02 0.  0.
          6    2    1    2  501    0 -0.32695356836E+02  0.23723393392E+02  0.10699013596E+03  0.20632975092E+03  0.17173610910E+03 0.  0.
         24    2    5    5    0    0 -0.56769527907E+02  0.18200549587E+02  0.13605345483E+03  0.16790015269E+03  0.78267997267E+02 0.  0.
          5    1    5    5  501    0  0.24074171071E+02  0.55228438047E+01 -0.29063318874E+02  0.38429598234E+02  0.47000000000E+01 0. -1.
        -11    1    6    6    0    0 -0.72921917475E+02  0.27306115198E+02  0.12158120667E+03  0.14437873732E+03  0.00000000000E+00 0.  1.
         12    1    6    6    0    0  0.16152389568E+02 -0.91055656109E+01  0.14472248164E+02  0.23521415365E+02  0.00000000000E+00 0. -1.
         -5    1    3    3    0  503  0.30271038443E+02  0.31808696054E+00 -0.44306950952E+02  0.53866806573E+02  0.47000000000E+01 0.  1.
         13    1    4    4    0    0  0.23101824255E+02  0.21540097052E+02  0.28160692114E+02  0.42316600115E+02  0.00000000000E+00 0. -1.
        -14    1    4    4    0    0 -0.20677505862E+02 -0.45581577404E+02  0.74396615552E+02  0.89666581584E+02  0.00000000000E+00 0.  1.
</event>
<event>
12    1  0.8494789E-002  0.1994818E+03  0.7818608E-02  0.1150584E+00
         21   -1    0    0  503  502  0.00000000000E+00  0.00000000000E+00  0.39831072054E+02  0.39831072054E+02  0.00000000000E+00 0.  1.
         21   -1    0    0  501  503 -0.00000000000E+00 -0.00000000000E+00 -0.12703050012E+04  0.12703050012E+04  0.00000000000E+00 0. -1.
          6    2    1    2  501    0 -0.58318387310E+02 -0.81179687660E+02 -0.92091989123E+03  0.94187435721E+03  0.17041913836E+03 0.  0.
         24    2    3    3    0    0  0.25224012168E+02 -0.59486440869E+02 -0.61159376104E+03  0.62069734327E+03  0.83924823250E+02 0.  0.
         -6    2    1    2    0  502  0.58318387310E+02  0.81179687660E+02 -0.30955403789E+03  0.36826171602E+03  0.17263201651E+03 0.  0.
        -24    2    5    5    0    0  0.10024010922E+03  0.82453125689E+02 -0.21916542833E+03  0.26850579814E+03  0.84942811534E+02 0.  0.
          5    1    3    3  501    0 -0.83542399479E+02 -0.21693246791E+02 -0.30932613019E+03  0.32117701394E+03  0.47000000000E+01 0. -1.
        -13    1    4    4    0    0  0.17020905865E+02  0.19846595760E+02 -0.14659717493E+03  0.14891047746E+03  0.00000000000E+00 0.  1.
         14    1    4    4    0    0  0.82031063036E+01 -0.79333036629E+02 -0.46499658611E+03  0.47178686581E+03  0.00000000000E+00 0. -1.
         -5    1    5    5    0  502 -0.41921721909E+02 -0.12734380284E+01 -0.90388609563E+02  0.99755917875E+02  0.47000000000E+01 0.  1.
         13    1    6    6    0    0  0.46279746883E+02  0.66121297892E+02 -0.18682041370E+03  0.20350849610E+03  0.00000000000E+00 0. -1.
        -14    1    6    6    0    0  0.53960362336E+02  0.16331827796E+02 -0.32345014621E+02  0.64997302047E+02  0.00000000000E+00 0.  1.
</event>
<event>
12    1  0.8494789E-002  0.1751849E+03  0.7818608E-02  0.1172801E+00
         21   -1    0    0  501  502  0.00000000000E+00  0.00000000000E+00  0.10400382077E+03  0.10400382077E+03  0.00000000000E+00 0. -1.
         21   -1    0    0  502  503 -0.00000000000E+00 -0.00000000000E+00 -0.49912064573E+03  0.49912064573E+03  0.00000000000E+00 0. -1.
         -6    2    1    2    0  503  0.26825542430E+02  0.88499456114E+01 -0.39083559991E+03  0.42788723186E+03  0.17186356731E+03 0.  0.
        -24    2    3    3    0    0  0.76012884512E+02 -0.18010474591E+02 -0.25929921474E+03  0.28483204175E+03  0.88265924542E+02 0.  0.
          6    2    1    2  501    0 -0.26825542430E+02 -0.88499456114E+01 -0.42812250469E+01  0.17523723464E+03  0.17289253383E+03 0.  0.
         24    2    5    5    0    0  0.26495173381E+01 -0.24849740732E+02  0.67846371830E+02  0.95555035730E+02  0.62474835944E+02 0.  0.
          5    1    5    5  501    0 -0.29475059768E+02  0.15999795121E+02 -0.72127596877E+02  0.79682198913E+02  0.47000000000E+01 0. -1.
        -13    1    6    6    0    0  0.28185499748E+02 -0.84843611406E+01  0.11572394885E+02  0.31627948138E+02  0.00000000000E+00 0.  1.
         14    1    6    6    0    0 -0.25535982410E+02 -0.16365379591E+02  0.56273976945E+02  0.63927087593E+02  0.00000000000E+00 0. -1.
         -5    1    3    3    0  503 -0.49187342082E+02  0.26860420202E+02 -0.13153638517E+03  0.14305519011E+03  0.47000000000E+01 0.  1.
         11    1    4    4    0    0  0.24506063927E+02 -0.40584438839E+02 -0.18874273189E+03  0.19460591637E+03  0.00000000000E+00 0. -1.
        -12    1    4    4    0    0  0.51506820585E+02  0.22573964249E+02 -0.70556482852E+02  0.90226125380E+02  0.00000000000E+00 0.  1.
</event>
<event>
12    1  0.8494789E-002  0.1964954E+03  0.7818608E-02  0.1152948E+00
         21   -1    0    0  503  502  0.00000000000E+00  0.00000000000E+00  0.17357757794E+02  0.17357757794E+02  0.00000000000E+00 0.  1.
         21   -1    0    0  501  503 -0.00000000000E+00 -0.00000000000E+00 -0.24161022864E+04  0.24161022864E+04  0.00000000000E+00 0. -1.
          6    2    1    2  501    0 -0.96698422988E+02  0.41229198361E+01 -0.15549916903E+04  0.15673575218E+04  0.17100544096E+03 0.  0.
         24    2    3    3    0    0 -0.93442461872E+02  0.61722423413E+02 -0.10939186790E+04  0.11026654563E+04  0.81681581886E+02 0.  0.
         -6    2    1    2    0  502  0.96698422988E+02 -0.41229198361E+01 -0.84375283836E+03  0.86610252243E+03  0.16984446895E+03 0.  0.
        -24    2    5    5    0    0  0.13106313295E+03 -0.20559800853E+02 -0.68826337662E+03  0.70594582709E+03  0.83980860675E+02 0.  0.
          5    1    3    3  501    0 -0.32559611168E+01 -0.57599503577E+02 -0.46107301124E+03  0.46469206555E+03  0.47000000000E+01 0. -1.
        -11    1    4    4    0    0 -0.55882867512E+02  0.43592367097E+02 -0.95487124574E+03  0.95749792965E+03  0.00000000000E+00 0.  1.
         12    1    4    4    0    0 -0.37559594360E+02  0.18130056316E+02 -0.13904743331E+03  0.14516752661E+03  0.00000000000E+00 0. -1.
         -5    1    5    5    0  502 -0.34364709963E+02  0.16436881017E+02 -0.15548946174E+03  0.16015669534E+03  0.47000000000E+01 0.  1.
         13    1    6    6    0    0  0.57458520970E+02  0.25077146444E+02 -0.40231145206E+03  0.40716685691E+03  0.00000000000E+00 0. -1.
        -14    1    6    6    0    0  0.73604611982E+02 -0.45636947297E+02 -0.28595192456E+03  0.29877897018E+03  0.00000000000E+00 0.  1.
</event>
<event>
12    1  0.8494789E-002  0.2054045E+03  0.7818608E-02  0.1146365E+00
         21   -1    0    0  503  502  0.00000000000E+00  0.00000000000E+00  0.32729815581E+03  0.32729815581E+03  0.00000000000E+00 0. -1.
         21   -1    0    0  501  503 -0.00000000000E+00 -0.00000000000E+00 -0.13633581783E+03  0.13633581783E+03  0.00000000000E+00 0. -1.
          6    2    1    2  501    0 -0.94997354442E+02  0.55263143917E+02  0.15947177396E+03  0.25582958694E+03  0.16714968871E+03 0.  0.
         24    2    3    3    0    0 -0.62829941596E+02 -0.27237571926E+02  0.12354572434E+03  0.16015366727E+03  0.75472937207E+02 0.  0.
         -6    2    1    2    0  502  0.94997354442E+02 -0.55263143917E+02  0.31490564023E+02  0.20780438671E+03  0.17352952223E+03 0.  0.
        -24    2    5    5    0    0  0.91757956576E+02  0.18592122862E+02 -0.84720791579E+01  0.12363671489E+03  0.80306111319E+02 0.  0.
          5    1    3    3  501    0 -0.32167412846E+02  0.82500715842E+02  0.35926049618E+02  0.95675919671E+02  0.47000000000E+01 0. -1.
        -13    1    4    4    0    0 -0.92124800200E+01 -0.23998772742E+02  0.29667641902E+00  0.25707953986E+02  0.00000000000E+00 0.  1.
         14    1    4    4    0    0 -0.53617461576E+02 -0.32387991839E+01  0.12324904792E+03  0.13444571328E+03  0.00000000000E+00 0. -1.
         -5    1    5    5    0  502  0.32393978661E+01 -0.73855266778E+02  0.39962643181E+02  0.84167671819E+02  0.47000000000E+01 0.  1.
         11    1    6    6    0    0  0.14282056988E+02 -0.28548157371E+02  0.36926317834E+01  0.32134249184E+02  0.00000000000E+00 0. -1.
        -12    1    6    6    0    0  0.77475899588E+02  0.47140280233E+02 -0.12164710941E+02  0.91502465703E+02  0.00000000000E+00 0.  1.
</event>
<event>
12    1  0.8494789E-002  0.2763211E+03  0.7818608E-02  0.1097733E+00
         21   -1    0    0  503  502  0.00000000000E+00  0.00000000000E+00  0.27074917842E+03  0.27074917842E+03  0.00000000000E+00 0. -1.
         21   -1    0    0  501  503 -0.00000000000E+00 -0.00000000000E+00 -0.29861633523E+03  0.29861633523E+03  0.00000000000E+00 0. -1.
          6    2    1    2  501    0  0.21412302613E+03  0.26568273285E+02  0.53458913103E+02  0.28144481142E+03  0.17262324009E+03 0.  0.
         24    2    3    3    0    0  0.16369313393E+03  0.80714437792E+02  0.21331391493E+02  0.20064104416E+03  0.80570079895E+02 0.  0.
         -6    2    1    2    0  502 -0.21412302613E+03 -0.26568273285E+02 -0.81326069911E+02  0.28792070223E+03  0.17242348351E+03 0.  0.
        -24    2    5    5    0    0 -0.19332441003E+03 -0.71531748383E+02 -0.65787608952E+02  0.23578788825E+03  0.93684578326E+02 0.  0.
          5    1    3    3  501    0  0.50429892196E+02 -0.54146164508E+02  0.32127521610E+02  0.80803767255E+02  0.47000000000E+01 0. -1.
        -11    1    4    4    0    0  0.36453805987E+02  0.26406739193E+02 -0.28863153715E+02  0.53472212298E+02  0.00000000000E+00 0.  1.
         12    1    4    4    0    0  0.12723932795E+03  0.54307698600E+02  0.50194545208E+02  0.14716883186E+03  0.00000000000E+00 0. -1.
         -5    1    5    5    0  502 -0.20798616101E+02  0.44963475099E+02 -0.15538460959E+02  0.52132813981E+02  0.47000000000E+01 0.  1.
         11    1    6    6    0    0 -0.23036676945E+02 -0.20543222784E+02 -0.48101043019E+02  0.57152627468E+02  0.00000000000E+00 0. -1.
        -12    1    6    6    0    0 -0.17028773308E+03 -0.50988525599E+02 -0.17686565933E+02  0.17863526078E+03  0.00000000000E+00 0.  1.
</event>
<event>
12    1  0.8494789E-002  0.1840810E+03  0.7818608E-02  0.1167793E+00
         21   -1    0    0  503  502  0.00000000000E+00  0.00000000000E+00  0.39065175878E+03  0.39065175878E+03  0.00000000000E+00 0.  1.
         21   -1    0    0  501  503 -0.00000000000E+00 -0.00000000000E+00 -0.10745903225E+03  0.10745903225E+03  0.00000000000E+00 0.  1.
          6    2    1    2  501    0  0.50009771781E+02 -0.46039108510E+02  0.19284438747E+02  0.18508838940E+03  0.17107087867E+03 0.  0.
         24    2    3    3    0    0 -0.27304557754E+01 -0.75309621246E+02  0.46891646624E+02  0.11858619060E+03  0.78643904008E+02 0.  0.
         -6    2    1    2    0  502 -0.50009771781E+02  0.46039108510E+02  0.26390828778E+03  0.31302240162E+03  0.15399630766E+03 0.  0.
        -24    2    5    5    0    0 -0.57475744068E+00  0.30963798235E+02  0.24033250165E+03  0.25602246027E+03  0.82635958679E+02 0.  0.
          5    1    3    3  501    0  0.52740227556E+02  0.29270512737E+02 -0.27607207876E+02  0.66502198800E+02  0.47000000000E+01 0. -1.
        -11    1    4    4    0    0 -0.10555978913E+02 -0.56995056416E+01 -0.18965182195E+02  0.22440837574E+02  0.00000000000E+00 0.  1.
         12    1    4    4    0    0  0.78255231372E+01 -0.69610115605E+02  0.65856828819E+02  0.96145353028E+02  0.00000000000E+00 0. -1.
         -5    1    5    5    0  502 -0.49435014340E+02  0.15075310274E+02  0.23575786135E+02  0.56999941356E+02  0.47000000000E+01 0.  1.
         11    1    6    6    0    0 -0.22861231271E+02 -0.54244935034E+01  0.17909569837E+02  0.29543420871E+02  0.00000000000E+00 0. -1.
        -12    1    6    6    0    0  0.22286473831E+02  0.36388291739E+02  0.22242293181E+03  0.22647903940E+03  0.00000000000E+00 0.  1.
</event>
<event>
12    1  0.8494789E-002  0.1839331E+03  0.7818608E-02  0.1164252E+00
         21   -1    0    0  503  502  0.00000000000E+00  0.00000000000E+00  0.95560265576E+03  0.95560265576E+03  0.00000000000E+00 0.  1.
         21   -1    0    0  501  503 -0.00000000000E+00 -0.00000000000E+00 -0.60102386960E+02  0.60102386960E+02  0.00000000000E+00 0.  1.
          6    2    1    2  501    0 -0.37250978251E+01 -0.60438174308E+02  0.12171708313E+03  0.22055934489E+03  0.17367995574E+03 0.  0.
         24    2    3    3    0    0  0.38979193041E+02 -0.52452819271E+02  0.12351156466E+02  0.10278660497E+03  0.78370015670E+02 0.  0.
         -6    2    1    2    0  502  0.37250978251E+01  0.60438174308E+02  0.77378318567E+03  0.79514569783E+03  0.17277040568E+03 0.  0.
        -24    2    5    5    0    0  0.13039491847E+02  0.87865012682E+02  0.73621699319E+03  0.74747706856E+03  0.93894718451E+02 0.  0.
          5    1    3    3  501    0 -0.42704290866E+02 -0.79853550365E+01  0.10936592667E+03  0.11777273992E+03  0.47000000000E+01 0. -1.
        -13    1    4    4    0    0 -0.12170652611E+02 -0.48672619831E+02  0.63076212093E+00  0.50175158864E+02  0.00000000000E+00 0.  1.
         14    1    4    4    0    0  0.51149845652E+02 -0.37801994406E+01  0.11720394345E+02  0.52611446109E+02  0.00000000000E+00 0. -1.
         -5    1    5    5    0  502 -0.93143940218E+01 -0.27426838374E+02  0.37566192483E+02  0.47668629274E+02  0.47000000000E+01 0.  1.
         11    1    6    6    0    0  0.22388980253E+02  0.33169982789E+02  0.85539724067E+02  0.94438120420E+02  0.00000000000E+00 0. -1.
        -12    1    6    6    0    0 -0.93494884058E+01  0.54695029893E+02  0.65067726912E+03  0.65303894814E+03  0.00000000000E+00 0.  1.
</event>
<event>
12    1  0.8494789E-002  0.2962072E+03  0.7818608E-02  0.1088142E+00
         21   -1    0    0  503  502  0.00000000000E+00  0.00000000000E+00  0.96691808532E+03  0.96691808532E+03  0.00000000000E+00 0. -1.
         21   -1    0    0  501  503 -0.00000000000E+00 -0.00000000000E+00 -0.91768550393E+02  0.91768550393E+02  0.00000000000E+00 0. -1.
          6    2    1    2  501    0  0.10897112188E+03  0.21532315806E+03  0.53342174128E+03  0.60645151439E+03  0.15813259449E+03 0.  0.
         24    2    3    3    0    0  0.20163117849E+02  0.40872625422E+02  0.15107359283E+03  0.17687958033E+03  0.79912656410E+02 0.  0.
         -6    2    1    2    0  502 -0.10897112188E+03 -0.21532315806E+03  0.34172779365E+03  0.45223512133E+03  0.17175550124E+03 0.  0.
        -24    2    5    5    0    0  0.74652495027E+01 -0.12455175079E+03  0.23058233704E+03  0.26737766412E+03  0.52476018732E+02 0.  0.
          5    1    3    3  501    0  0.88808004032E+02  0.17445053263E+03  0.38234814844E+03  0.42957193406E+03  0.47000000000E+01 0. -1.
        -13    1    4    4    0    0 -0.10044997814E+02  0.45043134067E+02  0.38045575996E+02  0.59810130919E+02  0.00000000000E+00 0.  1.
         14    1    4    4    0    0  0.30208115664E+02 -0.41705086452E+01  0.11302801684E+03  0.11706944941E+03  0.00000000000E+00 0. -1.
         -5    1    5    5    0  502 -0.11643637138E+03 -0.90771407266E+02  0.11114545662E+03  0.18485745721E+03  0.47000000000E+01 0.  1.
         11    1    6    6    0    0  0.54642814776E+01 -0.87911182221E+02  0.10768897260E+03  0.13912278444E+03  0.00000000000E+00 0. -1.
        -12    1    6    6    0    0  0.20009680251E+01 -0.36640568569E+02  0.12289336444E+03  0.12825487968E+03  0.00000000000E+00 0.  1.
</event>
<event>
12    1  0.8494789E-002  0.2194941E+03  0.7818608E-02  0.1134350E+00
         21   -1    0    0  501  502  0.00000000000E+00  0.00000000000E+00  0.20624934732E+03  0.20624934732E+03  0.00000000000E+00 0.  1.
         21   -1    0    0  502  503 -0.00000000000E+00 -0.00000000000E+00 -0.29223106455E+03  0.29223106455E+03  0.00000000000E+00 0. -1.
         -6    2    1    2    0  503  0.45605968862E+02  0.12759755471E+03 -0.15516202140E+03  0.26879900910E+03  0.17267487960E+03 0.  0.
        -24    2    3    3    0    0  0.44327836951E+01  0.26430172984E+02 -0.58683460411E+01  0.83756414534E+02  0.79135932895E+02 0.  0.
          6    2    1    2  501    0 -0.45605968862E+02 -0.12759755471E+03  0.69180304180E+02  0.22968140276E+03  0.17206566167E+03 0.  0.
         24    2    5    5    0    0 -0.21100051613E+02 -0.15668918518E+03  0.40700385827E+02  0.18193144263E+03  0.80285836119E+02 0.  0.
          5    1    5    5  501    0 -0.24505917249E+02  0.29091630465E+02  0.28479918353E+02  0.47749960133E+02  0.47000000000E+01 0. -1.
        -13    1    6    6    0    0 -0.44169062775E+02 -0.88991401722E+02  0.47438271670E+02  0.11009434729E+03  0.00000000000E+00 0.  1.
         14    1    6    6    0    0  0.23069011162E+02 -0.67697783456E+02 -0.67378858432E+01  0.71837095337E+02  0.00000000000E+00 0. -1.
         -5    1    3    3    0  503  0.41173185167E+02  0.10116738173E+03 -0.14929367536E+03  0.18504259457E+03  0.47000000000E+01 0.  1.
         11    1    4    4    0    0  0.78660754551E+01  0.12363626203E+02 -0.42186066533E+02  0.44658690145E+02  0.00000000000E+00 0. -1.
        -12    1    4    4    0    0 -0.34332917600E+01  0.14066546782E+02  0.36317720492E+02  0.39097724389E+02  0.00000000000E+00 0.  1.
</event>
<event>
12    1  0.8494789E-002  0.2517643E+03  0.7818608E-02  0.1112268E+00
         21   -1    0    0  501  502  0.00000000000E+00  0.00000000000E+00  0.14450887759E+03  0.14450887759E+03  0.00000000000E+00 0. -1.
         21   -1    0    0  502  503 -0.00000000000E+00 -0.00000000000E+00 -0.47047447873E+03  0.47047447873E+03  0.00000000000E+00 0. -1.
         -6    2    1    2    0  503 -0.18199210897E+03  0.17713540059E+02 -0.24413843564E+03  0.35069767577E+03  0.17306180055E+03 0.  0.
        -24    2    3    3    0    0 -0.84096612225E+02  0.30285101407E+01 -0.21942950176E+03  0.24856149316E+03  0.80945028097E+02 0.  0.
          6    2    1    2  501    0  0.18199210897E+03 -0.17713540059E+02 -0.81827165502E+02  0.26428568055E+03  0.17238427626E+03 0.  0.
         24    2    5    5    0    0  0.58591592212E+02  0.71763988223E+01 -0.96547512752E+02  0.13745518258E+03  0.78025826628E+02 0.  0.
          5    1    5    5  501    0  0.12340051676E+03 -0.24889938882E+02  0.14720347251E+02  0.12683049798E+03  0.47000000000E+01 0. -1.
        -11    1    6    6    0    0  0.61417876518E+01 -0.31864988207E+02 -0.31554115088E+02  0.45263243454E+02  0.00000000000E+00 0.  1.
         12    1    6    6    0    0  0.52449804561E+02  0.39041387029E+02 -0.64993397665E+02  0.92191939125E+02  0.00000000000E+00 0. -1.
         -5    1    3    3    0  503 -0.97895496744E+02  0.14685029919E+02 -0.24708933871E+02  0.10213618262E+03  0.47000000000E+01 0.  1.
         11    1    4    4    0    0 -0.59762902053E+02  0.28619490183E+02 -0.75913492562E+02  0.10076476583E+03  0.00000000000E+00 0. -1.
        -12    1    4    4    0    0 -0.24333710172E+02 -0.25590980042E+02 -0.14351600920E+03  0.14779672732E+03  0.00000000000E+00 0.  1.
</event>
<event>
12    1  0.8494789E-002  0.2148293E+03  0.7818608E-02  0.1137802E+00
         21   -1    0    0  503  502  0.00000000000E+00  0.00000000000E+00  0.23648375288E+03  0.23648375288E+03  0.00000000000E+00 0.  1.
         21   -1    0    0  501  503 -0.00000000000E+00 -0.00000000000E+00 -0.19765786946E+03  0.19765786946E+03  0.00000000000E+00 0. -1.
          6    2    1    2  501    0  0.75503675343E+02  0.10271989999E+03 -0.50938514270E+01  0.21488968608E+03  0.17291456566E+03 0.  0.
         24    2    3    3    0    0  0.11500368317E+03  0.82508794905E+02  0.20322371988E+02  0.16353977080E+03  0.79364409219E+02 0.  0.
         -6    2    1    2    0  502 -0.75503675343E+02 -0.10271989999E+03  0.43919734842E+02  0.21925193626E+03  0.17288807246E+03 0.  0.
        -24    2    5    5    0    0 -0.43187613720E+02 -0.21606293601E+02 -0.35320224053E+02  0.10124852077E+03  0.81680737201E+02 0.  0.
          5    1    3    3  501    0 -0.39500007823E+02  0.20211105084E+02 -0.25416223415E+02  0.51349915282E+02  0.47000000000E+01 0. -1.
        -13    1    4    4    0    0  0.43340869369E+02 -0.78804389628E+01 -0.79783194241E+01  0.44768134389E+02  0.00000000000E+00 0.  1.
         14    1    4    4    0    0  0.71662813798E+02  0.90389233867E+02  0.28300691413E+02  0.11877163641E+03  0.00000000000E+00 0. -1.
         -5    1    5    5    0  502 -0.32316061624E+02 -0.81113606387E+02  0.79239958895E+02  0.11800341548E+03  0.47000000000E+01 0.  1.
         11    1    6    6    0    0  0.21260471913E+02 -0.76354670326E+01  0.60688344137E+01  0.23390997711E+02  0.00000000000E+00 0. -1.
        -12    1    6    6    0    0 -0.64448085633E+02 -0.13970826568E+02 -0.41389058467E+02  0.77857523063E+02  0.00000000000E+00 0.  1.
</event>
<event>
12    1  0.8494789E-002  0.2083945E+03  0.7818608E-02  0.1147046E+00
         21   -1    0    0  503  502  0.00000000000E+00  0.00000000000E+00  0.26229963004E+03  0.26229963004E+03  0.00000000000E+00 0.  1.
         21   -1    0    0  501  503 -0.00000000000E+00 -0.00000000000E+00 -0.15270669476E+03  0.15270669476E+03  0.00000000000E+00 0.  1.
          6    2    1    2  501    0 -0.10293094007E+03 -0.79664845725E+01  0.30521716196E+02  0.21061779219E+03  0.18102495940E+03 0.  0.
         24    2    3    3    0    0 -0.13261205959E+03 -0.55733911896E+01 -0.15889610930E+02  0.15527524944E+03  0.78999381737E+02 0.  0.
         -6    2    1    2    0  502  0.10293094007E+03  0.79664845725E+01  0.79071219091E+02  0.20438853261E+03  0.15768376985E+03 0.  0.
        -24    2    5    5    0    0  0.78633740469E+01 -0.10260308400E+01  0.72664176140E+02  0.10856657457E+03  0.80272867328E+02 0.  0.
          5    1    3    3  501    0  0.29681119524E+02 -0.23930933828E+01  0.46411327126E+02  0.55342542747E+02  0.47000000000E+01 0. -1.
        -13    1    4    4    0    0 -0.19391784730E+02 -0.16986849798E+02 -0.31181377125E+02  0.40458282965E+02  0.00000000000E+00 0.  1.
         14    1    4    4    0    0 -0.11322027486E+03  0.11413458608E+02  0.15291766195E+02  0.11481696648E+03  0.00000000000E+00 0. -1.
         -5    1    5    5    0  502  0.95067566023E+02  0.89925154124E+01  0.64070429514E+01  0.95821958039E+02  0.47000000000E+01 0.  1.
         11    1    6    6    0    0  0.82761305784E+01 -0.34676922222E+02  0.64872191643E+02  0.74022864850E+02  0.00000000000E+00 0. -1.
        -12    1    6    6    0    0 -0.41275653157E+00  0.33650891382E+02  0.77919844970E+01  0.34543709719E+02  0.00000000000E+00 0.  1.
</event>
<event>
12    1  0.8494789E-002  0.2539568E+03  0.7818608E-02  0.1110849E+00
         21   -1    0    0  503  502  0.00000000000E+00  0.00000000000E+00  0.36799494883E+03  0.36799494883E+03  0.00000000000E+00 0.  1.
         21   -1    0    0  501  503 -0.00000000000E+00 -0.00000000000E+00 -0.18837268756E+03  0.18837268756E+03  0.00000000000E+00 0.  1.
          6    2    1    2  501    0  0.18652805854E+03 -0.11975909672E+02  0.16140181899E+02  0.25434040694E+03  0.17173350895E+03 0.  0.
         24    2    3    3    0    0  0.18643319912E+03  0.18566475528E+02  0.48725976165E+02  0.20943194137E+03  0.79909108151E+02 0.  0.
         -6    2    1    2    0  502 -0.18652805854E+03  0.11975909672E+02  0.16348207937E+03  0.30202722945E+03  0.17192416357E+03 0.  0.
        -24    2    5    5    0    0 -0.15450337198E+03  0.55702865838E+02  0.72961103029E+02  0.19641584558E+03  0.79257558790E+02 0.  0.
          5    1    3    3  501    0  0.94859416138E-01 -0.30542385200E+02 -0.32585794266E+02  0.44908465571E+02  0.47000000000E+01 0. -1.
        -13    1    4    4    0    0  0.14049788640E+03  0.66654847444E+01 -0.10526765069E+01  0.14065984821E+03  0.00000000000E+00 0.  1.
         14    1    4    4    0    0  0.45935312720E+02  0.11900990784E+02  0.49778652672E+02  0.68772093164E+02  0.00000000000E+00 0. -1.
         -5    1    5    5    0  502 -0.32024686558E+02 -0.43726956166E+02  0.90520976344E+02  0.10561138387E+03  0.47000000000E+01 0.  1.
         11    1    6    6    0    0 -0.85050972680E+01  0.12073776538E+02  0.37019386447E+02  0.39856589572E+02  0.00000000000E+00 0. -1.
        -12    1    6    6    0    0 -0.14599827471E+03  0.43629089299E+02  0.35941716582E+02  0.15655925601E+03  0.00000000000E+00 0.  1.
</event>
<event>
12    1  0.8494789E-002  0.1974273E+03  0.7818608E-02  0.1152745E+00
         21   -1    0    0  503  502  0.00000000000E+00  0.00000000000E+00  0.49320199080E+02  0.49320199080E+02  0.00000000000E+00 0. -1.
         21   -1    0    0  501  503 -0.00000000000E+00 -0.00000000000E+00 -0.10587334426E+04  0.10587334426E+04  0.00000000000E+00 0.  1.
          6    2    1    2  501    0 -0.76895354185E-01 -0.94715509574E+02 -0.78780465846E+03  0.81125758216E+03  0.16891314647E+03 0.  0.
         24    2    3    3    0    0  0.53088547723E+02 -0.98824977146E+02 -0.61550397706E+03  0.63083289740E+03  0.80747932785E+02 0.  0.
         -6    2    1    2    0  502  0.76895354185E-01  0.94715509574E+02 -0.22160858508E+03  0.29679605955E+03  0.17322385030E+03 0.  0.
        -24    2    5    5    0    0 -0.19081143243E+02  0.78194771442E+02 -0.24003050881E+03  0.26515079916E+03  0.78814902294E+02 0.  0.
          5    1    3    3  501    0 -0.53165443077E+02  0.41094675724E+01 -0.17230068140E+03  0.18042468476E+03  0.47000000000E+01 0. -1.
        -13    1    4    4    0    0  0.51793040620E+02 -0.15266918019E+02 -0.27221565311E+03  0.27751929598E+03  0.00000000000E+00 0.  1.
         14    1    4    4    0    0  0.12955071026E+01 -0.83558059127E+02 -0.34328832395E+03  0.35331360142E+03  0.00000000000E+00 0. -1.
         -5    1    5    5    0  502  0.19158038597E+02  0.16520738132E+02  0.18421923729E+02  0.31645260391E+02  0.47000000000E+01 0.  1.
         11    1    6    6    0    0  0.69838141645E+01  0.31631210320E+02 -0.18541312894E+02  0.37324086197E+02  0.00000000000E+00 0. -1.
        -12    1    6    6    0    0 -0.26064957408E+02  0.46563561122E+02 -0.22148919592E+03  0.22782671296E+03  0.00000000000E+00 0.  1.
</event>
<event>
12    1  0.8494789E-002  0.2014731E+03  0.7818608E-02  0.1153970E+00
         21   -1    0    0  501  502  0.00000000000E+00  0.00000000000E+00  0.81311692938E+02  0.81311692938E+02  0.00000000000E+00 0.  1.
         21   -1    0    0  502  503 -0.00000000000E+00 -0.00000000000E+00 -0.44403179072E+03  0.44403179072E+03  0.00000000000E+00 0.  1.
         -6    2    1    2    0  503  0.52774593991E+02  0.51085729121E+01 -0.14637069798E+03  0.22971117394E+03  0.16891295664E+03 0.  0.
        -24    2    3    3    0    0 -0.30591916504E+02  0.17038423546E+02 -0.10543314397E+03  0.13595473557E+03  0.78366887427E+02 0.  0.
          6    2    1    2  501    0 -0.52774593991E+02 -0.51085729121E+01 -0.21634939980E+03  0.29563230971E+03  0.19437115131E+03 0.  0.
         24    2    5    5    0    0 -0.54968930635E+02 -0.79693285259E+02 -0.15606731498E+03  0.19959214010E+03  0.78149936227E+02 0.  0.
          5    1    5    5  501    0  0.21943366438E+01  0.74584712347E+02 -0.60282084823E+02  0.96040169616E+02  0.47000000000E+01 0. -1.
        -11    1    6    6    0    0 -0.71068955202E+02 -0.71287194761E+02 -0.14959902288E+03  0.18031230734E+03  0.00000000000E+00 0.  1.
         12    1    6    6    0    0  0.16100024567E+02 -0.84060904981E+01 -0.64682921010E+01  0.19279832759E+02  0.00000000000E+00 0. -1.
         -5    1    3    3    0  503  0.83366510496E+02 -0.11929850634E+02 -0.40937554010E+02  0.93756438375E+02  0.47000000000E+01 0.  1.
         11    1    4    4    0    0  0.15132416155E+02  0.46180627916E+01 -0.81217253173E+02  0.82743934736E+02  0.00000000000E+00 0. -1.
        -12    1    4    4    0    0 -0.45724332660E+02  0.12420360754E+02 -0.24215890792E+02  0.53210800833E+02  0.00000000000E+00 0.  1.
</event>
<event>
12    1  0.8494789E-002  0.1774165E+03  0.7818608E-02  0.1171160E+00
         21   -1    0    0  503  502  0.00000000000E+00  0.00000000000E+00  0.47653965805E+03  0.47653965805E+03  0.00000000000E+00 0. -1.
         21   -1    0    0  501  503 -0.00000000000E+00 -0.00000000000E+00 -0.66968587541E+02  0.66968587541E+02  0.00000000000E+00 0. -1.
          6    2    1    2  501    0  0.40495297419E+02 -0.28475164681E+01  0.15791864192E+03  0.23751821167E+03  0.17270965794E+03 0.  0.
         24    2    3    3    0    0  0.58194815460E+02 -0.10409603969E+02  0.23192678676E+02  0.10134320193E+03  0.78978147810E+02 0.  0.
         -6    2    1    2    0  502 -0.40495297419E+02  0.28475164681E+01  0.25165242859E+03  0.30599003392E+03  0.16927190724E+03 0.  0.
        -24    2    5    5    0    0 -0.69042005596E+02 -0.46850015218E+02  0.17953518891E+03  0.21375259325E+03  0.80595065602E+02 0.  0.
          5    1    3    3  501    0 -0.17699518040E+02  0.75620875011E+01  0.13472596324E+03  0.13617500974E+03  0.47000000000E+01 0. -1.
        -11    1    4    4    0    0  0.30496977987E+02  0.29792166353E+02 -0.80434630221E+01  0.43385897936E+02  0.00000000000E+00 0.  1.
         12    1    4    4    0    0  0.27697837473E+02 -0.40201770322E+02  0.31236141698E+02  0.57957303991E+02  0.00000000000E+00 0. -1.
         -5    1    5    5    0  502  0.28546708176E+02  0.49697531686E+02  0.72117239675E+02  0.92237440672E+02  0.47000000000E+01 0.  1.
         13    1    6    6    0    0 -0.32604040719E+02 -0.20839562347E+02  0.12261192051E+02  0.40591226399E+02  0.00000000000E+00 0. -1.
        -14    1    6    6    0    0 -0.36437964877E+02 -0.26010452871E+02  0.16727399686E+03  0.17316136685E+03  0.00000000000E+00 0.  1.
</event>
<event>
12    1  0.8494789E-002  0.1788444E+03  0.7818608E-02  0.1169424E+00
         21   -1    0    0  503  502  0.00000000000E+00  0.00000000000E+00  0.53788929186E+03  0.53788929186E+03  0.00000000000E+00 0.  1.
         21   -1    0    0  501  503 -0.00000000000E+00 -0.00000000000E+00 -0.61062806361E+02  0.61062806361E+02  0.00000000000E+00 0.  1.
          6    2    1    2  501    0  0.35747555936E+02  0.35698333564E+02  0.18197976611E+03  0.25515083609E+03  0.17156064557E+03 0.  0.
         24    2    3    3    0    0 -0.35943189261E+02  0.46474975617E+02  0.68861754079E+02  0.12071321632E+03  0.79861775636E+02 0.  0.
         -6    2    1    2    0  502 -0.35747555936E+02 -0.35698333564E+02  0.29484671939E+03  0.34380126214E+03  0.16944751736E+03 0.  0.
        -24    2    5    5    0    0 -0.72726103749E+02  0.60164069251E+00  0.26007448095E+03  0.28122091622E+03  0.78466680446E+02 0.  0.
          5    1    3    3  501    0  0.71690745198E+02 -0.10776642053E+02  0.11311801203E+03  0.13443761976E+03  0.47000000000E+01 0. -1.
        -11    1    4    4    0    0 -0.42689256200E+02 -0.62764950875E+01  0.16836686520E+02  0.46316746415E+02  0.00000000000E+00 0.  1.
         12    1    4    4    0    0  0.67460669381E+01  0.52751470704E+02  0.52025067558E+02  0.74396469910E+02  0.00000000000E+00 0. -1.
         -5    1    5    5    0  502  0.36978547813E+02 -0.36299974256E+02  0.34772238445E+02  0.62580345923E+02  0.47000000000E+01 0.  1.
         13    1    6    6    0    0  0.12232280727E+02  0.16469138802E+02  0.53199978543E+02  0.57018408796E+02  0.00000000000E+00 0. -1.
        -14    1    6    6    0    0 -0.84958384476E+02 -0.15867498109E+02  0.20687450240E+03  0.22420250742E+03  0.00000000000E+00 0.  1.
</event>
<event>
12    1  0.8494789E-002  0.2077057E+03  0.7818608E-02  0.1143484E+00
         21   -1    0    0  503  502  0.00000000000E+00  0.00000000000E+00  0.17286190434E+04  0.17286190434E+04  0.00000000000E+00 0. -1.
         21   -1    0    0  501  503 -0.00000000000E+00 -0.00000000000E+00 -0.47965678912E+02  0.47965678912E+02  0.00000000000E+00 0. -1.
          6    2    1    2  501    0 -0.75783398973E+02  0.91196892036E+02  0.22393383670E+03  0.30513188536E+03  0.16999737519E+03 0.  0.
         24    2    3    3    0    0  0.18856493107E+02  0.25503046655E+02  0.66132404780E+02  0.10969449792E+03  0.81568469347E+02 0.  0.
         -6    2    1    2    0  502  0.75783398973E+02 -0.91196892036E+02  0.14567195278E+04  0.14714528369E+04  0.17053349243E+03 0.  0.
        -24    2    5    5    0    0 -0.17658131477E+02 -0.92746163739E+02  0.69317027195E+03  0.70219132358E+03  0.60613270003E+02 0.  0.
          5    1    3    3  501    0 -0.94639892080E+02  0.65693845381E+02  0.15780143192E+03  0.19543738744E+03  0.47000000000E+01 0. -1.
        -13    1    4    4    0    0 -0.23718478011E+02 -0.12857371336E+01 -0.32729129040E+01  0.23977724621E+02  0.00000000000E+00 0.  1.
         14    1    4    4    0    0  0.42574971118E+02  0.26788783788E+02  0.69405317684E+02  0.85716773302E+02  0.00000000000E+00 0. -1.
         -5    1    5    5    0  502  0.93441530450E+02  0.15492717027E+01  0.76354925581E+03  0.76926151334E+03  0.47000000000E+01 0.  1.
         13    1    6    6    0    0  0.11041800589E+01 -0.99311240346E+01  0.11424719547E+02  0.15177966100E+02  0.00000000000E+00 0. -1.
        -14    1    6    6    0    0 -0.18762311536E+02 -0.82815039704E+02  0.68174555240E+03  0.68701335748E+03  0.00000000000E+00 0.  1.
</event>
<event>
12    1  0.8494789E-002  0.1872640E+03  0.7818608E-02  0.1161259E+00
         21   -1    0    0  501  502  0.00000000000E+00  0.00000000000E+00  0.43781972762E+03  0.43781972762E+03  0.00000000000E+00 0.  1.
         21   -1    0    0  502  503 -0.00000000000E+00 -0.00000000000E+00 -0.80967583953E+02  0.80967583953E+02  0.00000000000E+00 0.  1.
         -6    2    1    2    0  503  0.43419562110E+02  0.57378530872E+02  0.21237835259E+03  0.28226991775E+03  0.17144733196E+03 0.  0.
        -24    2    3    3    0    0  0.77541606525E+02  0.86043647566E+02  0.16431391920E+03  0.21655627694E+03  0.80506813456E+02 0.  0.
          6    2    1    2  501    0 -0.43419562110E+02 -0.57378530872E+02  0.14447379107E+03  0.23651739382E+03  0.17288796111E+03 0.  0.
         24    2    5    5    0    0 -0.36670953776E+02  0.38455277907E+00  0.16135470999E+03  0.17577883135E+03  0.59312295392E+02 0.  0.
          5    1    5    5  501    0 -0.67486083342E+01 -0.57763083651E+02 -0.16880918917E+02  0.60738562469E+02  0.47000000000E+01 0. -1.
        -11    1    6    6    0    0 -0.52923656456E+01  0.26800927179E+02  0.47976272620E+02  0.55208890283E+02  0.00000000000E+00 0.  1.
         12    1    6    6    0    0 -0.31378588130E+02 -0.26416374400E+02  0.11337843737E+03  0.12056994107E+03  0.00000000000E+00 0. -1.
         -5    1    3    3    0  503 -0.34122044415E+02 -0.28665116694E+02  0.48064433396E+02  0.65713640804E+02  0.47000000000E+01 0.  1.
         13    1    4    4    0    0  0.57876826185E+02  0.86648752751E+02  0.83925736957E+02  0.13379560040E+03  0.00000000000E+00 0. -1.
        -14    1    4    4    0    0  0.19664780340E+02 -0.60510518510E+00  0.80388182241E+02  0.82760676544E+02  0.00000000000E+00 0.  1.
</event>
<event>
12    1  0.8494789E-002  0.2304418E+03  0.7818608E-02  0.1126366E+00
         21   -1    0    0  501  502  0.00000000000E+00  0.00000000000E+00  0.17406385405E+03  0.17406385405E+03  0.00000000000E+00 0. -1.
         21   -1    0    0  502  503 -0.00000000000E+00 -0.00000000000E+00 -0.31367405155E+03  0.31367405155E+03  0.00000000000E+00 0. -1.
         -6    2    1    2    0  503 -0.14242878082E+03  0.54496536022E+02 -0.11079252431E+03  0.25550118572E+03  0.17248200607E+03 0.  0.
        -24    2    3    3    0    0 -0.30162823250E+02  0.12578713445E+02  0.76384911910E+01  0.86952247688E+02  0.80214256164E+02 0.  0.
          6    2    1    2  501    0  0.14242878082E+03 -0.54496536022E+02 -0.28817673186E+02  0.23223671989E+03  0.17276459629E+03 0.  0.
         24    2    5    5    0    0  0.78354979759E+02  0.36180893015E+02 -0.28574674141E+01  0.11811454674E+03  0.80587351116E+02 0.  0.
          5    1    5    5  501    0  0.64073801062E+02 -0.90677429038E+02 -0.25960205772E+02  0.11412217314E+03  0.47000000000E+01 0. -1.
        -11    1    6    6    0    0 -0.15844357304E+02  0.74052148380E+01  0.75903187379E+01  0.19065513466E+02  0.00000000000E+00 0.  1.
         12    1    6    6    0    0  0.94199337063E+02  0.28775678177E+02 -0.10447786152E+02  0.99049033277E+02  0.00000000000E+00 0. -1.
         -5    1    3    3    0  503 -0.11226595757E+03  0.41917822578E+02 -0.11843101551E+03  0.16854893803E+03  0.47000000000E+01 0.  1.
         11    1    4    4    0    0 -0.36568744125E+02  0.36753671179E+02 -0.14193193013E+02  0.53754554411E+02  0.00000000000E+00 0. -1.
        -12    1    4    4    0    0  0.64059208751E+01 -0.24174957734E+02  0.21831684204E+02  0.33197693277E+02  0.00000000000E+00 0.  1.
</event>
<event>
12    1  0.8494789E-002  0.1992603E+03  0.7818608E-02  0.1150418E+00
         21   -1    0    0  501  502  0.00000000000E+00  0.00000000000E+00  0.18845531205E+03  0.18845531205E+03  0.00000000000E+00 0. -1.
         21   -1    0    0  502  503 -0.00000000000E+00 -0.00000000000E+00 -0.30553215258E+03  0.30553215258E+03  0.00000000000E+00 0. -1.
         -6    2    1    2    0  503 -0.88468156820E+02 -0.51228309188E+02 -0.19632095718E+03  0.27954792826E+03  0.17074592683E+03 0.  0.
        -24    2    3    3    0    0 -0.85348083748E+02 -0.24283999590E+02 -0.49480267254E+02  0.13014910331E+03  0.81341774074E+02 0.  0.
          6    2    1    2  501    0  0.88468156820E+02  0.51228309188E+02  0.79244116651E+02  0.21443953638E+03  0.17103721906E+03 0.  0.
         24    2    5    5    0    0  0.10026115185E+02 -0.15024877821E+02  0.51147387915E+02  0.10788365972E+03  0.93255341966E+02 0.  0.
          5    1    5    5  501    0  0.78442041635E+02  0.66253187008E+02  0.28096728736E+02  0.10655587666E+03  0.47000000000E+01 0. -1.
        -11    1    6    6    0    0  0.49773695262E+02 -0.21365192349E+02  0.35149995403E+02  0.64571002478E+02  0.00000000000E+00 0.  1.
         12    1    6    6    0    0 -0.39747580077E+02  0.63403145282E+01  0.15997392512E+02  0.43312657243E+02  0.00000000000E+00 0. -1.
         -5    1    3    3    0  503 -0.31200730718E+01 -0.26944309597E+02 -0.14684068993E+03  0.14939882494E+03  0.47000000000E+01 0.  1.
         11    1    4    4    0    0 -0.76574576322E+02 -0.42129803966E+02 -0.61540774417E+02  0.10689178190E+03  0.00000000000E+00 0. -1.
        -12    1    4    4    0    0 -0.87735074264E+01  0.17845804375E+02  0.12060507163E+02  0.23257321415E+02  0.00000000000E+00 0.  1.
</event>
<event>
12    1  0.8494789E-002  0.1812633E+03  0.7818608E-02  0.1166635E+00
         21   -1    0    0  503  502  0.00000000000E+00  0.00000000000E+00  0.11128358328E+03  0.11128358328E+03  0.00000000000E+00 0. -1.
         21   -1    0    0  501  503 -0.00000000000E+00 -0.00000000000E+00 -0.29705318540E+03  0.29705318540E+03  0.00000000000E+00 0.  1.
          6    2    1    2  501    0  0.13195682167E+02 -0.55124142195E+02 -0.75614573528E+02  0.19640254114E+03  0.17217316096E+03 0.  0.
         24    2    3    3    0    0 -0.54310269974E+02 -0.66378155791E+01 -0.48710704367E+02  0.10891605293E+03  0.80599676465E+02 0.  0.
         -6    2    1    2    0  502 -0.13195682167E+02  0.55124142195E+02 -0.11015502859E+03  0.21193422755E+03  0.17195694055E+03 0.  0.
        -24    2    5    5    0    0 -0.53893687117E+02  0.29219369289E+02 -0.12103127739E+02  0.10255575559E+03  0.81319716254E+02 0.  0.
          5    1    3    3  501    0  0.67505952140E+02 -0.48486326616E+02 -0.26903869161E+02  0.87486488208E+02  0.47000000000E+01 0. -1.
        -11    1    4    4    0    0 -0.33405094579E+02 -0.97615588603E+01 -0.70460821964E+02  0.78586995152E+02  0.00000000000E+00 0.  1.
         12    1    4    4    0    0 -0.20905175394E+02  0.31237432812E+01  0.21750117597E+02  0.30329057780E+02  0.00000000000E+00 0. -1.
         -5    1    5    5    0  502  0.40698004951E+02  0.25904772906E+02 -0.98051900853E+02  0.10937847195E+03  0.47000000000E+01 0.  1.
         13    1    6    6    0    0 -0.74265497965E+01 -0.13488194389E+02  0.24988219939E+02  0.29351254922E+02  0.00000000000E+00 0. -1.
        -14    1    6    6    0    0 -0.46467137321E+02  0.42707563678E+02 -0.37091347678E+02  0.73204500672E+02  0.00000000000E+00 0.  1.
</event>
<event>
12    1  0.8494789E-002  0.2764866E+03  0.7818608E-02  0.1097945E+00
         21   -1    0    0  501  502  0.00000000000E+00  0.00000000000E+00  0.16188268261E+03  0.16188268261E+03  0.00000000000E+00 0.  1.
         21   -1    0    0  502  503 -0.00000000000E+00 -0.00000000000E+00 -0.74626660351E+03  0.74626660351E+03  0.00000000000E+00 0. -1.
         -6    2    1    2    0  503  0.21117408018E+03 -0.43058818690E+01 -0.57008812719E+03  0.63359714314E+03  0.17841478153E+03 0.  0.
        -24    2    3    3    0    0  0.20665983313E+03  0.33128092273E+02 -0.54252531136E+03  0.58665590686E+03  0.77625269496E+02 0.  0.
          6    2    1    2  501    0 -0.21117408018E+03  0.43058818690E+01 -0.14295793703E+02  0.27455214298E+03  0.17481841075E+03 0.  0.
         24    2    5    5    0    0 -0.21344224397E+03 -0.29946068408E+02  0.13927021920E+02  0.22986480712E+03  0.78673433162E+02 0.  0.
          5    1    5    5  501    0  0.22681637937E+01  0.34251950277E+02 -0.28222815623E+02  0.44687335862E+02  0.47000000000E+01 0. -1.
        -13    1    6    6    0    0 -0.17601424271E+03 -0.18694220901E+02 -0.19973976382E+02  0.17812761511E+03  0.00000000000E+00 0.  1.
         14    1    6    6    0    0 -0.37428001265E+02 -0.11251847507E+02  0.33900998303E+02  0.51737192008E+02  0.00000000000E+00 0. -1.
         -5    1    3    3    0  503  0.45142470493E+01 -0.37433974142E+02 -0.27562815833E+02  0.46941236276E+02  0.47000000000E+01 0.  1.
         11    1    4    4    0    0  0.13564126389E+03  0.80917806364E+01 -0.43238890663E+03  0.45323746090E+03  0.00000000000E+00 0. -1.
        -12    1    4    4    0    0  0.71018569238E+02  0.25036311637E+02 -0.11013640473E+03  0.13341844596E+03  0.00000000000E+00 0.  1.
</event>
<event>
12    1  0.8494789E-002  0.1732444E+03  0.7818608E-02  0.1174678E+00
         21   -1    0    0  501  502  0.00000000000E+00  0.00000000000E+00  0.11626888732E+04  0.11626888732E+04  0.00000000000E+00 0.  1.
         21   -1    0    0  502  503 -0.00000000000E+00 -0.00000000000E+00 -0.25721236249E+02  0.25721236249E+02  0.00000000000E+00 0.  1.
         -6    2    1    2    0  503 -0.51097579853E+01 -0.23445960481E+02  0.55723186985E+03  0.58334219121E+03  0.17089450716E+03 0.  0.
        -24    2    3    3    0    0  0.27001412233E+02  0.35866104149E+02  0.20669186139E+03  0.22634158085E+03  0.80582454470E+02 0.  0.
          6    2    1    2  501    0  0.51097579853E+01  0.23445960481E+02  0.57973576713E+03  0.60506791827E+03  0.17157448336E+03 0.  0.
         24    2    5    5    0    0  0.62867208821E+01  0.70113895297E+02  0.51271907349E+03  0.52325955312E+03  0.77228430253E+02 0.  0.
          5    1    5    5  501    0 -0.11769628968E+01 -0.46667934816E+02  0.67016693642E+02  0.81808365149E+02  0.47000000000E+01 0. -1.
        -11    1    6    6    0    0 -0.21599585223E+02  0.72693721663E+02  0.34691171417E+03  0.35510372665E+03  0.00000000000E+00 0.  1.
         12    1    6    6    0    0  0.27886306105E+02 -0.25798263663E+01  0.16580735932E+03  0.16815582647E+03  0.00000000000E+00 0. -1.
         -5    1    3    3    0  503 -0.32111170219E+02 -0.59312064630E+02  0.35054000846E+03  0.35700061036E+03  0.47000000000E+01 0.  1.
         13    1    4    4    0    0  0.53382785022E+02  0.29730568123E+02  0.17063011863E+03  0.18124090543E+03  0.00000000000E+00 0. -1.
        -14    1    4    4    0    0 -0.26381372789E+02  0.61355360256E+01  0.36061742756E+02  0.45100675418E+02  0.00000000000E+00 0.  1.
</event>
<event>
12    1  0.8494789E-002  0.1852144E+03  0.7818608E-02  0.1163284E+00
         21   -1    0    0  501  502  0.00000000000E+00  0.00000000000E+00  0.62956935612E+03  0.62956935612E+03  0.00000000000E+00 0.  1.
         21   -1    0    0  502  503 -0.00000000000E+00 -0.00000000000E+00 -0.16429325477E+03  0.16429325477E+03  0.00000000000E+00 0.  1.
         -6    2    1    2    0  503 -0.55138825114E+02 -0.39678638310E+02 -0.92279575343E+02  0.20692966648E+03  0.17230694261E+03 0.  0.
        -24    2    3    3    0    0 -0.80093026375E+02 -0.69423491002E+02 -0.34147272937E+02  0.13686595972E+03  0.79572235765E+02 0.  0.
          6    2    1    2  501    0  0.55138825114E+02  0.39678638310E+02  0.55755567670E+03  0.58693294441E+03  0.17031519089E+03 0.  0.
         24    2    5    5    0    0 -0.31226072663E+02  0.42589222655E+02  0.30285687656E+03  0.31793306363E+03  0.81056990878E+02 0.  0.
          5    1    5    5  501    0  0.86364897777E+02 -0.29105843453E+01  0.25469880014E+03  0.26899988078E+03  0.47000000000E+01 0. -1.
        -13    1    6    6    0    0  0.27750913887E+01  0.51129312893E+02  0.24491980391E+03  0.25021514366E+03  0.00000000000E+00 0.  1.
         14    1    6    6    0    0 -0.34001164052E+02 -0.85400902373E+01  0.57937072648E+02  0.67717919970E+02  0.00000000000E+00 0. -1.
         -5    1    3    3    0  503  0.24954201261E+02  0.29744852692E+02 -0.58132302406E+02  0.70063706762E+02  0.47000000000E+01 0.  1.
         13    1    4    4    0    0 -0.75588267240E+02 -0.79948713277E+02 -0.10414764229E+02  0.11051628936E+03  0.00000000000E+00 0. -1.
        -14    1    4    4    0    0 -0.45047591346E+01  0.10525222275E+02 -0.23732508708E+02  0.26349670365E+02  0.00000000000E+00 0.  1.
</event>
<event>
12    1  0.8494789E-002  0.2051932E+03  0.7818608E-02  0.1145604E+00
         21   -1    0    0  501  502  0.00000000000E+00  0.00000000000E+00  0.45320227185E+03  0.45320227185E+03  0.00000000000E+00 0.  1.
         21   -1    0    0  502  503 -0.00000000000E+00 -0.00000000000E+00 -0.93255183616E+02  0.93255183616E+02  0.00000000000E+00 0.  1.
         -6    2    1    2    0  503 -0.96294031267E+02  0.59339439990E+02  0.20389616378E+03  0.28866655105E+03  0.17017938329E+03 0.  0.
        -24    2    3    3    0    0 -0.18195338314E+02  0.38788677198E+02  0.18479551892E+03  0.20554817567E+03  0.79151986020E+02 0.  0.
          6    2    1    2  501    0  0.96294031267E+02 -0.59339439990E+02  0.15605092446E+03  0.25779090442E+03  0.17120324115E+03 0.  0.
         24    2    5    5    0    0  0.91759759124E+02 -0.56174287461E+02  0.18447223353E+03  0.22845767029E+03  0.81163404347E+02 0.  0.
          5    1    5    5  501    0  0.45342721436E+01 -0.31651525298E+01 -0.28421309076E+02  0.29333234121E+02  0.47000000000E+01 0. -1.
        -13    1    6    6    0    0  0.19527658164E+02 -0.50134331488E+01  0.11273305786E+03  0.11452164109E+03  0.00000000000E+00 0.  1.
         14    1    6    6    0    0  0.72232100960E+02 -0.51160854312E+02  0.71739175678E+02  0.11393602920E+03  0.00000000000E+00 0. -1.
         -5    1    3    3    0  503 -0.78098692953E+02  0.20550762793E+02  0.19100644851E+02  0.83118375381E+02  0.47000000000E+01 0.  1.
         11    1    4    4    0    0  0.14680991919E+02  0.71436803477E+01  0.12044223465E+01  0.16371143082E+02  0.00000000000E+00 0. -1.
        -12    1    4    4    0    0 -0.32876330233E+02  0.31644996850E+02  0.18359109658E+03  0.18917703259E+03  0.00000000000E+00 0.  1.
</event>
<event>
12    1  0.8494789E-002  0.2416576E+03  0.7818608E-02  0.1118760E+00
         21   -1    0    0  501  502  0.00000000000E+00  0.00000000000E+00  0.65324869730E+02  0.65324869730E+02  0.00000000000E+00 0.  1.
         21   -1    0    0  502  503 -0.00000000000E+00 -0.00000000000E+00 -0.90984117408E+03  0.90984117408E+03  0.00000000000E+00 0.  1.
         -6    2    1    2    0  503 -0.77419184424E+02 -0.15120113180E+03 -0.48925224219E+03  0.54550227358E+03  0.17131684572E+03 0.  0.
        -24    2    3    3    0    0 -0.35200165783E+02 -0.77584669724E+02 -0.12491657180E+03  0.17138411078E+03  0.80684142620E+02 0.  0.
          6    2    1    2  501    0  0.77419184424E+02  0.15120113180E+03 -0.35526406217E+03  0.42966377023E+03  0.17188045033E+03 0.  0.
         24    2    5    5    0    0 -0.15101936349E+02  0.97093490602E+02 -0.13628765270E+03  0.18581842472E+03  0.79365913886E+02 0.  0.
          5    1    5    5  501    0  0.92521120774E+02  0.54107641198E+02 -0.21897640947E+03  0.24384534551E+03  0.47000000000E+01 0. -1.
        -11    1    6    6    0    0  0.10803715183E+01  0.62465199923E+02 -0.23530460565E+02  0.66758901867E+02  0.00000000000E+00 0.  1.
         12    1    6    6    0    0 -0.16182307868E+02  0.34628290679E+02 -0.11275719213E+03  0.11905952285E+03  0.00000000000E+00 0. -1.
         -5    1    3    3    0  503 -0.42219018641E+02 -0.73616462076E+02 -0.36433567039E+03  0.37411816280E+03  0.47000000000E+01 0.  1.
         13    1    4    4    0    0  0.10897094402E+02 -0.21640691673E+02  0.29408002152E+01  0.24407263435E+02  0.00000000000E+00 0. -1.
        -14    1    4    4    0    0 -0.46097260185E+02 -0.55943978051E+02 -0.12785737202E+03  0.14697684735E+03  0.00000000000E+00 0.  1.
</event>
<event>
12    1  0.8494789E-002  0.2038866E+03  0.7818608E-02  0.1146656E+00
         21   -1    0    0  501  502  0.00000000000E+00  0.00000000000E+00  0.21228542622E+02  0.21228542622E+02  0.00000000000E+00 0.  1.
         21   -1    0    0  502  503 -0.00000000000E+00 -0.00000000000E+00 -0.23941037150E+04  0.23941037150E+04  0.00000000000E+00 0.  1.
         -6    2    1    2    0  503 -0.32211222195E+02 -0.10356242618E+03 -0.17077926122E+04  0.17199201589E+04  0.17264706193E+03 0.  0.
        -24    2    3    3    0    0 -0.77755692912E+02 -0.76576385435E+02 -0.88696519851E+03  0.89737394247E+03  0.81626213164E+02 0.  0.
          6    2    1    2  501    0  0.32211222195E+02  0.10356242618E+03 -0.66508256026E+03  0.69541209873E+03  0.17175691005E+03 0.  0.
         24    2    5    5    0    0 -0.23966960531E+02  0.35064741126E+02 -0.18336761887E+03  0.20559652545E+03  0.82718174300E+02 0.  0.
          5    1    5    5  501    0  0.56178182726E+02  0.68497685058E+02 -0.48171494139E+03  0.48981557328E+03  0.47000000000E+01 0. -1.
        -13    1    6    6    0    0 -0.17389714713E+02  0.52846222678E+02 -0.17709319724E+03  0.18562630723E+03  0.00000000000E+00 0.  1.
         14    1    6    6    0    0 -0.65772458182E+01 -0.17781481552E+02 -0.62744216299E+01  0.19970218214E+02  0.00000000000E+00 0. -1.
         -5    1    3    3    0  503  0.45544470717E+02 -0.26986040748E+02 -0.82082741365E+03  0.82254621646E+03  0.47000000000E+01 0.  1.
         13    1    4    4    0    0  0.77601378296E+01  0.10751492955E+02 -0.61868255294E+02  0.63273180361E+02  0.00000000000E+00 0. -1.
        -14    1    4    4    0    0 -0.85515830742E+02 -0.87327878390E+02 -0.82509694322E+03  0.83410076211E+03  0.00000000000E+00 0.  1.
</event>
<event>
12    1  0.8494789E-002  0.2512529E+03  0.7818608E-02  0.1112605E+00
         21   -1    0    0  501  502  0.00000000000E+00  0.00000000000E+00  0.92188612726E+03  0.92188612726E+03  0.00000000000E+00 0. -1.
         21   -1    0    0  502  503 -0.00000000000E+00 -0.00000000000E+00 -0.10471278590E+03  0.10471278590E+03  0.00000000000E+00 0. -1.
         -6    2    1    2    0  503  0.16188970187E+03 -0.85499995801E+02  0.10628937718E+03  0.27281025861E+03  0.17207405570E+03 0.  0.
        -24    2    3    3    0    0  0.66724604774E+02 -0.83261033063E+02  0.11595225049E+03  0.17701427863E+03  0.80650839634E+02 0.  0.
          6    2    1    2  501    0 -0.16188970187E+03  0.85499995801E+02  0.71088396418E+03  0.75378865455E+03  0.17123901526E+03 0.  0.
         24    2    5    5    0    0 -0.11028481629E+03  0.12483204992E+03  0.54427250587E+03  0.57492685668E+03  0.81009558053E+02 0.  0.
          5    1    5    5  501    0 -0.51604885587E+02 -0.39332054115E+02  0.16661145831E+03  0.17886179787E+03  0.47000000000E+01 0. -1.
        -13    1    6    6    0    0 -0.99061465351E+02  0.11044773309E+03  0.35470554211E+03  0.38448393629E+03  0.00000000000E+00 0.  1.
         14    1    6    6    0    0 -0.11223350936E+02  0.14384316824E+02  0.18956696377E+03  0.19044292039E+03  0.00000000000E+00 0. -1.
         -5    1    3    3    0  503  0.95165097100E+02 -0.22389627381E+01 -0.96628733102E+01  0.95795979982E+02  0.47000000000E+01 0.  1.
         11    1    4    4    0    0  0.70387756046E+02 -0.92215106936E+02  0.82925633687E+02  0.14259986981E+03  0.00000000000E+00 0. -1.
        -12    1    4    4    0    0 -0.36631512722E+01  0.89540738725E+01  0.33026616807E+02  0.34414408812E+02  0.00000000000E+00 0.  1.
</event>
<event>
12    1  0.8494789E-002  0.1939546E+03  0.7818608E-02  0.1155115E+00
         21   -1    0    0  501  502  0.00000000000E+00  0.00000000000E+00  0.23958399733E+03  0.23958399733E+03  0.00000000000E+00 0.  1.
         21   -1    0    0  502  503 -0.00000000000E+00 -0.00000000000E+00 -0.20212936613E+03  0.20212936613E+03  0.00000000000E+00 0. -1.
         -6    2    1    2    0  503  0.62901904222E+02  0.63447001118E+02 -0.86375757261E+02  0.21159960753E+03  0.17126427227E+03 0.  0.
        -24    2    3    3    0    0  0.91248807834E+02  0.92207909914E+02 -0.67975609280E+02  0.16697458915E+03  0.80194678031E+02 0.  0.
          6    2    1    2  501    0 -0.62901904222E+02 -0.63447001118E+02  0.12383038846E+03  0.23011375593E+03  0.17215168909E+03 0.  0.
         24    2    5    5    0    0 -0.50939660943E+02 -0.11007911098E+03  0.85180958635E+02  0.16819835106E+03  0.79514966214E+02 0.  0.
          5    1    5    5  501    0 -0.11962243279E+02  0.46632109867E+02  0.38649429830E+02  0.61915404877E+02  0.47000000000E+01 0. -1.
        -13    1    6    6    0    0 -0.39923991493E+02 -0.20364835942E+02  0.12250871607E+01  0.44834724023E+02  0.00000000000E+00 0.  1.
         14    1    6    6    0    0 -0.11015669450E+02 -0.89714275043E+02  0.83955871474E+02  0.12336362703E+03  0.00000000000E+00 0. -1.
         -5    1    3    3    0  503 -0.28346903612E+02 -0.28760908796E+02 -0.18400147982E+02  0.44625018374E+02  0.47000000000E+01 0.  1.
         13    1    4    4    0    0  0.83536054140E+02  0.46481413129E+02 -0.73067993212E+02  0.12032342141E+03  0.00000000000E+00 0. -1.
        -14    1    4    4    0    0  0.77127536942E+01  0.45726496785E+02  0.50923839326E+01  0.46651167744E+02  0.00000000000E+00 0.  1.
</event>
<event>
12    1  0.8494789E-002  0.1881188E+03  0.7818608E-02  0.1161003E+00
         21   -1    0    0  503  502  0.00000000000E+00  0.00000000000E+00  0.30662804146E+03  0.30662804146E+03  0.00000000000E+00 0. -1.
         21   -1    0    0  501  503 -0.00000000000E+00 -0.00000000000E+00 -0.12959706117E+03  0.12959706117E+03  0.00000000000E+00 0. -1.
          6    2    1    2  501    0 -0.73686144034E+02  0.79982395617E+01  0.10199418120E+02  0.18478637106E+03  0.16896258504E+03 0.  0.
         24    2    3    3    0    0 -0.79268101096E+02  0.45849244798E+02 -0.36236166945E+02  0.12443564280E+03  0.76063028492E+02 0.  0.
         -6    2    1    2    0  502  0.73686144034E+02 -0.79982395617E+01  0.16683156217E+03  0.25143873157E+03  0.17290183903E+03 0.  0.
        -24    2    5    5    0    0  0.50603266825E+01 -0.20956322975E+02  0.14057904801E+02  0.83393216552E+02  0.79322314015E+02 0.  0.
          5    1    3    3  501    0  0.55819570623E+01 -0.37851005237E+02  0.46435585065E+02  0.60350728267E+02  0.47000000000E+01 0. -1.
        -13    1    4    4    0    0  0.22326461077E+01  0.13486883692E+02 -0.34078519931E+02  0.36718200679E+02  0.00000000000E+00 0.  1.
         14    1    4    4    0    0 -0.81500747204E+02  0.32362361106E+02 -0.21576470138E+01  0.87717442118E+02  0.00000000000E+00 0. -1.
         -5    1    5    5    0  502  0.68625817351E+02  0.12958083414E+02  0.15277365737E+03  0.16804551502E+03  0.47000000000E+01 0.  1.
         13    1    6    6    0    0 -0.55688326784E-01 -0.12213882169E+02  0.47191178088E+02  0.48746172241E+02  0.00000000000E+00 0. -1.
        -14    1    6    6    0    0  0.51160150093E+01 -0.87424408064E+01 -0.33133273287E+02  0.34647044311E+02  0.00000000000E+00 0.  1.
</event>
<event>
12    1  0.8494789E-002  0.1947850E+03  0.7818608E-02  0.1154701E+00
         21   -1    0    0  503  502  0.00000000000E+00  0.00000000000E+00  0.46851127547E+03  0.46851127547E+03  0.00000000000E+00 0.  1.
         21   -1    0    0  501  503 -0.00000000000E+00 -0.00000000000E+00 -0.80183807202E+02  0.80183807202E+02  0.00000000000E+00 0. -1.
          6    2    1    2  501    0 -0.17593204291E+02  0.89824378907E+02  0.18474550712E+03  0.26846248031E+03  0.17193970179E+03 0.  0.
         24    2    3    3    0    0  0.86518537444E+01  0.84817861777E+02  0.20484185031E+03  0.23470124078E+03  0.76521660554E+02 0.  0.
         -6    2    1    2    0  502  0.17593204291E+02 -0.89824378907E+02  0.20358196115E+03  0.28023260236E+03  0.16943068387E+03 0.  0.
        -24    2    5    5    0    0  0.61408684893E+02 -0.69778703493E+02  0.76352990833E+02  0.14410425730E+03  0.79348369359E+02 0.  0.
          5    1    3    3  501    0 -0.26245058036E+02  0.50065171301E+01 -0.20096343192E+02  0.33761239532E+02  0.47000000000E+01 0. -1.
        -13    1    4    4    0    0 -0.20968540665E+02  0.79312874046E+02  0.12657262017E+03  0.15083381538E+03  0.00000000000E+00 0.  1.
         14    1    4    4    0    0  0.29620394410E+02  0.55049877308E+01  0.78269230145E+02  0.83867425395E+02  0.00000000000E+00 0. -1.
         -5    1    5    5    0  502 -0.43815480601E+02 -0.20045675414E+02  0.12722897031E+03  0.13612834507E+03  0.47000000000E+01 0.  1.
         13    1    6    6    0    0  0.31235517019E+02 -0.23596264658E+02 -0.11114299291E+02  0.40693597507E+02  0.00000000000E+00 0. -1.
        -14    1    6    6    0    0  0.30173167873E+02 -0.46182438835E+02  0.87467290124E+02  0.10341065979E+03  0.00000000000E+00 0.  1.
</event>
<event>
12    1  0.8494789E-002  0.1800105E+03  0.7818608E-02  0.1167827E+00
         21   -1    0    0  501  502  0.00000000000E+00  0.00000000000E+00  0.92505482434E+02  0.92505482434E+02  0.00000000000E+00 0.  1.
         21   -1    0    0  502  503 -0.00000000000E+00 -0.00000000000E+00 -0.40133492750E+03  0.40133492750E+03  0.00000000000E+00 0.  1.
         -6    2    1    2    0  503 -0.38851158713E+02  0.34942781103E+02 -0.66063668449E+02  0.19161699823E+03  0.17211117115E+03 0.  0.
        -24    2    3    3    0    0 -0.24446000320E+02 -0.41031609371E+02 -0.66494752484E+02  0.11414511669E+03  0.79538391083E+02 0.  0.
          6    2    1    2  501    0  0.38851158713E+02 -0.34942781103E+02 -0.24276577662E+03  0.30222341171E+03  0.17225956520E+03 0.  0.
         24    2    5    5    0    0 -0.31329942824E+02 -0.65254704760E+01 -0.18811046857E+03  0.20872355474E+03  0.84592120398E+02 0.  0.
          5    1    5    5  501    0  0.70181101537E+02 -0.28417310627E+02 -0.54655308049E+02  0.93499856974E+02  0.47000000000E+01 0. -1.
        -13    1    6    6    0    0 -0.11326223348E+02 -0.17093236826E+02 -0.18471137313E+03  0.18584604770E+03  0.00000000000E+00 0.  1.
         14    1    6    6    0    0 -0.20003719476E+02  0.10567766349E+02 -0.33990954391E+01  0.22877507038E+02  0.00000000000E+00 0. -1.
         -5    1    3    3    0  503 -0.14405158393E+02  0.75974390474E+02  0.43108403443E+00  0.77471881542E+02  0.47000000000E+01 0.  1.
         13    1    4    4    0    0 -0.44038791597E+01 -0.18667322714E+02 -0.79235237706E+02  0.81523530244E+02  0.00000000000E+00 0. -1.
        -14    1    4    4    0    0 -0.20042121160E+02 -0.22364286656E+02  0.12740485223E+02  0.32621586442E+02  0.00000000000E+00 0.  1.
</event>
<event>
12    1  0.8494789E-002  0.1734214E+03  0.7818608E-02  0.1175203E+00
         21   -1    0    0  501  502  0.00000000000E+00  0.00000000000E+00  0.30409764442E+03  0.30409764442E+03  0.00000000000E+00 0.  1.
         21   -1    0    0  502  503 -0.00000000000E+00 -0.00000000000E+00 -0.11956444944E+03  0.11956444944E+03  0.00000000000E+00 0.  1.
         -6    2    1    2    0  503 -0.11897039527E+02 -0.18825991788E+02 -0.57911155501E+00  0.17000572505E+03  0.16853976879E+03 0.  0.
        -24    2    3    3    0    0  0.26040516944E+02 -0.59786973227E+02 -0.28889683775E+02  0.10723121836E+03  0.80070779138E+02 0.  0.
          6    2    1    2  501    0  0.11897039527E+02  0.18825991788E+02  0.18511230653E+03  0.25365636881E+03  0.17198555141E+03 0.  0.
         24    2    5    5    0    0 -0.32581036378E+02  0.63850414160E+02  0.11046230670E+03  0.15567570581E+03  0.83033757351E+02 0.  0.
          5    1    5    5  501    0  0.44478075904E+02 -0.45024422372E+02  0.74649999835E+02  0.97980662997E+02  0.47000000000E+01 0. -1.
        -13    1    6    6    0    0 -0.12325191016E+02  0.69924100333E+02  0.38703064694E+02  0.80865427456E+02  0.00000000000E+00 0.  1.
         14    1    6    6    0    0 -0.20255845362E+02 -0.60736861728E+01  0.71759242002E+02  0.74810278356E+02  0.00000000000E+00 0. -1.
         -5    1    3    3    0  503 -0.37937556471E+02  0.40960981439E+02  0.28310572220E+02  0.62774506696E+02  0.47000000000E+01 0.  1.
         13    1    4    4    0    0  0.22483831273E+01  0.10438535700E+02  0.16969085029E+02  0.20049142151E+02  0.00000000000E+00 0. -1.
        -14    1    4    4    0    0  0.23792133817E+02 -0.70225508928E+02 -0.45858768804E+02  0.87182076208E+02  0.00000000000E+00 0.  1.
</event>
<event>
12    1  0.8494789E-002  0.2033650E+03  0.7818608E-02  0.1147319E+00
         21   -1    0    0  501  502  0.00000000000E+00  0.00000000000E+00  0.92444897981E+03  0.92444897981E+03  0.00000000000E+00 0.  1.
         21   -1    0    0  502  503 -0.00000000000E+00 -0.00000000000E+00 -0.67610352363E+02  0.67610352363E+02  0.00000000000E+00 0. -1.
         -6    2    1    2    0  503  0.29414551812E+02  0.98335572435E+02  0.13862956200E+03  0.24612084261E+03  0.17556256161E+03 0.  0.
        -24    2    3    3    0    0  0.61965374371E+02  0.91355111722E+01  0.10583117851E+03  0.14555230410E+03  0.77859294224E+02 0.  0.
          6    2    1    2  501    0 -0.29414551812E+02 -0.98335572435E+02  0.71820906545E+03  0.74593848957E+03  0.17339223703E+03 0.  0.
         24    2    5    5    0    0 -0.36945060435E+02  0.92290946113E+01  0.40356257815E+03  0.41329548554E+03  0.80624377274E+02 0.  0.
          5    1    5    5  501    0  0.75305086233E+01 -0.10756466705E+03  0.31464648730E+03  0.33264300403E+03  0.47000000000E+01 0. -1.
        -11    1    6    6    0    0 -0.14316018614E+00 -0.33085247286E+02  0.14930248801E+03  0.15292444870E+03  0.00000000000E+00 0.  1.
         12    1    6    6    0    0 -0.36801900249E+02  0.42314341897E+02  0.25426009014E+03  0.26037103685E+03  0.00000000000E+00 0. -1.
         -5    1    3    3    0  503 -0.32550822559E+02  0.89200061263E+02  0.32798383490E+02  0.10056853851E+03  0.47000000000E+01 0.  1.
         13    1    4    4    0    0  0.32749824557E+02 -0.32956640949E+02  0.65703500404E+02  0.80471368551E+02  0.00000000000E+00 0. -1.
        -14    1    4    4    0    0  0.29215549814E+02  0.42092152121E+02  0.40127678109E+02  0.65080935545E+02  0.00000000000E+00 0.  1.
</event>
<event>
12    1  0.8494789E-002  0.2453035E+03  0.7818608E-02  0.1116674E+00
         21   -1    0    0  503  502  0.00000000000E+00  0.00000000000E+00  0.12509785108E+04  0.12509785108E+04  0.00000000000E+00 0.  1.
         21   -1    0    0  501  503 -0.00000000000E+00 -0.00000000000E+00 -0.58707060124E+02  0.58707060124E+02  0.00000000000E+00 0.  1.
          6    2    1    2  501    0  0.13182356923E+01  0.17623736263E+03  0.87794014982E+03  0.91096512170E+03  0.16738339394E+03 0.  0.
         24    2    3    3    0    0 -0.61804914866E+02  0.95807025961E+02  0.43778470823E+03  0.45906637867E+03  0.78023429457E+02 0.  0.
         -6    2    1    2    0  502 -0.13182356923E+01 -0.17623736263E+03  0.31433130083E+03  0.39872044919E+03  0.17062380897E+03 0.  0.
        -24    2    5    5    0    0  0.35757749551E+02 -0.32509945115E+02  0.84813808991E+02  0.12534786774E+03  0.78633279008E+02 0.  0.
          5    1    3    3  501    0  0.63123150558E+02  0.80430336671E+02  0.44015544159E+03  0.45189874303E+03  0.47000000000E+01 0. -1.
        -13    1    4    4    0    0 -0.21212128385E+02  0.84336720939E+02  0.36234283333E+03  0.37263248081E+03  0.00000000000E+00 0.  1.
         14    1    4    4    0    0 -0.40592786481E+02  0.11470305022E+02  0.75441874901E+02  0.86433897865E+02  0.00000000000E+00 0. -1.
         -5    1    5    5    0  502 -0.37075985243E+02 -0.14372741752E+03  0.22951749184E+03  0.27337258145E+03  0.47000000000E+01 0.  1.
         11    1    6    6    0    0  0.33798852578E+02 -0.20462387937E+02  0.99023972774E+02  0.10661528474E+03  0.00000000000E+00 0. -1.
        -12    1    6    6    0    0  0.19588969726E+01 -0.12047557179E+02 -0.14210163783E+02  0.18732583005E+02  0.00000000000E+00 0.  1.
</event>
<event>
12    1  0.8494789E-002  0.2331936E+03  0.7818608E-02  0.1124761E+00
         21   -1    0    0  501  502  0.00000000000E+00  0.00000000000E+00  0.52608180873E+02  0.52608180873E+02  0.00000000000E+00 0.  1.
         21   -1    0    0  502  503 -0.00000000000E+00 -0.00000000000E+00 -0.14695153452E+04  0.14695153452E+04  0.00000000000E+00 0. -1.
         -6    2    1    2    0  503  0.69204315192E+02  0.14184193143E+03 -0.11292817626E+04  0.11531073424E+04  0.17167082723E+03 0.  0.
        -24    2    3    3    0    0  0.10430035756E+03  0.13056208503E+03 -0.77410510664E+03  0.79599179515E+03  0.80244620903E+02 0.  0.
          6    2    1    2  501    0 -0.69204315192E+02 -0.14184193143E+03 -0.28762540171E+03  0.36901618370E+03  0.16892661532E+03 0.  0.
         24    2    5    5    0    0  0.11368605004E+02 -0.11018871915E+03 -0.12297059382E+03  0.18293228574E+03  0.77920826572E+02 0.  0.
          5    1    5    5  501    0 -0.80572920196E+02 -0.31653212286E+02 -0.16465480790E+03  0.18608389796E+03  0.47000000000E+01 0. -1.
        -13    1    6    6    0    0  0.12150445240E+01 -0.10901660045E+03 -0.71317636716E+02  0.13027778327E+03  0.00000000000E+00 0.  1.
         14    1    6    6    0    0  0.10153560480E+02 -0.11721186974E+01 -0.51652957102E+02  0.52654502467E+02  0.00000000000E+00 0. -1.
         -5    1    3    3    0  503 -0.35096042368E+02  0.11279846407E+02 -0.35517665596E+03  0.35711554722E+03  0.47000000000E+01 0.  1.
         11    1    4    4    0    0  0.94345892553E+02  0.11557375728E+03 -0.75557410197E+03  0.77016275187E+03  0.00000000000E+00 0. -1.
        -12    1    4    4    0    0  0.99544650063E+01  0.14988327750E+02 -0.18531004679E+02  0.25829043279E+02  0.00000000000E+00 0.  1.
</event>
<event>
12    1  0.8494789E-002  0.2109091E+03  0.7818608E-02  0.1141194E+00
         21   -1    0    0  503  502  0.00000000000E+00  0.00000000000E+00  0.17429882775E+03  0.17429882775E+03  0.00000000000E+00 0. -1.
         21   -1    0    0  501  503 -0.00000000000E+00 -0.00000000000E+00 -0.37577572977E+03  0.37577572977E+03  0.00000000000E+00 0.  1.
          6    2    1    2  501    0 -0.59598580410E+02 -0.10283856985E+03 -0.25816831611E+03  0.33336696111E+03  0.17422654528E+03 0.  0.
         24    2    3    3    0    0 -0.42784863563E+01 -0.74321994985E+02 -0.61939760902E+02  0.12745133827E+03  0.82856775603E+02 0.  0.
         -6    2    1    2    0  502  0.59598580410E+02  0.10283856985E+03  0.56691414094E+02  0.21670759641E+03  0.17210608261E+03 0.  0.
        -24    2    5    5    0    0  0.58554421266E+02  0.13294881348E+03  0.19157939448E+02  0.16834884582E+03  0.82887272776E+02 0.  0.
          5    1    3    3  501    0 -0.55320094054E+02 -0.28516574870E+02 -0.19622855521E+03  0.20591562284E+03  0.47000000000E+01 0. -1.
        -11    1    4    4    0    0 -0.35212200002E+02 -0.69685370008E+02 -0.54739947838E+02  0.95354138408E+02  0.00000000000E+00 0.  1.
         12    1    4    4    0    0  0.30933713646E+02 -0.46366249764E+01 -0.71998130637E+01  0.32097199866E+02  0.00000000000E+00 0. -1.
         -5    1    5    5    0  502  0.10441591440E+01 -0.30110243628E+02  0.37533474646E+02  0.48358750590E+02  0.47000000000E+01 0.  1.
         11    1    6    6    0    0 -0.26469192942E+01  0.94171256945E+02  0.17852253048E+02  0.95885007979E+02  0.00000000000E+00 0. -1.
        -12    1    6    6    0    0  0.61201340560E+02  0.38777556538E+02  0.13056864005E+01  0.72463837839E+02  0.00000000000E+00 0.  1.
</event>
<event>
12    1  0.8494789E-002  0.2038410E+03  0.7818608E-02  0.1146662E+00
         21   -1    0    0  501  502  0.00000000000E+00  0.00000000000E+00  0.20153637488E+03  0.20153637488E+03  0.00000000000E+00 0.  1.
         21   -1    0    0  502  503 -0.00000000000E+00 -0.00000000000E+00 -0.20622689029E+03  0.20622689029E+03  0.00000000000E+00 0. -1.
         -6    2    1    2    0  503 -0.10638392052E+03  0.24806361076E+02 -0.13888510905E+02  0.20371487393E+03  0.17138834567E+03 0.  0.
        -24    2    3    3    0    0 -0.44135539717E+02 -0.33188335401E+02 -0.43156059059E+02  0.11362089463E+03  0.89430703840E+02 0.  0.
          6    2    1    2  501    0  0.10638392052E+03 -0.24806361076E+02  0.91979954979E+01  0.20404839124E+03  0.17209953153E+03 0.  0.
         24    2    5    5    0    0 -0.96811856721E+00 -0.17175074512E+02  0.42020541734E+02  0.91433532668E+02  0.79362740189E+02 0.  0.
          5    1    5    5  501    0  0.10735203908E+03 -0.76312865644E+01 -0.32822546236E+02  0.11261485857E+03  0.47000000000E+01 0. -1.
        -11    1    6    6    0    0 -0.54770153723E+01  0.29725685409E+02  0.30475235975E+02  0.42922652273E+02  0.00000000000E+00 0.  1.
         12    1    6    6    0    0  0.45088968051E+01 -0.46900759921E+02  0.11545305759E+02  0.48510880394E+02  0.00000000000E+00 0. -1.
         -5    1    3    3    0  503 -0.62248380799E+02  0.57994696477E+02  0.29267548154E+02  0.90093979303E+02  0.47000000000E+01 0.  1.
         13    1    4    4    0    0 -0.11758668276E+02  0.66163875603E+01 -0.58524067766E+02  0.60059215545E+02  0.00000000000E+00 0. -1.
        -14    1    4    4    0    0 -0.32376871441E+02 -0.39804722961E+02  0.15368008708E+02  0.53561679081E+02  0.00000000000E+00 0.  1.
</event>
<event>
12    1  0.8494789E-002  0.1808759E+03  0.7818608E-02  0.1167005E+00
         21   -1    0    0  501  502  0.00000000000E+00  0.00000000000E+00  0.20597070617E+03  0.20597070617E+03  0.00000000000E+00 0.  1.
         21   -1    0    0  502  503 -0.00000000000E+00 -0.00000000000E+00 -0.16423471899E+03  0.16423471899E+03  0.00000000000E+00 0.  1.
         -6    2    1    2    0  503  0.44405838029E+02  0.22859720192E+02 -0.13218572733E+02  0.18116552276E+03  0.17364265234E+03 0.  0.
        -24    2    3    3    0    0  0.30804382851E+02 -0.32797161851E+02  0.42639938325E+02  0.10100972846E+03  0.79751094505E+02 0.  0.
          6    2    1    2  501    0 -0.44405838029E+02 -0.22859720192E+02  0.54954559913E+02  0.18903990240E+03  0.17384371080E+03 0.  0.
         24    2    5    5    0    0 -0.89531503378E+02 -0.23969458719E+02  0.69289591412E+02  0.14144641208E+03  0.81336430726E+02 0.  0.
          5    1    5    5  501    0  0.45125665349E+02  0.11097385269E+01 -0.14335031499E+02  0.47593490320E+02  0.47000000000E+01 0. -1.
        -13    1    6    6    0    0 -0.20737050980E+02 -0.19802832031E+02  0.66558117401E+02  0.72471790593E+02  0.00000000000E+00 0.  1.
         14    1    6    6    0    0 -0.68794452398E+02 -0.41666266878E+01  0.27314740105E+01  0.68974621484E+02  0.00000000000E+00 0. -1.
         -5    1    3    3    0  503  0.13601455178E+02  0.55656882043E+02 -0.55858511059E+02  0.80155794297E+02  0.47000000000E+01 0.  1.
         13    1    4    4    0    0  0.51854688465E+02 -0.21137993648E+02  0.50793635586E+02  0.75602360461E+02  0.00000000000E+00 0. -1.
        -14    1    4    4    0    0 -0.21050305613E+02 -0.11659168204E+02 -0.81536972607E+01  0.25407367999E+02  0.00000000000E+00 0.  1.
</event>
<event>
12    1  0.8494789E-002  0.1874687E+03  0.7818608E-02  0.1161913E+00
         21   -1    0    0  503  502  0.00000000000E+00  0.00000000000E+00  0.79550951776E+03  0.79550951776E+03  0.00000000000E+00 0. -1.
         21   -1    0    0  501  503 -0.00000000000E+00 -0.00000000000E+00 -0.54652728253E+02  0.54652728253E+02  0.00000000000E+00 0. -1.
          6    2    1    2  501    0  0.42841974716E+02 -0.43564396213E+02  0.17824551474E+03  0.25868125861E+03  0.17723216022E+03 0.  0.
         24    2    3    3    0    0  0.24278866341E+02 -0.35109380127E+02  0.20538542327E+03  0.22440676482E+03  0.79706286340E+02 0.  0.
         -6    2    1    2    0  502 -0.42841974716E+02  0.43564396213E+02  0.56261127477E+03  0.59148098740E+03  0.17200296669E+03 0.  0.
        -24    2    5    5    0    0 -0.59728528547E+02  0.88837280880E+02  0.43015955016E+03  0.45041242557E+03  0.79840809849E+02 0.  0.
          5    1    3    3  501    0  0.18563108374E+02 -0.84550160854E+01 -0.27139908530E+02  0.34274493789E+02  0.47000000000E+01 0. -1.
        -11    1    4    4    0    0  0.44089161198E+02 -0.37390737736E+02  0.19168534914E+03  0.20021287290E+03  0.00000000000E+00 0.  1.
         12    1    4    4    0    0 -0.19810294856E+02  0.22813576087E+01  0.13700074137E+02  0.24193891919E+02  0.00000000000E+00 0. -1.
         -5    1    5    5    0  502  0.16886553832E+02 -0.45272884667E+02  0.13245172461E+03  0.14106856183E+03  0.47000000000E+01 0.  1.
         11    1    6    6    0    0 -0.76310432045E+02  0.50187633929E+02  0.28434183165E+03  0.29865089630E+03  0.00000000000E+00 0. -1.
        -12    1    6    6    0    0  0.16581903498E+02  0.38649646950E+02  0.14581771851E+03  0.15176152927E+03  0.00000000000E+00 0.  1.
</event>
<event>
12    1  0.8494789E-002  0.1913228E+03  0.7818608E-02  0.1157598E+00
         21   -1    0    0  503  502  0.00000000000E+00  0.00000000000E+00  0.29986487568E+03  0.29986487568E+03  0.00000000000E+00 0.  1.
         21   -1    0    0  501  503 -0.00000000000E+00 -0.00000000000E+00 -0.12528882094E+03  0.12528882094E+03  0.00000000000E+00 0.  1.
          6    2    1    2  501    0 -0.26432126356E+02 -0.74802539231E+02  0.12560767878E+03  0.22766360919E+03  0.17250899339E+03 0.  0.
         24    2    3    3    0    0  0.33780250324E+01 -0.49536956374E+02 -0.11199829105E+01  0.94964758247E+02  0.80942756608E+02 0.  0.
         -6    2    1    2    0  502  0.26432126356E+02  0.74802539231E+02  0.48968375962E+02  0.19749008743E+03  0.17409869503E+03 0.  0.
        -24    2    5    5    0    0 -0.34192266370E+02  0.88789624888E+02  0.52981719654E+02  0.13496687186E+03  0.79726315068E+02 0.  0.
          5    1    3    3  501    0 -0.29810151388E+02 -0.25265582857E+02  0.12672766169E+03  0.13269885094E+03  0.47000000000E+01 0. -1.
        -13    1    4    4    0    0 -0.15790497602E+02 -0.39203658401E+02  0.33591792904E+02  0.53987731913E+02  0.00000000000E+00 0.  1.
         14    1    4    4    0    0  0.19168522635E+02 -0.10333297973E+02 -0.34711775815E+02  0.40977026335E+02  0.00000000000E+00 0. -1.
         -5    1    5    5    0  502  0.60624392725E+02 -0.13987085658E+02 -0.40133436913E+01  0.62523215577E+02  0.47000000000E+01 0.  1.
         13    1    6    6    0    0 -0.20278680258E+02  0.47463303857E+02 -0.15402376248E+02  0.53863004744E+02  0.00000000000E+00 0. -1.
        -14    1    6    6    0    0 -0.13913586112E+02  0.41326321031E+02  0.68384095902E+02  0.81103867114E+02  0.00000000000E+00 0.  1.
</event>
<event>
12    1  0.8494789E-002  0.1999528E+03  0.7818608E-02  0.1151110E+00
         21   -1    0    0  501  502  0.00000000000E+00  0.00000000000E+00  0.29062800138E+03  0.29062800138E+03  0.00000000000E+00 0.  1.
         21   -1    0    0  502  503 -0.00000000000E+00 -0.00000000000E+00 -0.13914489010E+03  0.13914489010E+03  0.00000000000E+00 0.  1.
         -6    2    1    2    0  503  0.10355420669E+03 -0.12388733183E+02  0.30688587656E+02  0.19616546229E+03  0.16328547012E+03 0.  0.
        -24    2    3    3    0    0 -0.72959324050E+01  0.12342392755E+01  0.13181836393E+02  0.83019914191E+02  0.81632048641E+02 0.  0.
          6    2    1    2  501    0 -0.10355420669E+03  0.12388733183E+02  0.12079452362E+03  0.23360742919E+03  0.17059941267E+03 0.  0.
         24    2    5    5    0    0 -0.69432958965E+02 -0.55620824556E+02  0.11528176725E+03  0.15717419052E+03  0.59154276182E+02 0.  0.
          5    1    5    5  501    0 -0.34121247721E+02  0.68009557738E+02  0.55127563656E+01  0.76433238663E+02  0.47000000000E+01 0. -1.
        -11    1    6    6    0    0 -0.23031265145E+02  0.24454617489E+00  0.26846560456E+01  0.23188496180E+02  0.00000000000E+00 0.  1.
         12    1    6    6    0    0 -0.46401693820E+02 -0.55865370730E+02  0.11259711121E+03  0.13398569434E+03  0.00000000000E+00 0. -1.
         -5    1    3    3    0  503  0.11085013909E+03 -0.13622972458E+02  0.17506751263E+02  0.11314554810E+03  0.47000000000E+01 0.  1.
         13    1    4    4    0    0 -0.11833243997E+02 -0.45188888386E+00 -0.33787103850E+02  0.35802210178E+02  0.00000000000E+00 0. -1.
        -14    1    4    4    0    0  0.45373115918E+01  0.16861281593E+01  0.46968940243E+02  0.47217704013E+02  0.00000000000E+00 0.  1.
</event>
<event>
12    1  0.8494789E-002  0.2644805E+03  0.7818608E-02  0.1106675E+00
         21   -1    0    0  501  502  0.00000000000E+00  0.00000000000E+00  0.67313584787E+03  0.67313584787E+03  0.00000000000E+00 0.  1.
         21   -1    0    0  502  503 -0.00000000000E+00 -0.00000000000E+00 -0.20899769726E+03  0.20899769726E+03  0.00000000000E+00 0. -1.
         -6    2    1    2    0  503  0.14067947336E+03  0.12074173022E+03 -0.85794288974E+02  0.27804778124E+03  0.18862828259E+03 0.  0.
        -24    2    3    3    0    0  0.41802351130E+02  0.87315204304E+02 -0.11526427462E+03  0.16949093904E+03  0.77909845021E+02 0.  0.
          6    2    1    2  501    0 -0.14067947336E+03 -0.12074173022E+03  0.54993243959E+03  0.60408576389E+03  0.16770403210E+03 0.  0.
         24    2    5    5    0    0 -0.16656155268E+03 -0.11162111132E+03  0.43413464643E+03  0.48498796114E+03  0.80860422296E+02 0.  0.
          5    1    5    5  501    0  0.25882079327E+02 -0.91206188932E+01  0.11579779316E+03  0.11909780275E+03  0.47000000000E+01 0. -1.
        -13    1    6    6    0    0 -0.18126862190E+02  0.11695966988E+02  0.28079543556E+02  0.35409596763E+02  0.00000000000E+00 0.  1.
         14    1    6    6    0    0 -0.14843469049E+03 -0.12331707831E+03  0.40605510288E+03  0.44957836438E+03  0.00000000000E+00 0. -1.
         -5    1    3    3    0  503  0.98877122226E+02  0.33426525913E+02  0.29469985644E+02  0.10855684220E+03  0.47000000000E+01 0.  1.
         13    1    4    4    0    0 -0.46490177199E+01  0.60550243379E+02 -0.93801385049E+02  0.11174365833E+03  0.00000000000E+00 0. -1.
        -14    1    4    4    0    0  0.46451368850E+02  0.26764960925E+02 -0.21462889569E+02  0.57747280715E+02  0.00000000000E+00 0.  1.
</event>
<event>
12    1  0.8494789E-002  0.2097790E+03  0.7818608E-02  0.1141888E+00
         21   -1    0    0  503  502  0.00000000000E+00  0.00000000000E+00  0.68737892057E+03  0.68737892057E+03  0.00000000000E+00 0. -1.
         21   -1    0    0  501  503 -0.00000000000E+00 -0.00000000000E+00 -0.78075871153E+02  0.78075871153E+02  0.00000000000E+00 0.  1.
          6    2    1    2  501    0  0.11484052482E+03 -0.34728464452E+02  0.14053659126E+03  0.25188956580E+03  0.17118238079E+03 0.  0.
         24    2    3    3    0    0  0.11406831000E+03 -0.67759974099E+02  0.63380358036E+02  0.16782499972E+03  0.80902208321E+02 0.  0.
         -6    2    1    2    0  502 -0.11484052482E+03  0.34728464452E+02  0.46876645816E+03  0.51356522592E+03  0.17208380690E+03 0.  0.
        -24    2    5    5    0    0 -0.40141833730E+02  0.47839795998E+02  0.39471949638E+03  0.40746695066E+03  0.79535037322E+02 0.  0.
          5    1    3    3  501    0  0.77221482108E+00  0.33031509647E+02  0.77156233221E+02  0.84064566080E+02  0.47000000000E+01 0. -1.
        -11    1    4    4    0    0  0.10895580754E+02 -0.48210695942E+02  0.11720908649E+02  0.50797289128E+02  0.00000000000E+00 0.  1.
         12    1    4    4    0    0  0.10317272924E+03 -0.19549278158E+02  0.51659449388E+02  0.11702771059E+03  0.00000000000E+00 0. -1.
         -5    1    5    5    0  502 -0.74698691087E+02 -0.13111331546E+02  0.74046961781E+02  0.10609827526E+03  0.47000000000E+01 0.  1.
         11    1    6    6    0    0  0.21265226078E+01  0.57510469169E+02  0.23806677338E+03  0.24492399791E+03  0.00000000000E+00 0. -1.
        -12    1    6    6    0    0 -0.42268356338E+02 -0.96706731704E+01  0.15665272300E+03  0.16254295275E+03  0.00000000000E+00 0.  1.
</event>
<event>
12    1  0.8494789E-002  0.2177569E+03  0.7818608E-02  0.1135998E+00
         21   -1    0    0  503  502  0.00000000000E+00  0.00000000000E+00  0.66564053975E+02  0.66564053975E+02  0.00000000000E+00 0. -1.
         21   -1    0    0  501  503 -0.00000000000E+00 -0.00000000000E+00 -0.73155971334E+03  0.73155971334E+03  0.00000000000E+00 0.  1.
          6    2    1    2  501    0  0.30564905019E+01 -0.13348120427E+03 -0.25808736977E+03  0.33767905202E+03  0.17202173616E+03 0.  0.
         24    2    3    3    0    0  0.67168126893E+02 -0.96950139898E+02 -0.16497300085E+03  0.21877910970E+03  0.82081185019E+02 0.  0.
         -6    2    1    2    0  502 -0.30564905019E+01  0.13348120427E+03 -0.40690828960E+03  0.46044471530E+03  0.16914019533E+03 0.  0.
        -24    2    5    5    0    0 -0.16612050993E+02  0.28700502872E+02 -0.28999541752E+03  0.30279491903E+03  0.80546518888E+02 0.  0.
          5    1    3    3  501    0 -0.64111636391E+02 -0.36531064370E+02 -0.93114368916E+02  0.11889994232E+03  0.47000000000E+01 0. -1.
        -11    1    4    4    0    0 -0.79612815272E+01  0.75400851507E+01 -0.20453169789E+01  0.11154291066E+02  0.00000000000E+00 0.  1.
         12    1    4    4    0    0  0.75129408421E+02 -0.10449022505E+03 -0.16292768387E+03  0.20762481863E+03  0.00000000000E+00 0. -1.
         -5    1    5    5    0  502  0.13555560492E+02  0.10478070140E+03 -0.11691287208E+03  0.15764979626E+03  0.47000000000E+01 0.  1.
         13    1    6    6    0    0 -0.26374676746E+02  0.47488326631E+01 -0.25351370855E+02  0.36889930731E+02  0.00000000000E+00 0. -1.
        -14    1    6    6    0    0  0.97626257524E+01  0.23951670209E+02 -0.26464404667E+03  0.26590498830E+03  0.00000000000E+00 0.  1.
</event>
<event>
12    1  0.8494789E-002  0.1914709E+03  0.7818608E-02  0.1157236E+00
         21   -1    0    0  503  502  0.00000000000E+00  0.00000000000E+00  0.39948716334E+03  0.39948716334E+03  0.00000000000E+00 0. -1.
         21   -1    0    0  501  503 -0.00000000000E+00 -0.00000000000E+00 -0.16509146289E+03  0.16509146289E+03  0.00000000000E+00 0. -1.
          6    2    1    2  501    0  0.82986754831E+02 -0.38531952077E+01 -0.71259050477E+02  0.20390436562E+03  0.17203920906E+03 0.  0.
         24    2    3    3    0    0  0.54753305063E+02 -0.26990197326E+02  0.22758557346E+02  0.10293977215E+03  0.79701001196E+02 0.  0.
         -6    2    1    2    0  502 -0.82986754831E+02  0.38531952077E+01  0.30565475093E+03  0.36067426062E+03  0.17250926618E+03 0.  0.
        -24    2    5    5    0    0 -0.72943896277E+02 -0.35116695806E+02  0.29836004095E+03  0.31950613937E+03  0.80693647398E+02 0.  0.
          5    1    3    3  501    0  0.28233449767E+02  0.23137002118E+02 -0.94017607824E+02  0.10096459347E+03  0.47000000000E+01 0. -1.
        -13    1    4    4    0    0 -0.17694772308E+02 -0.21321518353E+02  0.54796746581E+01  0.28244272805E+02  0.00000000000E+00 0.  1.
         14    1    4    4    0    0  0.72448077372E+02 -0.56686789726E+01  0.17278882688E+02  0.74695499350E+02  0.00000000000E+00 0. -1.
         -5    1    5    5    0  502 -0.10042858554E+02  0.38969891014E+02  0.72947099788E+01  0.41168121250E+02  0.47000000000E+01 0.  1.
         11    1    6    6    0    0 -0.25536697557E+02 -0.42441144343E+02  0.23428854005E+03  0.23946710349E+03  0.00000000000E+00 0. -1.
        -12    1    6    6    0    0 -0.47407198720E+02  0.73244485365E+01  0.64071500901E+02  0.80039035880E+02  0.00000000000E+00 0.  1.
</event>
<event>
12    1  0.8494789E-002  0.1997540E+03  0.7818608E-02  0.1153546E+00
         21   -1    0    0  501  502  0.00000000000E+00  0.00000000000E+00  0.11610309869E+03  0.11610309869E+03  0.00000000000E+00 0.  1.
         21   -1    0    0  502  503 -0.00000000000E+00 -0.00000000000E+00 -0.50858538585E+03  0.50858538585E+03  0.00000000000E+00 0. -1.
         -6    2    1    2    0  503  0.33419805352E+02 -0.54346333633E+02 -0.38303635577E+03  0.42471123820E+03  0.17202435480E+03 0.  0.
        -24    2    3    3    0    0  0.43976436486E+02 -0.95840699955E+02 -0.22268390580E+03  0.25867442569E+03  0.78771631124E+02 0.  0.
          6    2    1    2  501    0 -0.33419805352E+02  0.54346333633E+02 -0.94459313912E+01  0.19997724635E+03  0.18929148440E+03 0.  0.
         24    2    5    5    0    0 -0.35071393958E+02  0.50425253525E+02  0.68563074078E+02  0.12171104963E+03  0.79623963778E+02 0.  0.
          5    1    5    5  501    0  0.16515886061E+01  0.39210801083E+01 -0.78009005469E+02  0.78266196716E+02  0.47000000000E+01 0. -1.
        -13    1    6    6    0    0  0.47116566303E+01  0.39718102768E+02 -0.19504225677E+01  0.40044119966E+02  0.00000000000E+00 0.  1.
         14    1    6    6    0    0 -0.39783050589E+02  0.10707150757E+02  0.70513496646E+02  0.81666929664E+02  0.00000000000E+00 0. -1.
         -5    1    3    3    0  503 -0.10556631134E+02  0.41494366322E+02 -0.16035244997E+03  0.16603681251E+03  0.47000000000E+01 0.  1.
         13    1    4    4    0    0 -0.96730825220E+00  0.61703003567E+01 -0.66485920540E+02  0.66778633722E+02  0.00000000000E+00 0. -1.
        -14    1    4    4    0    0  0.44943744739E+02 -0.10201100031E+03 -0.15619798526E+03  0.19189579197E+03  0.00000000000E+00 0.  1.
</event>
<event>
12    1  0.8494789E-002  0.1867169E+03  0.7818608E-02  0.1161781E+00
         21   -1    0    0  503  502  0.00000000000E+00  0.00000000000E+00  0.54154352566E+02  0.54154352566E+02  0.00000000000E+00 0. -1.
         21   -1    0    0  501  503 -0.00000000000E+00 -0.00000000000E+00 -0.75167180955E+03  0.75167180955E+03  0.00000000000E+00 0. -1.
          6    2    1    2  501    0 -0.45318980084E+01  0.68017623684E+02 -0.50590525043E+03  0.53926181766E+03  0.17382822077E+03 0.  0.
         24    2    3    3    0    0  0.15961033186E+02  0.79541901025E+02 -0.50017734537E+03  0.51461089285E+03  0.89807157973E+02 0.  0.
         -6    2    1    2    0  502  0.45318980084E+01 -0.68017623684E+02 -0.19161220655E+03  0.26656434446E+03  0.17232056408E+03 0.  0.
        -24    2    5    5    0    0 -0.52291824694E+02 -0.10174620140E+02 -0.62106024137E+02  0.11369613388E+03  0.78941084367E+02 0.  0.
          5    1    3    3  501    0 -0.20492931194E+02 -0.11524277341E+02 -0.57279050590E+01  0.24650924801E+02  0.47000000000E+01 0. -1.
        -13    1    4    4    0    0 -0.16310263785E+02 -0.94870422071E+01 -0.33739277965E+02  0.38657050484E+02  0.00000000000E+00 0.  1.
         14    1    4    4    0    0  0.32271296971E+02  0.89028943232E+02 -0.46643806741E+03  0.47595384237E+03  0.00000000000E+00 0. -1.
         -5    1    5    5    0  502  0.56823722703E+02 -0.57843003544E+02 -0.12950618242E+03  0.15286821058E+03  0.47000000000E+01 0.  1.
         13    1    6    6    0    0  0.16918964656E+02  0.40615636185E+01  0.29510166182E+01  0.17648120669E+02  0.00000000000E+00 0. -1.
        -14    1    6    6    0    0 -0.69210789351E+02 -0.14236183758E+02 -0.65057040755E+02  0.96048013214E+02  0.00000000000E+00 0.  1.
</event>
<event>
12    1  0.8494789E-002  0.2584758E+03  0.7818608E-02  0.1108112E+00
         21   -1    0    0  503  502  0.00000000000E+00  0.00000000000E+00  0.54890830873E+03  0.54890830873E+03  0.00000000000E+00 0. -1.
         21   -1    0    0  501  503 -0.00000000000E+00 -0.00000000000E+00 -0.17281850629E+03  0.17281850629E+03  0.00000000000E+00 0. -1.
          6    2    1    2  501    0 -0.31145738488E+02 -0.19047828122E+03 -0.85672164121E+01  0.25829316167E+03  0.17143490754E+03 0.  0.
         24    2    3    3    0    0 -0.49468682982E+02 -0.20829819696E+03 -0.22188931167E+02  0.22895170968E+03  0.78046442888E+02 0.  0.
         -6    2    1    2    0  502  0.31145738488E+02  0.19047828122E+03  0.38465701885E+03  0.46343365335E+03  0.17192351863E+03 0.  0.
        -24    2    5    5    0    0  0.76176756186E+01  0.34294764931E+02  0.21327200640E+03  0.23032043408E+03  0.79551202114E+02 0.  0.
          5    1    3    3  501    0  0.18322944494E+02  0.17819915736E+02  0.13621714755E+02  0.29341451986E+02  0.47000000000E+01 0. -1.
        -11    1    4    4    0    0 -0.29501326466E+02 -0.14664973267E+02  0.68504367827E+00  0.32952374558E+02  0.00000000000E+00 0.  1.
         12    1    4    4    0    0 -0.19967356516E+02 -0.19363322369E+03 -0.22873974846E+02  0.19599933512E+03  0.00000000000E+00 0. -1.
         -5    1    5    5    0  502  0.23528062870E+02  0.15618351629E+03  0.17138501245E+03  0.23311321926E+03  0.47000000000E+01 0.  1.
         11    1    6    6    0    0 -0.76348126689E+01  0.53641999351E+02  0.93709907432E+02  0.10824648359E+03  0.00000000000E+00 0. -1.
        -12    1    6    6    0    0  0.15252488288E+02 -0.19347234419E+02  0.11956209897E+03  0.12207395049E+03  0.00000000000E+00 0.  1.
</event>
<event>
12    1  0.8494789E-002  0.1878485E+03  0.7818608E-02  0.1160645E+00
         21   -1    0    0  501  502  0.00000000000E+00  0.00000000000E+00  0.17175142525E+03  0.17175142525E+03  0.00000000000E+00 0. -1.
         21   -1    0    0  502  503 -0.00000000000E+00 -0.00000000000E+00 -0.67758457990E+03  0.67758457990E+03  0.00000000000E+00 0.  1.
         -6    2    1    2    0  503 -0.70740232981E+02  0.87815660789E+01 -0.60760721987E+03  0.63568907702E+03  0.17272166204E+03 0.  0.
        -24    2    3    3    0    0 -0.77012940605E+02  0.25370686579E+02 -0.60725777321E+03  0.61733811266E+03  0.75958393015E+02 0.  0.
          6    2    1    2  501    0  0.70740232981E+02 -0.87815660789E+01  0.10177406522E+03  0.21364692813E+03  0.17379802382E+03 0.  0.
         24    2    5    5    0    0  0.28460513302E+02  0.49592959015E+02  0.10219368764E+03  0.14141517639E+03  0.79279505041E+02 0.  0.
          5    1    5    5  501    0  0.42279719679E+02 -0.58374525094E+02 -0.41962241678E+00  0.72231751737E+02  0.47000000000E+01 0. -1.
        -13    1    6    6    0    0  0.28665181224E+02 -0.87245451873E+01  0.86591924698E+01  0.31189612334E+02  0.00000000000E+00 0.  1.
         14    1    6    6    0    0 -0.20466792181E+00  0.58317504202E+02  0.93534495170E+02  0.11022556406E+03  0.00000000000E+00 0. -1.
         -5    1    3    3    0  503  0.62727076234E+01 -0.16589120500E+02 -0.34944666656E+00  0.18350964358E+02  0.47000000000E+01 0.  1.
         11    1    4    4    0    0 -0.36463416265E+02 -0.43500853057E+01 -0.84068731605E+02  0.91739062572E+02  0.00000000000E+00 0. -1.
        -12    1    4    4    0    0 -0.40549524340E+02  0.29720771885E+02 -0.52318904160E+03  0.52559905009E+03  0.00000000000E+00 0.  1.
</event>
<event>
12    1  0.8494789E-002  0.4497684E+03  0.7818608E-02  0.1027878E+00
         21   -1    0    0  501  502  0.00000000000E+00  0.00000000000E+00  0.11980696490E+04  0.11980696490E+04  0.00000000000E+00 0. -1.
         21   -1    0    0  502  503 -0.00000000000E+00 -0.00000000000E+00 -0.11310078650E+04  0.11310078650E+04  0.00000000000E+00 0.  1.
         -6    2    1    2    0  503  0.38972392238E+03  0.14116015591E+03 -0.10408200524E+04  0.11333794692E+04  0.17155673819E+03 0.  0.
        -24    2    3    3    0    0  0.10403719899E+03  0.51422491002E+01 -0.29491650590E+03  0.32312520936E+03  0.81141690720E+02 0.  0.
          6    2    1    2  501    0 -0.38972392238E+03 -0.14116015591E+03  0.11078818364E+04  0.11956980448E+04  0.17458730054E+03 0.  0.
         24    2    5    5    0    0 -0.69471882278E+02 -0.31350749004E+02  0.31181921008E+03  0.33062159145E+03  0.79184626465E+02 0.  0.
          5    1    5    5  501    0 -0.32025204011E+03 -0.10980940690E+03  0.79606262634E+03  0.86507645332E+03  0.47000000000E+01 0. -1.
        -11    1    6    6    0    0 -0.24007514826E+02  0.23274413812E+02  0.15323090234E+03  0.15683675762E+03  0.00000000000E+00 0.  1.
         12    1    6    6    0    0 -0.45464367452E+02 -0.54625162816E+02  0.15858830773E+03  0.17378483383E+03  0.00000000000E+00 0. -1.
         -5    1    3    3    0  503  0.28568672340E+03  0.13601790681E+03 -0.74590354653E+03  0.81025425986E+03  0.47000000000E+01 0.  1.
         13    1    4    4    0    0  0.30262812562E+02 -0.22796862629E+02 -0.17863972300E+03  0.18261348637E+03  0.00000000000E+00 0. -1.
        -14    1    4    4    0    0  0.73774386425E+02  0.27939111729E+02 -0.11627678290E+03  0.14051172299E+03  0.00000000000E+00 0.  1.
</event>
<event>
12    1  0.8494789E-002  0.3703173E+03  0.7818608E-02  0.1054776E+00
         21   -1    0    0  501  502  0.00000000000E+00  0.00000000000E+00  0.71352551182E+03  0.71352551182E+03  0.00000000000E+00 0. -1.
         21   -1    0    0  502  503 -0.00000000000E+00 -0.00000000000E+00 -0.19197968270E+03  0.19197968270E+03  0.00000000000E+00 0. -1.
         -6    2    1    2    0  503 -0.32646504316E+03 -0.13175816936E+02  0.29242073757E+03  0.47185250911E+03  0.17430397596E+03 0.  0.
        -24    2    3    3    0    0 -0.29062426231E+03 -0.49518226753E+02  0.27745927820E+03  0.41845524710E+03  0.10586135341E+03 0.  0.
          6    2    1    2  501    0  0.32646504316E+03  0.13175816936E+02  0.22912509155E+03  0.43365268540E+03  0.16971540126E+03 0.  0.
         24    2    5    5    0    0  0.18133202415E+03  0.72107972842E+02  0.13227488623E+03  0.24942824491E+03  0.81467423550E+02 0.  0.
          5    1    5    5  501    0  0.14513301901E+03 -0.58932155906E+02  0.96850205321E+02  0.18422444050E+03  0.47000000000E+01 0. -1.
        -13    1    6    6    0    0 -0.35695151469E+01 -0.79582130455E+01  0.11773403609E+02  0.14652222555E+02  0.00000000000E+00 0.  1.
         14    1    6    6    0    0  0.18490153930E+03  0.80066185888E+02  0.12050148262E+03  0.23477602235E+03  0.00000000000E+00 0. -1.
         -5    1    3    3    0  503 -0.35840780847E+02  0.36342409817E+02  0.14961459369E+02  0.53397262004E+02  0.47000000000E+01 0.  1.
         13    1    4    4    0    0 -0.10213879916E+03 -0.13256398416E+02  0.34063181478E+02  0.10848210325E+03  0.00000000000E+00 0. -1.
        -14    1    4    4    0    0 -0.18848546315E+03 -0.36261828337E+02  0.24339609672E+03  0.30997314386E+03  0.00000000000E+00 0.  1.
</event>
<event>
12    1  0.8494789E-002  0.2933077E+03  0.7818608E-02  0.1088828E+00
         21   -1    0    0  503  502  0.00000000000E+00  0.00000000000E+00  0.29987808728E+03  0.29987808728E+03  0.00000000000E+00 0. -1.
         21   -1    0    0  501  503 -0.00000000000E+00 -0.00000000000E+00 -0.30200401220E+03  0.30200401220E+03  0.00000000000E+00 0.  1.
          6    2    1    2  501    0 -0.17997794330E+03 -0.15232050190E+03  0.69459949133E+02  0.30142009421E+03  0.17445857183E+03 0.  0.
         24    2    3    3    0    0 -0.92360450505E+02 -0.16057162360E+03  0.25494894646E+02  0.20293191182E+03  0.78852216594E+02 0.  0.
         -6    2    1    2    0  502  0.17997794330E+03  0.15232050190E+03 -0.71585874052E+02  0.30046200527E+03  0.17192813578E+03 0.  0.
        -24    2    5    5    0    0  0.18193803309E+03  0.75690392415E+02 -0.61422406468E+02  0.22299329091E+03  0.84396755765E+02 0.  0.
          5    1    3    3  501    0 -0.87617492793E+02  0.82511216999E+01  0.43965054487E+02  0.98488182381E+02  0.47000000000E+01 0. -1.
        -13    1    4    4    0    0 -0.84979398061E+02 -0.14339728501E+03 -0.54543620452E+01  0.16677538640E+03  0.00000000000E+00 0.  1.
         14    1    4    4    0    0 -0.73810524445E+01 -0.17174338584E+02  0.30949256691E+02  0.36156525424E+02  0.00000000000E+00 0. -1.
         -5    1    5    5    0  502 -0.19600897925E+01  0.76630109483E+02 -0.10163467584E+02  0.77468714360E+02  0.47000000000E+01 0.  1.
         13    1    6    6    0    0  0.57598272418E+02  0.68897528033E+02 -0.23616164000E+02  0.92855552105E+02  0.00000000000E+00 0. -1.
        -14    1    6    6    0    0  0.12433976067E+03  0.67928643819E+01 -0.37806242468E+02  0.13013773880E+03  0.00000000000E+00 0.  1.
</event>
<event>
12    1  0.8494789E-002  0.1771011E+03  0.7818608E-02  0.1170750E+00
         21   -1    0    0  501  502  0.00000000000E+00  0.00000000000E+00  0.16318026712E+03  0.16318026712E+03  0.00000000000E+00 0. -1.
         21   -1    0    0  502  503 -0.00000000000E+00 -0.00000000000E+00 -0.33870142923E+03  0.33870142923E+03  0.00000000000E+00 0. -1.
         -6    2    1    2    0  503  0.33668752678E+02  0.78004395795E+01 -0.25300574410E+03  0.30857195539E+03  0.17323485026E+03 0.  0.
        -24    2    3    3    0    0  0.37461575217E+02 -0.42906634588E+02 -0.23424078214E+03  0.25416785012E+03  0.80549383036E+02 0.  0.
          6    2    1    2  501    0 -0.33668752678E+02 -0.78004395795E+01  0.77484581993E+02  0.19330974096E+03  0.17369618228E+03 0.  0.
         24    2    5    5    0    0 -0.46804387143E+02 -0.53385255450E+02  0.50545601036E+01  0.10659919718E+03  0.79354924905E+02 0.  0.
          5    1    5    5  501    0  0.13135634465E+02  0.45584815870E+02  0.72430021890E+02  0.86710543775E+02  0.47000000000E+01 0. -1.
        -11    1    6    6    0    0  0.14984141846E+02 -0.73990709828E+01  0.22105451598E+02  0.27711401058E+02  0.00000000000E+00 0.  1.
         12    1    6    6    0    0 -0.61788528989E+02 -0.45986184467E+02 -0.17050891494E+02  0.78887796124E+02  0.00000000000E+00 0. -1.
         -5    1    3    3    0  503 -0.37928225391E+01  0.50707074168E+02 -0.18764961958E+02  0.54404105275E+02  0.47000000000E+01 0.  1.
         13    1    4    4    0    0 -0.21813417969E+02 -0.22910922361E+02 -0.11795536343E+03  0.12212372140E+03  0.00000000000E+00 0. -1.
        -14    1    4    4    0    0  0.59274993186E+02 -0.19995712227E+02 -0.11628541871E+03  0.13204412872E+03  0.00000000000E+00 0.  1.
</event>
<event>
12    1  0.8494789E-002  0.1799582E+03  0.7818608E-02  0.1167886E+00
         21   -1    0    0  501  502  0.00000000000E+00  0.00000000000E+00  0.37993578697E+02  0.37993578697E+02  0.00000000000E+00 0.  1.
         21   -1    0    0  502  503 -0.00000000000E+00 -0.00000000000E+00 -0.10771685287E+04  0.10771685287E+04  0.00000000000E+00 0.  1.
         -6    2    1    2    0  503  0.35731958909E+02 -0.37165813082E+02 -0.77497097228E+03  0.79559095646E+03  0.17241488212E+03 0.  0.
        -24    2    3    3    0    0  0.48041321564E+02 -0.80664963438E+02 -0.67088798257E+03  0.68201694870E+03  0.79003976232E+02 0.  0.
          6    2    1    2  501    0 -0.35731958909E+02  0.37165813082E+02 -0.26420397771E+03  0.31957115092E+03  0.17223213439E+03 0.  0.
         24    2    5    5    0    0 -0.62578962428E+02  0.12288759493E+02 -0.26342396955E+03  0.28266142583E+03  0.80238106728E+02 0.  0.
          5    1    5    5  501    0  0.26847003520E+02  0.24877053588E+02 -0.78000815359E+00  0.36909725086E+02  0.47000000000E+01 0. -1.
        -13    1    6    6    0    0 -0.35729041233E+02 -0.16983093541E+02 -0.41978510596E+02  0.57681757996E+02  0.00000000000E+00 0.  1.
         14    1    6    6    0    0 -0.26849921196E+02  0.29271853035E+02 -0.22144545896E+03  0.22497966784E+03  0.00000000000E+00 0. -1.
         -5    1    3    3    0  503 -0.12309362655E+02  0.43499150356E+02 -0.10408298972E+03  0.11357400776E+03  0.47000000000E+01 0.  1.
         11    1    4    4    0    0  0.11157241685E+02 -0.68478059679E+02 -0.25343099204E+03  0.26275653450E+03  0.00000000000E+00 0. -1.
        -12    1    4    4    0    0  0.36884079879E+02 -0.12186903759E+02 -0.41745699053E+03  0.41926041420E+03  0.00000000000E+00 0.  1.
</event>
<event>
12    1  0.8494789E-002  0.2182419E+03  0.7818608E-02  0.1135969E+00
         21   -1    0    0  503  502  0.00000000000E+00  0.00000000000E+00  0.22269867860E+03  0.22269867860E+03  0.00000000000E+00 0.  1.
         21   -1    0    0  501  503 -0.00000000000E+00 -0.00000000000E+00 -0.46789778523E+03  0.46789778523E+03  0.00000000000E+00 0.  1.
          6    2    1    2  501    0  0.11240526144E+02  0.12712180760E+03 -0.37949650698E+03  0.43777520096E+03  0.17704017727E+03 0.  0.
         24    2    3    3    0    0 -0.92951357760E+01  0.15857330097E+03 -0.27057601874E+03  0.32246400200E+03  0.74429559595E+02 0.  0.
         -6    2    1    2    0  502 -0.11240526144E+02 -0.12712180760E+03  0.13429740035E+03  0.25282126288E+03  0.17203632124E+03 0.  0.
        -24    2    5    5    0    0  0.48787201818E+02 -0.99042040998E+02  0.12746506583E+03  0.18603374749E+03  0.78560137803E+02 0.  0.
          5    1    3    3  501    0  0.20535661920E+02 -0.31451493368E+02 -0.10892048825E+03  0.11531119896E+03  0.47000000000E+01 0. -1.
        -11    1    4    4    0    0 -0.38736776942E+02  0.11675352583E+03 -0.17270042458E+03  0.21203150788E+03  0.00000000000E+00 0.  1.
         12    1    4    4    0    0  0.29441641166E+02  0.41819775136E+02 -0.97875594153E+02  0.11043249412E+03  0.00000000000E+00 0. -1.
         -5    1    5    5    0  502 -0.60027727962E+02 -0.28079766601E+02  0.68323345183E+01  0.66787515388E+02  0.47000000000E+01 0.  1.
         11    1    6    6    0    0 -0.13102377645E+02 -0.11494346881E+02  0.52214736464E+02  0.55046989148E+02  0.00000000000E+00 0. -1.
        -12    1    6    6    0    0  0.61889579464E+02 -0.87547694116E+02  0.75250329368E+02  0.13098675834E+03  0.00000000000E+00 0.  1.
</event>
<event>
12    1  0.8494789E-002  0.1813599E+03  0.7818608E-02  0.1166626E+00
         21   -1    0    0  501  502  0.00000000000E+00  0.00000000000E+00  0.30954291305E+03  0.30954291305E+03  0.00000000000E+00 0. -1.
         21   -1    0    0  502  503 -0.00000000000E+00 -0.00000000000E+00 -0.10648383956E+03  0.10648383956E+03  0.00000000000E+00 0. -1.
         -6    2    1    2    0  503 -0.46738591049E+02 -0.29216863923E+02  0.11630404629E+03  0.21498487819E+03  0.17220262959E+03 0.  0.
        -24    2    3    3    0    0 -0.89193518353E+02 -0.23709124411E+02  0.12104156477E+03  0.17165717195E+03  0.79356902551E+02 0.  0.
          6    2    1    2  501    0  0.46738591049E+02  0.29216863923E+02  0.86755027200E+02  0.20104187441E+03  0.17278101601E+03 0.  0.
         24    2    5    5    0    0 -0.43941205998E-01  0.13843248472E+02 -0.19322658989E+02  0.83996930553E+02  0.80563526070E+02 0.  0.
          5    1    5    5  501    0  0.46782532255E+02  0.15373615451E+02  0.10607768619E+03  0.11704494386E+03  0.47000000000E+01 0. -1.
        -11    1    6    6    0    0 -0.36422669482E+02  0.12496227915E+02  0.69158431861E+01  0.39122825195E+02  0.00000000000E+00 0.  1.
         12    1    6    6    0    0  0.36378728276E+02  0.13470205566E+01 -0.26238502175E+02  0.44874105358E+02  0.00000000000E+00 0. -1.
         -5    1    3    3    0  503  0.42454927304E+02 -0.55077395122E+01 -0.47375184838E+01  0.43327706243E+02  0.47000000000E+01 0.  1.
         13    1    4    4    0    0 -0.22268136674E+02  0.17418763319E+02  0.11139945755E+01  0.28293536548E+02  0.00000000000E+00 0. -1.
        -14    1    4    4    0    0 -0.66925381679E+02 -0.41127887730E+02  0.11992757020E+03  0.14336363540E+03  0.00000000000E+00 0.  1.
</event>
<event>
12    1  0.8494789E-002  0.2193056E+03  0.7818608E-02  0.1134574E+00
         21   -1    0    0  501  502  0.00000000000E+00  0.00000000000E+00  0.17708363837E+03  0.17708363837E+03  0.00000000000E+00 0. -1.
         21   -1    0    0  502  503 -0.00000000000E+00 -0.00000000000E+00 -0.32929619222E+03  0.32929619222E+03  0.00000000000E+00 0. -1.
         -6    2    1    2    0  503 -0.59195516636E+02  0.12039801789E+03 -0.18299764578E+03  0.28492399539E+03  0.17231875372E+03 0.  0.
        -24    2    3    3    0    0 -0.81854309077E+02  0.11271535590E+03 -0.19933657168E+03  0.25557276595E+03  0.78597013415E+02 0.  0.
          6    2    1    2  501    0  0.59195516636E+02 -0.12039801789E+03  0.30785091929E+02  0.22145583520E+03  0.17347960444E+03 0.  0.
         24    2    5    5    0    0  0.59446596284E+02 -0.40543207804E+01  0.32851351662E+02  0.10499863994E+03  0.79969792771E+02 0.  0.
          5    1    5    5  501    0 -0.25107964730E+00 -0.11634369711E+03 -0.20662597336E+01  0.11645719526E+03  0.47000000000E+01 0. -1.
        -11    1    6    6    0    0  0.55527511654E+02 -0.80144976400E+01 -0.13995015514E+02  0.57822116721E+02  0.00000000000E+00 0.  1.
         12    1    6    6    0    0  0.39190846298E+01  0.39601768595E+01  0.46846367176E+02  0.47176523216E+02  0.00000000000E+00 0. -1.
         -5    1    3    3    0  503  0.22658792441E+02  0.76826619899E+01  0.16338925893E+02  0.29351229437E+02  0.47000000000E+01 0.  1.
         11    1    4    4    0    0  0.12541851205E+02  0.18328063939E+02 -0.53174744097E+02  0.57626117075E+02  0.00000000000E+00 0. -1.
        -12    1    4    4    0    0 -0.94396160282E+02  0.94387291963E+02 -0.14616182758E+03  0.19794664888E+03  0.00000000000E+00 0.  1.
</event>
<event>
12    1  0.8494789E-002  0.2031642E+03  0.7818608E-02  0.1147441E+00
         21   -1    0    0  503  502  0.00000000000E+00  0.00000000000E+00  0.23566780041E+04  0.23566780041E+04  0.00000000000E+00 0.  1.
         21   -1    0    0  501  503 -0.00000000000E+00 -0.00000000000E+00 -0.47373764956E+02  0.47373764956E+02  0.00000000000E+00 0.  1.
          6    2    1    2  501    0 -0.87137664850E+02  0.55684822708E+02  0.19633408687E+03  0.28133686554E+03  0.17294388144E+03 0.  0.
         24    2    3    3    0    0 -0.11541548961E+03  0.13507804940E+02  0.16695287880E+03  0.22248211561E+03  0.90121207216E+02 0.  0.
         -6    2    1    2    0  502  0.87137664850E+02 -0.55684822708E+02  0.21129701522E+04  0.21227149035E+04  0.17487688558E+03 0.  0.
        -24    2    5    5    0    0  0.54006661501E+02 -0.10207310937E+03  0.12520558938E+04  0.12599026487E+04  0.79844123193E+02 0.  0.
          5    1    3    3  501    0  0.28277824762E+02  0.42177017768E+02  0.29381208068E+02  0.58854749924E+02  0.47000000000E+01 0. -1.
        -13    1    4    4    0    0 -0.68349934211E+02  0.93562372989E+00  0.25638297424E+02  0.73006240783E+02  0.00000000000E+00 0.  1.
         14    1    4    4    0    0 -0.47065555401E+02  0.12572181210E+02  0.14131458138E+03  0.14947587483E+03  0.00000000000E+00 0. -1.
         -5    1    5    5    0  502  0.33131003350E+02  0.46388286658E+02  0.86091425847E+03  0.86281225476E+03  0.47000000000E+01 0.  1.
         13    1    6    6    0    0  0.71618245615E+01 -0.18801787687E+01  0.78527968195E+01  0.10793202543E+02  0.00000000000E+00 0. -1.
        -14    1    6    6    0    0  0.46844836939E+02 -0.10019293060E+03  0.12442030969E+04  0.12491094462E+04  0.00000000000E+00 0.  1.
</event>
<event>
12    1  0.8494789E-002  0.1836472E+03  0.7818608E-02  0.1165086E+00
         21   -1    0    0  503  502  0.00000000000E+00  0.00000000000E+00  0.15521363083E+03  0.15521363083E+03  0.00000000000E+00 0. -1.
         21   -1    0    0  501  503 -0.00000000000E+00 -0.00000000000E+00 -0.47210437160E+03  0.47210437160E+03  0.00000000000E+00 0. -1.
          6    2    1    2  501    0 -0.18667225992E+02  0.52757578660E+02 -0.39122048591E+03  0.43218024251E+03  0.17491273821E+03 0.  0.
         24    2    3    3    0    0 -0.33744889090E+02 -0.21743628267E+02 -0.11377033906E+03  0.14446781708E+03  0.79471738456E+02 0.  0.
         -6    2    1    2    0  502  0.18667225992E+02 -0.52757578660E+02  0.74329745147E+02  0.19513775992E+03  0.17152844342E+03 0.  0.
        -24    2    5    5    0    0  0.79124350555E+02 -0.36351214490E+02  0.52634789958E+02  0.12867729215E+03  0.78774048742E+02 0.  0.
          5    1    3    3  501    0  0.15077663098E+02  0.74501206927E+02 -0.27745014685E+03  0.28771242543E+03  0.47000000000E+01 0. -1.
        -13    1    4    4    0    0 -0.12170091328E+02 -0.25239433644E+02  0.60106618684E+00  0.28026798144E+02  0.00000000000E+00 0.  1.
         14    1    4    4    0    0 -0.21574797762E+02  0.34958053774E+01 -0.11437140525E+03  0.11644101894E+03  0.00000000000E+00 0. -1.
         -5    1    5    5    0  502 -0.60457124563E+02 -0.16406364170E+02  0.21694955189E+02  0.66460467771E+02  0.47000000000E+01 0.  1.
         13    1    6    6    0    0  0.25088077910E+02 -0.29762895106E+01  0.59649252721E+02  0.64778880066E+02  0.00000000000E+00 0. -1.
        -14    1    6    6    0    0  0.54036272646E+02 -0.33374924979E+02 -0.70144627632E+01  0.63898412083E+02  0.00000000000E+00 0.  1.
</event>
<event>
12    1  0.8494789E-002  0.3549733E+03  0.7818608E-02  0.1060813E+00
         21   -1    0    0  503  502  0.00000000000E+00  0.00000000000E+00  0.24494850225E+04  0.24494850225E+04  0.00000000000E+00 0. -1.
         21   -1    0    0  501  503 -0.00000000000E+00 -0.00000000000E+00 -0.69437515111E+02  0.69437515111E+02  0.00000000000E+00 0.  1.
          6    2    1    2  501    0 -0.21052121192E+03 -0.22856762403E+03  0.54596144061E+03  0.65121420641E+03  0.17159169146E+03 0.  0.
         24    2    3    3    0    0 -0.10369704644E+03 -0.17511526072E+03  0.23839985115E+03  0.32123726967E+03  0.70288423067E+02 0.  0.
         -6    2    1    2    0  502  0.21052121192E+03  0.22856762403E+03  0.18340860668E+04  0.18677083312E+04  0.16703404041E+03 0.  0.
        -24    2    5    5    0    0  0.76051743722E+02  0.10530098106E+03  0.11358446101E+04  0.11460159279E+04  0.79607564871E+02 0.  0.
          5    1    3    3  501    0 -0.10682416548E+03 -0.53452363313E+02  0.30756158946E+03  0.32997693675E+03  0.47000000000E+01 0. -1.
        -13    1    4    4    0    0 -0.81251528314E+02 -0.12591482273E+03  0.21556583681E+03  0.26253568031E+03  0.00000000000E+00 0.  1.
         14    1    4    4    0    0 -0.22445518126E+02 -0.49200437989E+02  0.22834014345E+02  0.58701589360E+02  0.00000000000E+00 0. -1.
         -5    1    5    5    0  502  0.13446946820E+03  0.12326664297E+03  0.69824145666E+03  0.72169240328E+03  0.47000000000E+01 0.  1.
         13    1    6    6    0    0  0.78072108626E+02  0.11663917771E+03  0.10226334582E+04  0.10322204909E+04  0.00000000000E+00 0. -1.
        -14    1    6    6    0    0 -0.20203649037E+01 -0.11338196653E+02  0.11321115187E+03  0.11379543701E+03  0.00000000000E+00 0.  1.
</event>
<event>
12    1  0.8494789E-002  0.2001856E+03  0.7818608E-02  0.1149664E+00
         21   -1    0    0  501  502  0.00000000000E+00  0.00000000000E+00  0.19126927068E+03  0.19126927068E+03  0.00000000000E+00 0.  1.
         21   -1    0    0  502  503 -0.00000000000E+00 -0.00000000000E+00 -0.22478163788E+03  0.22478163788E+03  0.00000000000E+00 0.  1.
         -6    2    1    2    0  503 -0.97315773115E+02  0.30894395275E+02  0.38178156163E+02  0.20341557266E+03  0.17174254056E+03 0.  0.
        -24    2    3    3    0    0 -0.37156148994E+02 -0.47908570623E+02  0.25259228798E+02  0.10332523100E+03  0.79763802413E+02 0.  0.
          6    2    1    2  501    0  0.97315773115E+02 -0.30894395275E+02 -0.71690523365E+02  0.21263533590E+03  0.17219010302E+03 0.  0.
         24    2    5    5    0    0  0.11006845848E+03 -0.18277789657E+02  0.20899415560E+01  0.13656000005E+03  0.78709101189E+02 0.  0.
          5    1    5    5  501    0 -0.12752685367E+02 -0.12616605618E+02 -0.73780464921E+02  0.76075335854E+02  0.47000000000E+01 0. -1.
        -13    1    6    6    0    0  0.74781867084E+02 -0.39660308780E+02 -0.23700201233E+02  0.87903169883E+02  0.00000000000E+00 0.  1.
         14    1    6    6    0    0  0.35286591398E+02  0.21382519123E+02  0.25790142789E+02  0.48656830164E+02  0.00000000000E+00 0. -1.
         -5    1    3    3    0  503 -0.60159624121E+02  0.78802965898E+02  0.12918927365E+02  0.10009034166E+03  0.47000000000E+01 0.  1.
         13    1    4    4    0    0  0.21406094619E+02 -0.19175697114E+02  0.25003718509E+02  0.38093492698E+02  0.00000000000E+00 0. -1.
        -14    1    4    4    0    0 -0.58562243612E+02 -0.28732873509E+02  0.25551028923E+00  0.65231738307E+02  0.00000000000E+00 0.  1.
</event>
<event>
12    1  0.8494789E-002  0.1878944E+03  0.7818608E-02  0.1160674E+00
         21   -1    0    0  501  502  0.00000000000E+00  0.00000000000E+00  0.66574806476E+02  0.66574806476E+02  0.00000000000E+00 0.  1.
         21   -1    0    0  502  503 -0.00000000000E+00 -0.00000000000E+00 -0.68211575535E+03  0.68211575535E+03  0.00000000000E+00 0.  1.
         -6    2    1    2    0  503 -0.64067825423E+02  0.41853516179E+02 -0.48733396198E+03  0.52230134139E+03  0.17160389753E+03 0.  0.
        -24    2    3    3    0    0 -0.74237398616E+02 -0.23924502254E+02 -0.22044964681E+03  0.24720227631E+03  0.80170727011E+02 0.  0.
          6    2    1    2  501    0  0.64067825423E+02 -0.41853516179E+02 -0.12820698689E+03  0.22638922043E+03  0.17017239662E+03 0.  0.
         24    2    5    5    0    0  0.84405513840E+02 -0.66983458549E+02 -0.53828493721E+02  0.14515261649E+03  0.80998153389E+02 0.  0.
          5    1    5    5  501    0 -0.20337688417E+02  0.25129942370E+02 -0.74378493170E+02  0.81236603942E+02  0.47000000000E+01 0. -1.
        -11    1    6    6    0    0  0.35315538743E+02 -0.63748323964E+02 -0.88784631464E+00  0.72882263659E+02  0.00000000000E+00 0.  1.
         12    1    6    6    0    0  0.49089975097E+02 -0.32351345847E+01 -0.52940647406E+02  0.72270352833E+02  0.00000000000E+00 0. -1.
         -5    1    3    3    0  503  0.10169573192E+02  0.65778018433E+02 -0.26688431517E+03  0.27509906508E+03  0.47000000000E+01 0.  1.
         11    1    4    4    0    0  0.15837165381E+02 -0.13844113233E+02 -0.36255409596E+02  0.41915748871E+02  0.00000000000E+00 0. -1.
        -12    1    4    4    0    0 -0.90074563996E+02 -0.10080389021E+02 -0.18419423722E+03  0.20528652744E+03  0.00000000000E+00 0.  1.
</event>
<event>
12    1  0.8494789E-002  0.3205273E+03  0.7818608E-02  0.1075524E+00
         21   -1    0    0  501  502  0.00000000000E+00  0.00000000000E+00  0.15145497716E+03  0.15145497716E+03  0.00000000000E+00 0. -1.
         21   -1    0    0  502  503 -0.00000000000E+00 -0.00000000000E+00 -0.72546730262E+03  0.72546730262E+03  0.00000000000E+00 0.  1.
         -6    2    1    2    0  503  0.16013475231E+03 -0.21732057529E+03 -0.40169994532E+03  0.51390715966E+03  0.17281883966E+03 0.  0.
        -24    2    3    3    0    0  0.11772448775E+03 -0.23490532809E+03 -0.33952564736E+03  0.43647598121E+03  0.78702279331E+02 0.  0.
          6    2    1    2  501    0 -0.16013475231E+03  0.21732057529E+03 -0.17231238014E+03  0.36301512011E+03  0.17092995565E+03 0.  0.
         24    2    5    5    0    0 -0.17807155343E+03  0.22253492315E+03 -0.17486366837E+03  0.34358531492E+03  0.79008201767E+02 0.  0.
          5    1    5    5  501    0  0.17936801122E+02 -0.52143478630E+01  0.25512882359E+01  0.19429805192E+02  0.47000000000E+01 0. -1.
        -11    1    6    6    0    0 -0.13856085198E+03  0.19653386634E+03 -0.17303234399E+03  0.29625135001E+03  0.00000000000E+00 0.  1.
         12    1    6    6    0    0 -0.39510701450E+02  0.26001056815E+02 -0.18313243871E+01  0.47333964904E+02  0.00000000000E+00 0. -1.
         -5    1    3    3    0  503  0.42410264554E+02  0.17584752799E+02 -0.62174297957E+02  0.77431178455E+02  0.47000000000E+01 0.  1.
         11    1    4    4    0    0  0.99355341959E+02 -0.11471742558E+03 -0.17041121220E+03  0.22819192131E+03  0.00000000000E+00 0. -1.
        -12    1    4    4    0    0  0.18369145794E+02 -0.12018790251E+03 -0.16911443516E+03  0.20828405990E+03  0.00000000000E+00 0.  1.
</event>
<event>
12    1  0.8494789E-002  0.2040780E+03  0.7818608E-02  0.1147218E+00
         21   -1    0    0  503  502  0.00000000000E+00  0.00000000000E+00  0.39678566449E+03  0.39678566449E+03  0.00000000000E+00 0.  1.
         21   -1    0    0  501  503 -0.00000000000E+00 -0.00000000000E+00 -0.20474692767E+03  0.20474692767E+03  0.00000000000E+00 0. -1.
          6    2    1    2  501    0 -0.10300281686E+03 -0.20400655086E+02 -0.11569277425E+03  0.23459034204E+03  0.17499155281E+03 0.  0.
         24    2    3    3    0    0 -0.92650287685E+02 -0.26347618211E+02  0.62622317965E+01  0.11196222645E+03  0.56727875088E+02 0.  0.
         -6    2    1    2    0  502  0.10300281686E+03  0.20400655086E+02  0.30773151107E+03  0.36694225012E+03  0.17006517870E+03 0.  0.
        -24    2    5    5    0    0 -0.11659981154E+02 -0.11578297418E+02  0.13697152031E+03  0.15873255991E+03  0.78516342685E+02 0.  0.
          5    1    3    3  501    0 -0.10352529171E+02  0.59469631256E+01 -0.12195500605E+03  0.12262811558E+03  0.47000000000E+01 0. -1.
        -13    1    4    4    0    0 -0.50285812157E+02  0.12603108299E+02 -0.85401688827E+01  0.52539848949E+02  0.00000000000E+00 0.  1.
         14    1    4    4    0    0 -0.42364475528E+02 -0.38950726510E+02  0.14802400679E+02  0.59422377505E+02  0.00000000000E+00 0. -1.
         -5    1    5    5    0  502  0.11466279801E+03  0.31978952503E+02  0.17075999076E+03  0.20820969021E+03  0.47000000000E+01 0.  1.
         11    1    6    6    0    0  0.79005504839E+00  0.20576103495E+02  0.35092807469E+01  0.20888161082E+02  0.00000000000E+00 0. -1.
        -12    1    6    6    0    0 -0.12450036202E+02 -0.32154400913E+02  0.13346223957E+03  0.13784439883E+03  0.00000000000E+00 0.  1.
</event>
<event>
12    1  0.8494789E-002  0.2063978E+03  0.7818608E-02  0.1146520E+00
         21   -1    0    0  501  502  0.00000000000E+00  0.00000000000E+00  0.49803606402E+02  0.49803606402E+02  0.00000000000E+00 0. -1.
         21   -1    0    0  502  503 -0.00000000000E+00 -0.00000000000E+00 -0.82701894071E+03  0.82701894071E+03  0.00000000000E+00 0.  1.
         -6    2    1    2    0  503 -0.94214005223E+02 -0.48763128825E+01 -0.43282175218E+03  0.47531662745E+03  0.17231125897E+03 0.  0.
        -24    2    3    3    0    0  0.10309076465E+02  0.30907675486E+02 -0.19010205612E+03  0.20859484491E+03  0.79444673329E+02 0.  0.
          6    2    1    2  501    0  0.94214005223E+02  0.48763128825E+01 -0.34439358213E+03  0.40150591966E+03  0.18357561630E+03 0.  0.
         24    2    5    5    0    0  0.12100825343E+03 -0.18766445510E+01 -0.34492985611E+03  0.37347180187E+03  0.76537977259E+02 0.  0.
          5    1    5    5  501    0 -0.26794248202E+02  0.67529574335E+01  0.53627397405E+00  0.28034117796E+02  0.47000000000E+01 0. -1.
        -13    1    6    6    0    0  0.91062911443E+02  0.16995148506E+02 -0.15744681831E+03  0.18267673500E+03  0.00000000000E+00 0.  1.
         14    1    6    6    0    0  0.29945341982E+02 -0.18871793057E+02 -0.18748303780E+03  0.19079506687E+03  0.00000000000E+00 0. -1.
         -5    1    3    3    0  503 -0.10452308169E+03 -0.35783988369E+02 -0.24271969605E+03  0.26672178254E+03  0.47000000000E+01 0.  1.
         13    1    4    4    0    0 -0.11342687794E+02  0.42364525384E+02 -0.50611140116E+02  0.66969374204E+02  0.00000000000E+00 0. -1.
        -14    1    4    4    0    0  0.21651764259E+02 -0.11456849898E+02 -0.13949091601E+03  0.14162547071E+03  0.00000000000E+00 0.  1.
</event>
<event>
12    1  0.8494789E-002  0.1784811E+03  0.7818608E-02  0.1169399E+00
         21   -1    0    0  503  502  0.00000000000E+00  0.00000000000E+00  0.15189331182E+03  0.15189331182E+03  0.00000000000E+00 0.  1.
         21   -1    0    0  501  503 -0.00000000000E+00 -0.00000000000E+00 -0.22929764717E+03  0.22929764717E+03  0.00000000000E+00 0.  1.
          6    2    1    2  501    0 -0.16631966157E+02 -0.42744117408E+02 -0.95136828302E+02  0.20183113684E+03  0.17199159813E+03 0.  0.
         24    2    3    3    0    0 -0.42212611521E+02  0.31613316617E+02 -0.32206519307E+02  0.10100598521E+03  0.79897702112E+02 0.  0.
         -6    2    1    2    0  502  0.16631966157E+02  0.42744117408E+02  0.17732492954E+02  0.17935982214E+03  0.17248716654E+03 0.  0.
        -24    2    5    5    0    0  0.71504774346E+02  0.28081902956E+02  0.39631033049E+02  0.11830540650E+03  0.80771433061E+02 0.  0.
          5    1    3    3  501    0  0.25580645364E+02 -0.74357434025E+02 -0.62930308995E+02  0.10082515164E+03  0.47000000000E+01 0. -1.
        -11    1    4    4    0    0  0.44414617384E+01 -0.18185574025E+02 -0.26614035320E+02  0.32538416694E+02  0.00000000000E+00 0.  1.
         12    1    4    4    0    0 -0.46654073260E+02  0.49798890641E+02 -0.55924839876E+01  0.68467568512E+02  0.00000000000E+00 0. -1.
         -5    1    5    5    0  502 -0.54872808190E+02  0.14662214452E+02 -0.21898540095E+02  0.61054415643E+02  0.47000000000E+01 0.  1.
         13    1    6    6    0    0  0.24598449164E+01 -0.11364111274E+02  0.36955967317E+02  0.38741933127E+02  0.00000000000E+00 0. -1.
        -14    1    6    6    0    0  0.69044929430E+02  0.39446014230E+02  0.26750657314E+01  0.79563473374E+02  0.00000000000E+00 0.  1.
</event>
<event>
12    1  0.8494789E-002  0.2184515E+03  0.7818608E-02  0.1135069E+00
         21   -1    0    0  501  502  0.00000000000E+00  0.00000000000E+00  0.17020834685E+03  0.17020834685E+03  0.00000000000E+00 0.  1.
         21   -1    0    0  502  503 -0.00000000000E+00 -0.00000000000E+00 -0.32053191361E+03  0.32053191361E+03  0.00000000000E+00 0.  1.
         -6    2    1    2    0  503 -0.13422581877E+03 -0.14354439558E+02 -0.16218753147E+03  0.27196681337E+03  0.17157660636E+03 0.  0.
        -24    2    3    3    0    0  0.16460569009E+01  0.12922871627E+02 -0.64545955036E+02  0.10237558201E+03  0.78389217155E+02 0.  0.
          6    2    1    2  501    0  0.13422581877E+03  0.14354439558E+02  0.11863964704E+02  0.21877344709E+03  0.17175111975E+03 0.  0.
         24    2    5    5    0    0  0.94271810029E+01  0.26754218622E+01 -0.29872070996E+02  0.86580080697E+02  0.80670565413E+02 0.  0.
          5    1    5    5  501    0  0.12479863777E+03  0.11679017696E+02  0.41736035700E+02  0.13219336640E+03  0.47000000000E+01 0. -1.
        -13    1    6    6    0    0 -0.60499447566E+01 -0.10766686601E+02  0.25065299339E+02  0.27942666352E+02  0.00000000000E+00 0.  1.
         14    1    6    6    0    0  0.15477125759E+02  0.13442108463E+02 -0.54937370335E+02  0.58637414345E+02  0.00000000000E+00 0. -1.
         -5    1    3    3    0  503 -0.13587187567E+03 -0.27277311185E+02 -0.97641576436E+02  0.16959123136E+03  0.47000000000E+01 0.  1.
         13    1    4    4    0    0 -0.22953145537E+02  0.37109807381E+02 -0.26652346786E+02  0.51130541588E+02  0.00000000000E+00 0. -1.
        -14    1    4    4    0    0  0.24599202438E+02 -0.24186935754E+02 -0.37893608250E+02  0.51245040423E+02  0.00000000000E+00 0.  1.
</event>
<event>
12    1  0.8494789E-002  0.2315368E+03  0.7818608E-02  0.1125719E+00
         21   -1    0    0  503  502  0.00000000000E+00  0.00000000000E+00  0.38524084313E+03  0.38524084313E+03  0.00000000000E+00 0.  1.
         21   -1    0    0  501  503 -0.00000000000E+00 -0.00000000000E+00 -0.20194785947E+03  0.20194785947E+03  0.00000000000E+00 0. -1.
          6    2    1    2  501    0  0.78451715385E+02  0.13420047515E+03  0.25593252586E+03  0.34452476289E+03  0.17038607712E+03 0.  0.
         24    2    3    3    0    0  0.11800805730E+03  0.85859553987E+02  0.16708890479E+03  0.23581952912E+03  0.79964889858E+02 0.  0.
         -6    2    1    2    0  502 -0.78451715385E+02 -0.13420047515E+03 -0.72639542197E+02  0.24266393972E+03  0.17159500392E+03 0.  0.
        -24    2    5    5    0    0 -0.44722047025E+02 -0.15126229399E+03 -0.93079135677E+02  0.19943590285E+03  0.78934218004E+02 0.  0.
          5    1    3    3  501    0 -0.39556341919E+02  0.48340921166E+02  0.88843621068E+02  0.10870523377E+03  0.47000000000E+01 0. -1.
        -11    1    4    4    0    0  0.59884994525E+01  0.17900522479E+02  0.70660208005E+02  0.73137923309E+02  0.00000000000E+00 0.  1.
         12    1    4    4    0    0  0.11201955785E+03  0.67959031508E+02  0.96428696784E+02  0.16268160581E+03  0.00000000000E+00 0. -1.
         -5    1    5    5    0  502 -0.33729668359E+02  0.17061818842E+02  0.20439593479E+02  0.43228036868E+02  0.47000000000E+01 0.  1.
         13    1    6    6    0    0 -0.65801060070E+02 -0.10490029046E+03 -0.77891500809E+02  0.14629058871E+03  0.00000000000E+00 0. -1.
        -14    1    6    6    0    0  0.21079013045E+02 -0.46362003532E+02 -0.15187634868E+02  0.53145314143E+02  0.00000000000E+00 0.  1.
</event>
<event>
12    1  0.8494789E-002  0.1952053E+03  0.7818608E-02  0.1153855E+00
         21   -1    0    0  503  502  0.00000000000E+00  0.00000000000E+00  0.70032620566E+02  0.70032620566E+02  0.00000000000E+00 0.  1.
         21   -1    0    0  501  503 -0.00000000000E+00 -0.00000000000E+00 -0.71644223815E+03  0.71644223815E+03  0.00000000000E+00 0.  1.
          6    2    1    2  501    0 -0.75420959823E+02  0.53511966226E+02 -0.51613701875E+03  0.55181746237E+03  0.17191055218E+03 0.  0.
         24    2    3    3    0    0 -0.50166327835E+02  0.45397641697E+02 -0.15112102221E+03  0.18580871053E+03  0.84319079894E+02 0.  0.
         -6    2    1    2    0  502  0.75420959823E+02 -0.53511966226E+02 -0.13027259884E+03  0.23465739634E+03  0.17187580383E+03 0.  0.
        -24    2    5    5    0    0  0.75462462755E+02 -0.92092403103E+02 -0.73644343468E+02  0.16597478473E+03  0.89154617638E+02 0.  0.
          5    1    3    3  501    0 -0.25254631988E+02  0.81143245283E+01 -0.36501599654E+03  0.36600875185E+03  0.47000000000E+01 0. -1.
        -11    1    4    4    0    0 -0.43917325536E+02  0.70026034610E+02 -0.11339217394E+03  0.14032163809E+03  0.00000000000E+00 0.  1.
         12    1    4    4    0    0 -0.62490022994E+01 -0.24628392913E+02 -0.37728848271E+02  0.45487072439E+02  0.00000000000E+00 0. -1.
         -5    1    5    5    0  502 -0.41502932507E-01  0.38580436878E+02 -0.56628255369E+02  0.68682611615E+02  0.47000000000E+01 0.  1.
         11    1    6    6    0    0  0.10277180730E+02  0.17896028412E+02 -0.69840417543E+01  0.21786810595E+02  0.00000000000E+00 0. -1.
        -12    1    6    6    0    0  0.65185282026E+02 -0.10998843152E+03 -0.66660301714E+02  0.14418797413E+03  0.00000000000E+00 0.  1.
</event>
<event>
12    1  0.8494789E-002  0.2171783E+03  0.7818608E-02  0.1136260E+00
         21   -1    0    0  501  502  0.00000000000E+00  0.00000000000E+00  0.20224482712E+03  0.20224482712E+03  0.00000000000E+00 0.  1.
         21   -1    0    0  502  503 -0.00000000000E+00 -0.00000000000E+00 -0.27015404739E+03  0.27015404739E+03  0.00000000000E+00 0. -1.
         -6    2    1    2    0  503  0.48641757386E+02  0.12257487088E+03 -0.12289323963E+03  0.24836841536E+03  0.17086106013E+03 0.  0.
        -24    2    3    3    0    0  0.20006496594E+01  0.36879525307E+02  0.42616831782E+01  0.88026438397E+02  0.79789660530E+02 0.  0.
          6    2    1    2  501    0 -0.48641757386E+02 -0.12257487088E+03  0.54984019349E+02  0.22403045915E+03  0.17255661305E+03 0.  0.
         24    2    5    5    0    0 -0.55311867414E+02 -0.14637729052E+03  0.12403751686E+02  0.17457123612E+03  0.76390768879E+02 0.  0.
          5    1    5    5  501    0  0.66701100286E+01  0.23802419632E+02  0.42580267662E+02  0.49459223026E+02  0.47000000000E+01 0. -1.
        -11    1    6    6    0    0 -0.46643237380E+02 -0.43723277508E+02  0.29037797156E+02  0.70217592190E+02  0.00000000000E+00 0.  1.
         12    1    6    6    0    0 -0.86686300342E+01 -0.10265401301E+03 -0.16634045469E+02  0.10435364393E+03  0.00000000000E+00 0. -1.
         -5    1    3    3    0  503  0.46641107726E+02  0.85695345578E+02 -0.12715492281E+03  0.16034197697E+03  0.47000000000E+01 0.  1.
         13    1    4    4    0    0  0.13418945721E+02  0.17053667933E+02 -0.35816688954E+02  0.41877570391E+02  0.00000000000E+00 0. -1.
        -14    1    4    4    0    0 -0.11418296061E+02  0.19825857374E+02  0.40078372132E+02  0.46148868006E+02  0.00000000000E+00 0.  1.
</event>
<event>
12    1  0.8494789E-002  0.1770846E+03  0.7818608E-02  0.1170768E+00
         21   -1    0    0  501  502  0.00000000000E+00  0.00000000000E+00  0.11789166693E+04  0.11789166693E+04  0.00000000000E+00 0.  1.
         21   -1    0    0  502  503 -0.00000000000E+00 -0.00000000000E+00 -0.33653362887E+02  0.33653362887E+02  0.00000000000E+00 0.  1.
         -6    2    1    2    0  503 -0.31306690355E+02 -0.22038862506E+02  0.29313991758E+03  0.34224064468E+03  0.17242919495E+03 0.  0.
        -24    2    3    3    0    0  0.17718605753E+01 -0.77225383532E+02  0.18749739277E+03  0.21845786848E+03  0.81250653262E+02 0.  0.
          6    2    1    2  501    0  0.31306690355E+02  0.22038862506E+02  0.85212338885E+03  0.87032938752E+03  0.17289636387E+03 0.  0.
         24    2    5    5    0    0  0.11667303774E+02 -0.33400327704E+02  0.72612807075E+03  0.73120311574E+03  0.78385671347E+02 0.  0.
          5    1    5    5  501    0  0.19639386582E+02  0.55439190209E+02  0.12599531810E+03  0.13912627178E+03  0.47000000000E+01 0. -1.
        -13    1    6    6    0    0 -0.30216404190E+02 -0.23136947452E+02  0.46334541141E+03  0.46490571054E+03  0.00000000000E+00 0.  1.
         14    1    6    6    0    0  0.41883707963E+02 -0.10263380251E+02  0.26278265934E+03  0.26629740520E+03  0.00000000000E+00 0. -1.
         -5    1    3    3    0  503 -0.33078550930E+02  0.55186521027E+02  0.10564252481E+03  0.12378277620E+03  0.47000000000E+01 0.  1.
         11    1    4    4    0    0 -0.53018826558E+01  0.15813769764E+02  0.46326375694E+02  0.49237367504E+02  0.00000000000E+00 0. -1.
        -12    1    4    4    0    0  0.70737432311E+01 -0.93039153297E+02  0.14117101708E+03  0.16922050098E+03  0.00000000000E+00 0.  1.
</event>
<event>
12    1  0.8494789E-002  0.3173770E+03  0.7818608E-02  0.1076906E+00
         21   -1    0    0  501  502  0.00000000000E+00  0.00000000000E+00  0.32142257512E+03  0.32142257512E+03  0.00000000000E+00 0.  1.
         21   -1    0    0  502  503 -0.00000000000E+00 -0.00000000000E+00 -0.10392652364E+04  0.10392652364E+04  0.00000000000E+00 0. -1.
         -6    2    1    2    0  503 -0.25670980581E+03 -0.71672814978E+02 -0.92758986543E+03  0.98026431386E+03  0.17163405774E+03 0.  0.
        -24    2    3    3    0    0 -0.94947771256E+02 -0.60074188139E+02 -0.58861624009E+03  0.60446291333E+03  0.79261265091E+02 0.  0.
          6    2    1    2  501    0  0.25670980581E+03  0.71672814978E+02  0.20974720411E+03  0.38042349771E+03  0.17231143658E+03 0.  0.
         24    2    5    5    0    0  0.68010770238E+02  0.71897769418E+02  0.61928022468E+02  0.14067367583E+03  0.78480882960E+02 0.  0.
          5    1    5    5  501    0  0.18869903557E+03 -0.22495444043E+00  0.14781918164E+03  0.23974982187E+03  0.47000000000E+01 0. -1.
        -13    1    6    6    0    0 -0.76798576035E+01 -0.69639773764E+00  0.30103355461E+02  0.31075347023E+02  0.00000000000E+00 0.  1.
         14    1    6    6    0    0  0.75690627841E+02  0.72594167156E+02  0.31824667008E+02  0.10959832881E+03  0.00000000000E+00 0. -1.
         -5    1    3    3    0  503 -0.16176203455E+03 -0.11598626839E+02 -0.33897362534E+03  0.37580140053E+03  0.47000000000E+01 0.  1.
         11    1    4    4    0    0  0.38769590363E+01 -0.29614918089E+02 -0.78939903954E+02  0.84401318835E+02  0.00000000000E+00 0. -1.
        -12    1    4    4    0    0 -0.98824730292E+02 -0.30459270050E+02 -0.50967633613E+03  0.52006159449E+03  0.00000000000E+00 0.  1.
</event>
<event>
12    1  0.8494789E-002  0.1779446E+03  0.7818608E-02  0.1170290E+00
         21   -1    0    0  501  502  0.00000000000E+00  0.00000000000E+00  0.17964385720E+03  0.17964385720E+03  0.00000000000E+00 0. -1.
         21   -1    0    0  502  503 -0.00000000000E+00 -0.00000000000E+00 -0.17451738362E+03  0.17451738362E+03  0.00000000000E+00 0. -1.
         -6    2    1    2    0  503  0.17357332664E+02 -0.43982600774E+02 -0.31866717315E+01  0.17797314932E+03  0.17154748857E+03 0.  0.
        -24    2    3    3    0    0 -0.14583016132E+02  0.34309429683E+02  0.21697669348E+02  0.89705667511E+02  0.78654412488E+02 0.  0.
          6    2    1    2  501    0 -0.17357332664E+02  0.43982600774E+02  0.83131453150E+01  0.17618809150E+03  0.16952105779E+03 0.  0.
         24    2    5    5    0    0 -0.50512269452E+02  0.80699143953E+02  0.15790910933E+02  0.12593511791E+03  0.80910196235E+02 0.  0.
          5    1    5    5  501    0  0.33154936788E+02 -0.36716543179E+02 -0.74777656175E+01  0.50252973594E+02  0.47000000000E+01 0. -1.
        -11    1    6    6    0    0  0.99412825472E+01 -0.28580338171E+01  0.20214350932E+02  0.22707211180E+02  0.00000000000E+00 0.  1.
         12    1    6    6    0    0 -0.60453551999E+02  0.83557177770E+02 -0.44234399994E+01  0.10322790673E+03  0.00000000000E+00 0. -1.
         -5    1    3    3    0  503  0.31940348796E+02 -0.78292030457E+02 -0.24884341080E+02  0.88267481811E+02  0.47000000000E+01 0.  1.
         13    1    4    4    0    0  0.31141687006E+02  0.17431253888E+02  0.20055930966E+02  0.40937680059E+02  0.00000000000E+00 0. -1.
        -14    1    4    4    0    0 -0.45724703138E+02  0.16878175794E+02  0.16417383820E+01  0.48767987452E+02  0.00000000000E+00 0.  1.
</event>
<event>
12    1  0.8494789E-002  0.1746162E+03  0.7818608E-02  0.1175426E+00
         21   -1    0    0  503  502  0.00000000000E+00  0.00000000000E+00  0.12851293718E+03  0.12851293718E+03  0.00000000000E+00 0.  1.
         21   -1    0    0  501  503 -0.00000000000E+00 -0.00000000000E+00 -0.29916900469E+03  0.29916900469E+03  0.00000000000E+00 0.  1.
          6    2    1    2  501    0  0.26206764685E+02  0.12566103675E+02 -0.18987496302E+03  0.25201131861E+03  0.16313338606E+03 0.  0.
         24    2    3    3    0    0  0.47529536472E+02  0.34228660100E+02 -0.19292248161E+03  0.22110332098E+03  0.90757570653E+02 0.  0.
         -6    2    1    2    0  502 -0.26206764685E+02 -0.12566103675E+02  0.19218895506E+02  0.17567062326E+03  0.17218042994E+03 0.  0.
        -24    2    5    5    0    0 -0.78276267425E+01  0.99551606925E+01  0.76080261801E+02  0.11163699899E+03  0.80710819247E+02 0.  0.
          5    1    3    3  501    0 -0.21322771787E+02 -0.21662556425E+02  0.30475185913E+01  0.30907997624E+02  0.47000000000E+01 0. -1.
        -13    1    4    4    0    0  0.70866502188E+01 -0.18673268435E+02 -0.12275047099E+03  0.12436474457E+03  0.00000000000E+00 0.  1.
         14    1    4    4    0    0  0.40442886253E+02  0.52901928535E+02 -0.70172010619E+02  0.96738576409E+02  0.00000000000E+00 0. -1.
         -5    1    5    5    0  502 -0.18379137943E+02 -0.22521264368E+02 -0.56861366295E+02  0.64033624270E+02  0.47000000000E+01 0.  1.
         13    1    6    6    0    0  0.84235616724E+01 -0.51339301702E+01 -0.14968338691E+02  0.17926650367E+02  0.00000000000E+00 0. -1.
        -14    1    6    6    0    0 -0.16251188415E+02  0.15089090863E+02  0.91048600491E+02  0.93710348625E+02  0.00000000000E+00 0.  1.
</event>
<event>
12    1  0.8494789E-002  0.2190509E+03  0.7818608E-02  0.1135189E+00
         21   -1    0    0  503  502  0.00000000000E+00  0.00000000000E+00  0.12391678093E+03  0.12391678093E+03  0.00000000000E+00 0.  1.
         21   -1    0    0  501  503 -0.00000000000E+00 -0.00000000000E+00 -0.38166707349E+03  0.38166707349E+03  0.00000000000E+00 0. -1.
          6    2    1    2  501    0 -0.13089557201E+03 -0.34695700404E+02 -0.12732521093E+03  0.25064466061E+03  0.16814753688E+03 0.  0.
         24    2    3    3    0    0 -0.18991927826E+02  0.92725672122E+01 -0.89053342375E+02  0.12438120564E+03  0.84222993913E+02 0.  0.
         -6    2    1    2    0  502  0.13089557201E+03  0.34695700404E+02 -0.13042508163E+03  0.25493919380E+03  0.17217969748E+03 0.  0.
        -24    2    5    5    0    0  0.10288041363E+03  0.23420121466E+01 -0.13345178973E+02  0.13019383779E+03  0.78628729273E+02 0.  0.
          5    1    3    3  501    0 -0.11190364418E+03 -0.43968267616E+02 -0.38271868558E+02  0.12626345497E+03  0.47000000000E+01 0. -1.
        -11    1    4    4    0    0 -0.20868931516E+02 -0.30692004792E+01  0.10836597234E+02  0.23714217967E+02  0.00000000000E+00 0.  1.
         12    1    4    4    0    0  0.18770036896E+01  0.12341767691E+02 -0.99889939608E+02  0.10066698767E+03  0.00000000000E+00 0. -1.
         -5    1    5    5    0  502  0.28015158383E+02  0.32353688257E+02 -0.11707990265E+03  0.12474535602E+03  0.47000000000E+01 0.  1.
         13    1    6    6    0    0  0.17241736230E+02 -0.19333094182E+02 -0.30697193827E+02  0.40166698990E+02  0.00000000000E+00 0. -1.
        -14    1    6    6    0    0  0.85638677395E+02  0.21675106328E+02  0.17352014855E+02  0.90027138796E+02  0.00000000000E+00 0.  1.
</event>
<event>
12    1  0.8494789E-002  0.1891906E+03  0.7818608E-02  0.1159723E+00
         21   -1    0    0  501  502  0.00000000000E+00  0.00000000000E+00  0.10026194612E+03  0.10026194612E+03  0.00000000000E+00 0.  1.
         21   -1    0    0  502  503 -0.00000000000E+00 -0.00000000000E+00 -0.63552807966E+03  0.63552807966E+03  0.00000000000E+00 0.  1.
         -6    2    1    2    0  503 -0.54224792251E+02 -0.53893002806E+02 -0.51216842872E+03  0.54519471814E+03  0.17051685389E+03 0.  0.
        -24    2    3    3    0    0  0.29550410219E+01 -0.31197359028E+02 -0.11481654132E+03  0.14308125405E+03  0.79419138889E+02 0.  0.
          6    2    1    2  501    0  0.54224792251E+02  0.53893002806E+02 -0.23097704813E+02  0.19059530763E+03  0.17305572362E+03 0.  0.
         24    2    5    5    0    0  0.87352253950E+02  0.14973477823E+02 -0.53586336061E+02  0.13089769647E+03  0.80050547903E+02 0.  0.
          5    1    5    5  501    0 -0.33127461699E+02  0.38919524983E+02  0.30488631248E+02  0.59697611165E+02  0.47000000000E+01 0. -1.
        -13    1    6    6    0    0  0.48474626844E+02 -0.93942449092E+01 -0.66875725787E+02  0.83128839668E+02  0.00000000000E+00 0.  1.
         14    1    6    6    0    0  0.38877627106E+02  0.24367722732E+02  0.13289389726E+02  0.47768856798E+02  0.00000000000E+00 0. -1.
         -5    1    3    3    0  503 -0.57179833273E+02 -0.22695643778E+02 -0.39735188740E+03  0.40211346409E+03  0.47000000000E+01 0.  1.
         11    1    4    4    0    0  0.23834670519E+02  0.62184658611E+01 -0.90547234357E+02  0.93837958663E+02  0.00000000000E+00 0. -1.
        -12    1    4    4    0    0 -0.20879629497E+02 -0.37415824889E+02 -0.24269306965E+02  0.49243295388E+02  0.00000000000E+00 0.  1.
</event>
<event>
12    1  0.8494789E-002  0.1769127E+03  0.7818608E-02  0.1170836E+00
         21   -1    0    0  501  502  0.00000000000E+00  0.00000000000E+00  0.13579866667E+04  0.13579866667E+04  0.00000000000E+00 0.  1.
         21   -1    0    0  502  503 -0.00000000000E+00 -0.00000000000E+00 -0.28643089053E+02  0.28643089053E+02  0.00000000000E+00 0. -1.
         -6    2    1    2    0  503 -0.14499472421E+02 -0.40075061384E+02  0.35813702718E+03  0.39944992101E+03  0.17170283606E+03 0.  0.
        -24    2    3    3    0    0 -0.42349871630E+02 -0.88370185930E+01  0.34186994918E+03  0.35430384831E+03  0.82368381384E+02 0.  0.
          6    2    1    2  501    0  0.14499472421E+02  0.40075061384E+02  0.97120655052E+03  0.98717983479E+03  0.17165551902E+03 0.  0.
         24    2    5    5    0    0  0.62780100707E+02  0.67165454075E+02  0.71336620096E+03  0.72342114905E+03  0.77422754791E+02 0.  0.
          5    1    5    5  501    0 -0.48280628285E+02 -0.27090392691E+02  0.25784034956E+03  0.26375868574E+03  0.47000000000E+01 0. -1.
        -11    1    6    6    0    0  0.59464498323E+01  0.11028635340E+02  0.39456400451E+03  0.39476289683E+03  0.00000000000E+00 0.  1.
         12    1    6    6    0    0  0.56833650874E+02  0.56136818735E+02  0.31880219645E+03  0.32865825221E+03  0.00000000000E+00 0. -1.
         -5    1    3    3    0  503  0.27850399208E+02 -0.31238042791E+02  0.16267078002E+02  0.45146072699E+02  0.47000000000E+01 0.  1.
         13    1    4    4    0    0 -0.38782582586E+01  0.20185052384E+02  0.19435719798E+02  0.28288238385E+02  0.00000000000E+00 0. -1.
        -14    1    4    4    0    0 -0.38471613371E+02 -0.29022070977E+02  0.32243422938E+03  0.32601560992E+03  0.00000000000E+00 0.  1.
</event>
<event>
12    1  0.8494789E-002  0.1741247E+03  0.7818608E-02  0.1173914E+00
         21   -1    0    0  501  502  0.00000000000E+00  0.00000000000E+00  0.47569483051E+02  0.47569483051E+02  0.00000000000E+00 0. -1.
         21   -1    0    0  502  503 -0.00000000000E+00 -0.00000000000E+00 -0.92088464729E+03  0.92088464729E+03  0.00000000000E+00 0. -1.
         -6    2    1    2    0  503 -0.54176728057E+01 -0.19343424110E+02 -0.70635552548E+03  0.72721790554E+03  0.17176796711E+03 0.  0.
        -24    2    3    3    0    0  0.37007361960E+02  0.19822035064E+02 -0.21018023478E+03  0.22767228614E+03  0.76788546461E+02 0.  0.
          6    2    1    2  501    0  0.54176728057E+01  0.19343424110E+02 -0.16695963876E+03  0.24123622480E+03  0.17296206505E+03 0.  0.
         24    2    5    5    0    0  0.10596276124E+02 -0.48345178266E+02 -0.56338669244E+02  0.11136069316E+03  0.82326308059E+02 0.  0.
          5    1    5    5  501    0 -0.51786033181E+01  0.67688602376E+02 -0.11062096952E+03  0.12987553165E+03  0.47000000000E+01 0. -1.
        -13    1    6    6    0    0 -0.34132019549E+02 -0.20684971759E+02 -0.39470133575E+02  0.56131579878E+02  0.00000000000E+00 0.  1.
         14    1    6    6    0    0  0.44728295673E+02 -0.27660206507E+02 -0.16868535669E+02  0.55229113278E+02  0.00000000000E+00 0. -1.
         -5    1    3    3    0  503 -0.42425034766E+02 -0.39165459174E+02 -0.49617529070E+03  0.49954561941E+03  0.47000000000E+01 0.  1.
         13    1    4    4    0    0  0.38511109848E+02  0.25620720013E+02 -0.21503998542E+03  0.21995845563E+03  0.00000000000E+00 0. -1.
        -14    1    4    4    0    0 -0.15037478874E+01 -0.57986849486E+01  0.48597506334E+01  0.77138305051E+01  0.00000000000E+00 0.  1.
</event>
<event>
12    1  0.8494789E-002  0.2023320E+03  0.7818608E-02  0.1147875E+00
         21   -1    0    0  501  502  0.00000000000E+00  0.00000000000E+00  0.57967663050E+02  0.57967663050E+02  0.00000000000E+00 0. -1.
         21   -1    0    0  502  503 -0.00000000000E+00 -0.00000000000E+00 -0.70839682790E+03  0.70839682790E+03  0.00000000000E+00 0.  1.
         -6    2    1    2    0  503  0.62311826201E+02 -0.85660077586E+02 -0.35306270270E+03  0.40692935393E+03  0.17238855670E+03 0.  0.
        -24    2    3    3    0    0  0.14540291441E+01 -0.81097271030E+02 -0.11389878765E+03  0.16005700043E+03  0.77887277442E+02 0.  0.
          6    2    1    2  501    0 -0.62311826201E+02  0.85660077586E+02 -0.29736646215E+03  0.35943513701E+03  0.17189064062E+03 0.  0.
         24    2    5    5    0    0 -0.10172119081E+03  0.31862013606E+02 -0.22249329154E+03  0.25905878828E+03  0.79030389331E+02 0.  0.
          5    1    5    5  501    0  0.39409364608E+02  0.53798063980E+02 -0.74873170612E+02  0.10037634873E+03  0.47000000000E+01 0. -1.
        -11    1    6    6    0    0 -0.58236583506E+01  0.34986438503E+02 -0.77004001959E+02  0.84779609538E+02  0.00000000000E+00 0.  1.
         12    1    6    6    0    0 -0.95897532458E+02 -0.31244248972E+01 -0.14548928958E+03  0.17427917875E+03  0.00000000000E+00 0. -1.
         -5    1    3    3    0  503  0.60857797057E+02 -0.45628065563E+01 -0.23916391505E+03  0.24687235351E+03  0.47000000000E+01 0.  1.
         11    1    4    4    0    0 -0.12468018948E+02 -0.18626618805E+01  0.73157397215E+01  0.14575357747E+02  0.00000000000E+00 0. -1.
        -12    1    4    4    0    0  0.13922048092E+02 -0.79234609149E+02 -0.12121452737E+03  0.14548164268E+03  0.00000000000E+00 0.  1.
</event>
<event>
12    1  0.8494789E-002  0.2476244E+03  0.7818608E-02  0.1116423E+00
         21   -1    0    0  503  502  0.00000000000E+00  0.00000000000E+00  0.24298739798E+03  0.24298739798E+03  0.00000000000E+00 0.  1.
         21   -1    0    0  501  503 -0.00000000000E+00 -0.00000000000E+00 -0.34650070042E+03  0.34650070042E+03  0.00000000000E+00 0.  1.
          6    2    1    2  501    0 -0.44829684444E+02  0.17341694987E+03 -0.21400303781E+03  0.32728450016E+03  0.17098159183E+03 0.  0.
         24    2    3    3    0    0  0.22103241716E+01  0.38083696455E+02 -0.14018767942E+03  0.16604353445E+03  0.80390399937E+02 0.  0.
         -6    2    1    2    0  502  0.44829684444E+02 -0.17341694987E+03  0.11048973537E+03  0.26220359824E+03  0.15639567192E+03 0.  0.
        -24    2    5    5    0    0  0.43744726902E+02 -0.10596075607E+03  0.13131519527E+03  0.19144128485E+03  0.79150502713E+02 0.  0.
          5    1    3    3  501    0 -0.47040008616E+02  0.13533325342E+03 -0.73815358384E+02  0.16124096571E+03  0.47000000000E+01 0. -1.
        -11    1    4    4    0    0 -0.20664855866E+02  0.44147614059E+02 -0.13246678737E+03  0.14115062115E+03  0.00000000000E+00 0.  1.
         12    1    4    4    0    0  0.22875180037E+02 -0.60639176032E+01 -0.77208920526E+01  0.24892913299E+02  0.00000000000E+00 0. -1.
         -5    1    5    5    0  502  0.10849575421E+01 -0.67456193800E+02 -0.20825459900E+02  0.70762313381E+02  0.47000000000E+01 0. -1.
         13    1    6    6    0    0 -0.20259228063E+02 -0.12183891110E+02  0.36667827538E+02  0.43628122818E+02  0.00000000000E+00 0. -1.
        -14    1    6    6    0    0  0.64003954965E+02 -0.93776864960E+02  0.94647367731E+02  0.14781316204E+03  0.00000000000E+00 0.  1.
</event>
<event>
12    1  0.8494789E-002  0.2561498E+03  0.7818608E-02  0.1109563E+00
         21   -1    0    0  501  502  0.00000000000E+00  0.00000000000E+00  0.11498940488E+04  0.11498940488E+04  0.00000000000E+00 0. -1.
         21   -1    0    0  502  503 -0.00000000000E+00 -0.00000000000E+00 -0.57146421780E+02  0.57146421780E+02  0.00000000000E+00 0. -1.
         -6    2    1    2    0  503  0.34982487462E+01 -0.18896531426E+03  0.50925463192E+03  0.56979893298E+03  0.17207677402E+03 0.  0.
        -24    2    3    3    0    0  0.47559144914E+02 -0.66994656467E+02  0.15786859406E+03  0.19521590943E+03  0.80228436622E+02 0.  0.
          6    2    1    2  501    0 -0.34982487462E+01  0.18896531426E+03  0.58349299508E+03  0.63724153758E+03  0.17289469099E+03 0.  0.
         24    2    5    5    0    0  0.12037887610E+02  0.19479233405E+03  0.39489435162E+03  0.44785604709E+03  0.80898243689E+02 0.  0.
          5    1    5    5  501    0 -0.15536136356E+02 -0.58270197929E+01  0.18859864346E+03  0.18938549049E+03  0.47000000000E+01 0. -1.
        -11    1    6    6    0    0 -0.10734113176E+02  0.14257780757E+03  0.20747679503E+03  0.25197276217E+03  0.00000000000E+00 0.  1.
         12    1    6    6    0    0  0.22772000787E+02  0.52214526479E+02  0.18741755659E+03  0.19588328492E+03  0.00000000000E+00 0. -1.
         -5    1    3    3    0  503 -0.44060896168E+02 -0.12197065779E+03  0.35138603785E+03  0.37458302355E+03  0.47000000000E+01 0.  1.
         13    1    4    4    0    0  0.69493684057E+02 -0.58547587166E+02  0.13211973887E+03  0.16035216707E+03  0.00000000000E+00 0. -1.
        -14    1    4    4    0    0 -0.21934539143E+02 -0.84470693009E+01  0.25748855197E+02  0.34863742357E+02  0.00000000000E+00 0.  1.
</event>
<event>
12    1  0.8494789E-002  0.1766561E+03  0.7818608E-02  0.1171188E+00
         21   -1    0    0  501  502  0.00000000000E+00  0.00000000000E+00  0.17219448666E+03  0.17219448666E+03  0.00000000000E+00 0. -1.
         21   -1    0    0  502  503 -0.00000000000E+00 -0.00000000000E+00 -0.24946262081E+03  0.24946262081E+03  0.00000000000E+00 0. -1.
         -6    2    1    2    0  503  0.37657420452E+02  0.32863211371E+01 -0.14921959242E+03  0.23091020508E+03  0.17211668957E+03 0.  0.
        -24    2    3    3    0    0  0.64389531324E+02 -0.13737480739E+02 -0.31604834121E+02  0.10900968437E+03  0.80929077745E+02 0.  0.
          6    2    1    2  501    0 -0.37657420452E+02 -0.32863211371E+01  0.71951458274E+02  0.19074690238E+03  0.17256444361E+03 0.  0.
         24    2    5    5    0    0  0.11810433631E+01 -0.25393403227E+02  0.10652952762E+03  0.13404697091E+03  0.77290558048E+02 0.  0.
          5    1    5    5  501    0 -0.38838463815E+02  0.22107082090E+02 -0.34578069345E+02  0.56699931479E+02  0.47000000000E+01 0. -1.
        -13    1    6    6    0    0  0.18302479444E+02  0.18586283991E+02  0.12690395990E+02  0.29008220503E+02  0.00000000000E+00 0.  1.
         14    1    6    6    0    0 -0.17121436081E+02 -0.43979687218E+02  0.93839131629E+02  0.10503875040E+03  0.00000000000E+00 0. -1.
         -5    1    3    3    0  503 -0.26732110872E+02  0.17023801876E+02 -0.11761475830E+03  0.12190052072E+03  0.47000000000E+01 0.  1.
         11    1    4    4    0    0  0.66453861281E+02  0.20393246858E+02 -0.15528831325E+02  0.71226012094E+02  0.00000000000E+00 0. -1.
        -12    1    4    4    0    0 -0.20643299568E+01 -0.34130727597E+02 -0.16076002796E+02  0.37783672272E+02  0.00000000000E+00 0.  1.
</event>
<event>
12    1  0.8494789E-002  0.1944981E+03  0.7818608E-02  0.1154547E+00
         21   -1    0    0  501  502  0.00000000000E+00  0.00000000000E+00  0.45907384736E+03  0.45907384736E+03  0.00000000000E+00 0. -1.
         21   -1    0    0  502  503 -0.00000000000E+00 -0.00000000000E+00 -0.11876400782E+03  0.11876400782E+03  0.00000000000E+00 0.  1.
         -6    2    1    2    0  503  0.36256024784E+02 -0.83124796809E+02  0.33024946372E+03  0.38307970470E+03  0.17164242101E+03 0.  0.
        -24    2    3    3    0    0  0.13140204575E+02  0.23946381048E+02  0.15234392019E+03  0.17410350823E+03  0.79732474054E+02 0.  0.
          6    2    1    2  501    0 -0.36256024784E+02  0.83124796809E+02  0.10060375822E+02  0.19475815048E+03  0.17206189247E+03 0.  0.
         24    2    5    5    0    0 -0.53084164784E+02  0.57104648950E-01 -0.28686469315E+02  0.10144772349E+03  0.81552408111E+02 0.  0.
          5    1    5    5  501    0  0.16828140000E+02  0.83067692160E+02  0.38746845137E+02  0.93310426988E+02  0.47000000000E+01 0. -1.
        -11    1    6    6    0    0  0.33823377428E+01 -0.30644006434E+02  0.55590129350E+00  0.30835115781E+02  0.00000000000E+00 0.  1.
         12    1    6    6    0    0 -0.56466502526E+02  0.30701111083E+02 -0.29242370608E+02  0.70612607714E+02  0.00000000000E+00 0. -1.
         -5    1    3    3    0  503  0.23115820209E+02 -0.10707117786E+03  0.17790554353E+03  0.20897619647E+03  0.47000000000E+01 0.  1.
         11    1    4    4    0    0  0.29156956532E+02 -0.11727522127E+02  0.22909542136E+02  0.38891001662E+02  0.00000000000E+00 0. -1.
        -12    1    4    4    0    0 -0.16016751957E+02  0.35673903175E+02  0.12943437805E+03  0.13521250657E+03  0.00000000000E+00 0.  1.
</event>
<event>
12    1  0.8494789E-002  0.2146955E+03  0.7818608E-02  0.1138139E+00
         21   -1    0    0  503  502  0.00000000000E+00  0.00000000000E+00  0.69478701538E+03  0.69478701538E+03  0.00000000000E+00 0. -1.
         21   -1    0    0  501  503 -0.00000000000E+00 -0.00000000000E+00 -0.69669714399E+02  0.69669714399E+02  0.00000000000E+00 0.  1.
          6    2    1    2  501    0  0.62674436818E+02  0.11050969368E+03  0.22352938707E+03  0.30908106487E+03  0.17153786856E+03 0.  0.
         24    2    3    3    0    0  0.61093678573E+02  0.77485123204E+02  0.55957713528E+02  0.13821422541E+03  0.78965337484E+02 0.  0.
         -6    2    1    2    0  502 -0.62674436818E+02 -0.11050969368E+03  0.40158791391E+03  0.45537566491E+03  0.17307127481E+03 0.  0.
        -24    2    5    5    0    0 -0.78785962835E+02 -0.59334515316E+02  0.37351507459E+03  0.39464137098E+03  0.80625604469E+02 0.  0.
          5    1    3    3  501    0  0.15807582451E+01  0.33024570478E+02  0.16757167355E+03  0.17086683946E+03  0.47000000000E+01 0. -1.
        -11    1    4    4    0    0  0.68887219743E+02  0.87356839957E+02  0.58016552455E+02  0.12546946597E+03  0.00000000000E+00 0.  1.
         12    1    4    4    0    0 -0.77935411699E+01 -0.98717167534E+01 -0.20588389274E+01  0.12744759447E+02  0.00000000000E+00 0. -1.
         -5    1    5    5    0  502  0.16111526017E+02 -0.51175178366E+02  0.28072839319E+02  0.60734293927E+02  0.47000000000E+01 0.  1.
         11    1    6    6    0    0 -0.18160374610E+02 -0.63938668425E+02  0.18641544381E+03  0.19791076327E+03  0.00000000000E+00 0. -1.
        -12    1    6    6    0    0 -0.60625588226E+02  0.46041531094E+01  0.18709963078E+03  0.19673060771E+03  0.00000000000E+00 0.  1.
</event>
<event>
12    1  0.8494789E-002  0.1730164E+03  0.7818608E-02  0.1174873E+00
         21   -1    0    0  501  502  0.00000000000E+00  0.00000000000E+00  0.52249001224E+03  0.52249001224E+03  0.00000000000E+00 0. -1.
         21   -1    0    0  502  503 -0.00000000000E+00 -0.00000000000E+00 -0.61689925872E+02  0.61689925872E+02  0.00000000000E+00 0. -1.
         -6    2    1    2    0  503 -0.25233085396E+02 -0.46646966110E+01  0.15055533067E+03  0.22895258879E+03  0.17056937688E+03 0.  0.
        -24    2    3    3    0    0 -0.29186124843E+02  0.30680647520E+02  0.18763316305E+02  0.92365089644E+02  0.79913176201E+02 0.  0.
          6    2    1    2  501    0  0.25233085396E+02  0.46646966110E+01  0.31024475570E+03  0.35522734932E+03  0.17110287337E+03 0.  0.
         24    2    5    5    0    0  0.80212935218E+02  0.17376726343E+02  0.23716054213E+03  0.26277318847E+03  0.77900964299E+02 0.  0.
          5    1    5    5  501    0 -0.54979849822E+02 -0.12712029732E+02  0.73084213562E+02  0.92454160849E+02  0.47000000000E+01 0. -1.
        -13    1    6    6    0    0  0.22576725451E+02  0.11609824709E+02  0.83198721910E+01  0.26715479317E+02  0.00000000000E+00 0.  1.
         14    1    6    6    0    0  0.57636209767E+02  0.57669016343E+01  0.22884066994E+03  0.23605770915E+03  0.00000000000E+00 0. -1.
         -5    1    3    3    0  503  0.39530394476E+01 -0.35345344131E+02  0.13179201437E+03  0.13658749915E+03  0.47000000000E+01 0.  1.
         11    1    4    4    0    0 -0.49040752223E+02  0.36341750111E+02  0.30901803820E+02  0.68415200498E+02  0.00000000000E+00 0. -1.
        -12    1    4    4    0    0  0.19854627380E+02 -0.56611025910E+01 -0.12138487516E+02  0.23949889146E+02  0.00000000000E+00 0.  1.
</event>
<event>
12    1  0.8494789E-002  0.2011737E+03  0.7818608E-02  0.1148944E+00
         21   -1    0    0  501  502  0.00000000000E+00  0.00000000000E+00  0.42125575409E+03  0.42125575409E+03  0.00000000000E+00 0. -1.
         21   -1    0    0  502  503 -0.00000000000E+00 -0.00000000000E+00 -0.11806873258E+03  0.11806873258E+03  0.00000000000E+00 0. -1.
         -6    2    1    2    0  503 -0.85484273387E+02  0.58089519459E+02  0.26941148526E+03  0.33623416549E+03  0.17259464761E+03 0.  0.
        -24    2    3    3    0    0 -0.57691171851E+02  0.81104529121E+02  0.27123917389E+03  0.29979822707E+03  0.80012946135E+02 0.  0.
          6    2    1    2  501    0  0.85484273387E+02 -0.58089519459E+02  0.33775536239E+02  0.20309032118E+03  0.17153115881E+03 0.  0.
         24    2    5    5    0    0  0.41965930743E+02  0.28173022429E+02  0.49091417743E+02  0.10515289981E+03  0.78053228669E+02 0.  0.
          5    1    5    5  501    0  0.43518342644E+02 -0.86262541887E+02 -0.15315881505E+02  0.97937421375E+02  0.47000000000E+01 0. -1.
        -11    1    6    6    0    0  0.48771906493E+02  0.39548696123E+02  0.96318169436E+01  0.63526137342E+02  0.00000000000E+00 0.  1.
         12    1    6    6    0    0 -0.68059757499E+01 -0.11375673694E+02  0.39459600800E+02  0.41626762463E+02  0.00000000000E+00 0. -1.
         -5    1    3    3    0  503 -0.27793101536E+02 -0.23015009663E+02 -0.18276886266E+01  0.36435938419E+02  0.47000000000E+01 0.  1.
         13    1    4    4    0    0 -0.54487785017E+02  0.96213872995E+02  0.25151114375E+03  0.27474330475E+03  0.00000000000E+00 0. -1.
        -14    1    4    4    0    0 -0.32033868334E+01 -0.15109343873E+02  0.19728030139E+02  0.25054922324E+02  0.00000000000E+00 0.  1.
</event>
<event>
12    1  0.8494789E-002  0.1815974E+03  0.7818608E-02  0.1166807E+00
         21   -1    0    0  501  502  0.00000000000E+00  0.00000000000E+00  0.75339999902E+02  0.75339999902E+02  0.00000000000E+00 0. -1.
         21   -1    0    0  502  503 -0.00000000000E+00 -0.00000000000E+00 -0.45753889472E+03  0.45753889472E+03  0.00000000000E+00 0. -1.
         -6    2    1    2    0  503 -0.14920270896E+02 -0.54972066339E+02 -0.12967144543E+03  0.22314189188E+03  0.17243282052E+03 0.  0.
        -24    2    3    3    0    0  0.38066541298E+02 -0.79699158438E+02 -0.69235715040E+02  0.13891838651E+03  0.81876226403E+02 0.  0.
          6    2    1    2  501    0  0.14920270896E+02  0.54972066339E+02 -0.25252744939E+03  0.30973700274E+03  0.17006573909E+03 0.  0.
         24    2    5    5    0    0  0.13669142425E+01  0.43766928357E+01 -0.37764275570E+02  0.88628667020E+02  0.80049211200E+02 0.  0.
          5    1    5    5  501    0  0.13553356653E+02  0.50595373503E+02 -0.21476317382E+03  0.22110833572E+03  0.47000000000E+01 0. -1.
        -11    1    6    6    0    0  0.18304493153E+02 -0.15735725217E+02 -0.53000849835E+02  0.58238798073E+02  0.00000000000E+00 0.  1.
         12    1    6    6    0    0 -0.16937578910E+02  0.20112418053E+02  0.15236574266E+02  0.30389868947E+02  0.00000000000E+00 0. -1.
         -5    1    3    3    0  503 -0.52986812193E+02  0.24727092099E+02 -0.60435730387E+02  0.84223505374E+02  0.47000000000E+01 0.  1.
         11    1    4    4    0    0  0.16757440087E+02 -0.84610329424E+02 -0.77089779788E+02  0.11568298834E+03  0.00000000000E+00 0. -1.
        -12    1    4    4    0    0  0.21309101210E+02  0.49111709865E+01  0.78540647473E+01  0.23235398165E+02  0.00000000000E+00 0.  1.
</event>
<event>
12    1  0.8494789E-002  0.2037473E+03  0.7818608E-02  0.1146929E+00
         21   -1    0    0  503  502  0.00000000000E+00  0.00000000000E+00  0.38829868574E+03  0.38829868574E+03  0.00000000000E+00 0. -1.
         21   -1    0    0  501  503 -0.00000000000E+00 -0.00000000000E+00 -0.11775335740E+03  0.11775335740E+03  0.00000000000E+00 0. -1.
          6    2    1    2  501    0 -0.76842720242E+02 -0.72351315360E+02  0.21436544520E+03  0.29470132432E+03  0.17250162309E+03 0.  0.
         24    2    3    3    0    0 -0.62906708279E+02  0.13228780127E+02  0.16894677885E+03  0.19670586307E+03  0.77575304767E+02 0.  0.
         -6    2    1    2    0  502  0.76842720242E+02  0.72351315360E+02  0.56179883132E+02  0.21135071882E+03  0.17427974807E+03 0.  0.
        -24    2    5    5    0    0 -0.11379293655E+02  0.30979830550E+02 -0.19539294642E+02  0.87858988836E+02  0.79045427820E+02 0.  0.
          5    1    3    3  501    0 -0.13936011963E+02 -0.85580095486E+02  0.45418666351E+02  0.97995461252E+02  0.47000000000E+01 0. -1.
        -13    1    4    4    0    0 -0.13908725846E+02 -0.22226462768E+02  0.10686267290E+03  0.11003226419E+03  0.00000000000E+00 0.  1.
         14    1    4    4    0    0 -0.48997982433E+02  0.35455242895E+02  0.62084105949E+02  0.86673598879E+02  0.00000000000E+00 0. -1.
         -5    1    5    5    0  502  0.88222013897E+02  0.41371484809E+02  0.75719177775E+02  0.12349172998E+03  0.47000000000E+01 0.  1.
         11    1    6    6    0    0 -0.88784134970E+01  0.54216867827E+02  0.34876774611E+01  0.55049603789E+02  0.00000000000E+00 0. -1.
        -12    1    6    6    0    0 -0.25008801585E+01 -0.23237037277E+02 -0.23026972103E+02  0.32809385048E+02  0.00000000000E+00 0.  1.
</event>
<event>
12    1  0.8494789E-002  0.1752603E+03  0.7818608E-02  0.1173379E+00
         21   -1    0    0  501  502  0.00000000000E+00  0.00000000000E+00  0.16392782264E+03  0.16392782264E+03  0.00000000000E+00 0.  1.
         21   -1    0    0  502  503 -0.00000000000E+00 -0.00000000000E+00 -0.19042869811E+03  0.19042869811E+03  0.00000000000E+00 0.  1.
         -6    2    1    2    0  503  0.28194569780E+02  0.13200288589E+02 -0.46761449239E+02  0.17792902910E+03  0.16882809268E+03 0.  0.
        -24    2    3    3    0    0 -0.27298096798E+02  0.49615309343E+02 -0.53293074559E+01  0.99544067834E+02  0.81693053028E+02 0.  0.
          6    2    1    2  501    0 -0.28194569780E+02 -0.13200288589E+02  0.20260573762E+02  0.17642749165E+03  0.17247315030E+03 0.  0.
         24    2    5    5    0    0  0.30988980284E+00 -0.26745274108E+02 -0.61942664123E+02  0.88249074971E+02  0.56882333600E+02 0.  0.
          5    1    5    5  501    0 -0.28504459583E+02  0.13544985518E+02  0.82203237885E+02  0.88178416676E+02  0.47000000000E+01 0. -1.
        -11    1    6    6    0    0  0.22066698709E+02 -0.32245528041E+02 -0.30243618472E+02  0.49410421258E+02  0.00000000000E+00 0.  1.
         12    1    6    6    0    0 -0.21756808906E+02  0.55002539338E+01 -0.31699045651E+02  0.38838653713E+02  0.00000000000E+00 0. -1.
         -5    1    3    3    0  503  0.55492666578E+02 -0.36415020754E+02 -0.41432141783E+02  0.78384961270E+02  0.47000000000E+01 0.  1.
         13    1    4    4    0    0 -0.99188813260E+01  0.51335326306E+01 -0.39353051867E+02  0.40907212754E+02  0.00000000000E+00 0. -1.
        -14    1    4    4    0    0 -0.17379215472E+02  0.44481776713E+02  0.34023744411E+02  0.58636855080E+02  0.00000000000E+00 0.  1.
</event>
<event>
12    1  0.8494789E-002  0.2018297E+03  0.7818608E-02  0.1148336E+00
         21   -1    0    0  501  502  0.00000000000E+00  0.00000000000E+00  0.30475989008E+03  0.30475989008E+03  0.00000000000E+00 0. -1.
         21   -1    0    0  502  503 -0.00000000000E+00 -0.00000000000E+00 -0.34100618849E+03  0.34100618849E+03  0.00000000000E+00 0. -1.
         -6    2    1    2    0  503 -0.54673906015E+02  0.89285221323E+02 -0.27013736798E+03  0.33683202739E+03  0.17181539614E+03 0.  0.
        -24    2    3    3    0    0 -0.67874183388E+01 -0.12167520859E+02 -0.16400755892E+03  0.18232830261E+03  0.78428393717E+02 0.  0.
          6    2    1    2  501    0  0.54673906015E+02 -0.89285221323E+02  0.23389106957E+03  0.30893405117E+03  0.17255181483E+03 0.  0.
         24    2    5    5    0    0  0.27114646921E+02 -0.25172936379E+02  0.22049455436E+03  0.23771990607E+03  0.80771433289E+02 0.  0.
          5    1    5    5  501    0  0.27559259094E+02 -0.64112284944E+02  0.13396515215E+02  0.71214145101E+02  0.47000000000E+01 0. -1.
        -11    1    6    6    0    0 -0.23572442946E+02 -0.22356370613E+02  0.12959713052E+03  0.13360719896E+03  0.00000000000E+00 0.  1.
         12    1    6    6    0    0  0.50687089867E+02 -0.28165657653E+01  0.90897423835E+02  0.10411270711E+03  0.00000000000E+00 0. -1.
         -5    1    3    3    0  503 -0.47886487676E+02  0.10145274218E+03 -0.10612980907E+03  0.15450372478E+03  0.47000000000E+01 0.  1.
         13    1    4    4    0    0 -0.31787610147E+02 -0.79038706439E+01 -0.14963395650E+03  0.15317716627E+03  0.00000000000E+00 0. -1.
        -14    1    4    4    0    0  0.25000191808E+02 -0.42636502150E+01 -0.14373602420E+02  0.29151136344E+02  0.00000000000E+00 0.  1.
</event>
<event>
12    1  0.8494789E-002  0.2128362E+03  0.7818608E-02  0.1140591E+00
         21   -1    0    0  501  502  0.00000000000E+00  0.00000000000E+00  0.12836302177E+03  0.12836302177E+03  0.00000000000E+00 0.  1.
         21   -1    0    0  502  503 -0.00000000000E+00 -0.00000000000E+00 -0.41517914401E+03  0.41517914401E+03  0.00000000000E+00 0. -1.
         -6    2    1    2    0  503 -0.11318355111E+03 -0.89509320863E+01 -0.31483764801E+02  0.21515219321E+03  0.18002389667E+03 0.  0.
        -24    2    3    3    0    0  0.90015276975E+01 -0.32346867866E+02 -0.21540137766E+02  0.90262125505E+02  0.80968675450E+02 0.  0.
          6    2    1    2  501    0  0.11318355111E+03  0.89509320863E+01 -0.25533235744E+03  0.32838997257E+03  0.17249558227E+03 0.  0.
         24    2    5    5    0    0  0.97073149587E+02  0.32021908002E+02 -0.82448964649E+02  0.15316847711E+03  0.78829890567E+02 0.  0.
          5    1    5    5  501    0  0.16110401520E+02 -0.23070975916E+02 -0.17288339279E+03  0.17522149546E+03  0.47000000000E+01 0. -1.
        -11    1    6    6    0    0  0.48308983977E+02 -0.16973831996E+02 -0.63341443145E+02  0.81449415745E+02  0.00000000000E+00 0.  1.
         12    1    6    6    0    0  0.48764165611E+02  0.48995739998E+02 -0.19107521504E+02  0.71719061369E+02  0.00000000000E+00 0. -1.
         -5    1    3    3    0  503 -0.12218507880E+03  0.23395935779E+02 -0.99436270348E+01  0.12489006771E+03  0.47000000000E+01 0.  1.
         11    1    4    4    0    0 -0.10468527206E+02 -0.54846460963E+02 -0.23193291449E+02  0.60461997240E+02  0.00000000000E+00 0. -1.
        -12    1    4    4    0    0  0.19470054903E+02  0.22499593098E+02  0.16531536830E+01  0.29800128265E+02  0.00000000000E+00 0.  1.
</event>
<event>
12    1  0.8494789E-002  0.2722862E+03  0.7818608E-02  0.1100133E+00
         21   -1    0    0  501  502  0.00000000000E+00  0.00000000000E+00  0.44037875568E+03  0.44037875568E+03  0.00000000000E+00 0. -1.
         21   -1    0    0  502  503 -0.00000000000E+00 -0.00000000000E+00 -0.33931394166E+03  0.33931394166E+03  0.00000000000E+00 0.  1.
         -6    2    1    2    0  503 -0.15971770657E+03 -0.13587558811E+03 -0.22668096001E+03  0.35429372991E+03  0.17368899846E+03 0.  0.
        -24    2    3    3    0    0 -0.21622491298E+02 -0.35427634464E+02 -0.12979571675E+03  0.15790401472E+03  0.79775311739E+02 0.  0.
          6    2    1    2  501    0  0.15971770657E+03  0.13587558811E+03  0.32774577403E+03  0.42539896743E+03  0.17197403253E+03 0.  0.
         24    2    5    5    0    0  0.18515357104E+03  0.10944625366E+03  0.30637441699E+03  0.38268693374E+03  0.79521560335E+02 0.  0.
          5    1    5    5  501    0 -0.25435864471E+02  0.26429334448E+02  0.21371357036E+02  0.42712033694E+02  0.47000000000E+01 0. -1.
        -13    1    6    6    0    0  0.30641392321E+02  0.26225062612E+02  0.15982865249E+02  0.43383185844E+02  0.00000000000E+00 0.  1.
         14    1    6    6    0    0  0.15451217872E+03  0.83221191050E+02  0.29039155174E+03  0.33930374790E+03  0.00000000000E+00 0. -1.
         -5    1    3    3    0  503 -0.13809521527E+03 -0.10044795365E+03 -0.96885243258E+02  0.19638971519E+03  0.47000000000E+01 0.  1.
         11    1    4    4    0    0 -0.14613230937E+02 -0.60281166503E+02 -0.10586241254E+03  0.12269562316E+03  0.00000000000E+00 0. -1.
        -12    1    4    4    0    0 -0.70092603615E+01  0.24853532039E+02 -0.23933304208E+02  0.35208391556E+02  0.00000000000E+00 0.  1.
</event>
<event>
12    1  0.8494789E-002  0.1864955E+03  0.7818608E-02  0.1162056E+00
         21   -1    0    0  501  502  0.00000000000E+00  0.00000000000E+00  0.28984523714E+03  0.28984523714E+03  0.00000000000E+00 0.  1.
         21   -1    0    0  502  503 -0.00000000000E+00 -0.00000000000E+00 -0.26738670464E+03  0.26738670464E+03  0.00000000000E+00 0.  1.
         -6    2    1    2    0  503  0.57821554123E+02  0.31525360660E+02 -0.19641421187E+03  0.26968044751E+03  0.17266099924E+03 0.  0.
        -24    2    3    3    0    0  0.53359181793E+02  0.17901991639E+01 -0.28944258022E+02  0.99467733423E+02  0.78775966038E+02 0.  0.
          6    2    1    2  501    0 -0.57821554123E+02 -0.31525360660E+02  0.21887274436E+03  0.28755149427E+03  0.17448038041E+03 0.  0.
         24    2    5    5    0    0  0.31318246456E+02 -0.23451554757E+02  0.67244386930E+02  0.11141422063E+03  0.79752824419E+02 0.  0.
          5    1    5    5  501    0 -0.89139800580E+02 -0.80738059036E+01  0.15162835743E+03  0.17613727365E+03  0.47000000000E+01 0. -1.
        -13    1    6    6    0    0  0.37346243636E+02  0.16123724393E+02  0.57116145478E+02  0.70121112914E+02  0.00000000000E+00 0.  1.
         14    1    6    6    0    0 -0.60279971795E+01 -0.39575279149E+02  0.10128241452E+02  0.41293107714E+02  0.00000000000E+00 0. -1.
         -5    1    3    3    0  503  0.44623723306E+01  0.29735161496E+02 -0.16746995384E+03  0.17021271409E+03  0.47000000000E+01 0.  1.
         11    1    4    4    0    0  0.31292245665E+02  0.29971501804E+02  0.12120571417E+02  0.44993375185E+02  0.00000000000E+00 0. -1.
        -12    1    4    4    0    0  0.22066936128E+02 -0.28181302640E+02 -0.41064829439E+02  0.54474358238E+02  0.00000000000E+00 0.  1.
</event>
<event>
12    1  0.8494789E-002  0.1952091E+03  0.7818608E-02  0.1154514E+00
         21   -1    0    0  503  502  0.00000000000E+00  0.00000000000E+00  0.11395924832E+04  0.11395924832E+04  0.00000000000E+00 0. -1.
         21   -1    0    0  501  503 -0.00000000000E+00 -0.00000000000E+00 -0.10203640451E+03  0.10203640451E+03  0.00000000000E+00 0. -1.
          6    2    1    2  501    0 -0.28097113409E+02 -0.80838025617E+02  0.91497081375E+01  0.19542343528E+03  0.17544904597E+03 0.  0.
         24    2    3    3    0    0 -0.42595174675E+02  0.17799278199E+02 -0.13434909970E+02  0.93092274539E+02  0.79715190289E+02 0.  0.
         -6    2    1    2    0  502  0.28097113409E+02  0.80838025617E+02  0.10284063706E+04  0.10462054524E+04  0.17205217679E+03 0.  0.
        -24    2    5    5    0    0  0.69405147137E+02  0.54284166828E+02  0.52338011261E+03  0.53877558311E+03  0.92674384078E+02 0.  0.
          5    1    3    3  501    0  0.14498061266E+02 -0.98637303816E+02  0.22584618107E+02  0.10233116075E+03  0.47000000000E+01 0. -1.
        -11    1    4    4    0    0 -0.37201038042E+02  0.13746456941E+02  0.29627661955E+02  0.49504349938E+02  0.00000000000E+00 0.  1.
         12    1    4    4    0    0 -0.53941366331E+01  0.40528212579E+01 -0.43062571925E+02  0.43587924601E+02  0.00000000000E+00 0. -1.
         -5    1    5    5    0  502 -0.41308033728E+02  0.26553858789E+02  0.50502625796E+03  0.50742986934E+03  0.47000000000E+01 0.  1.
         13    1    6    6    0    0 -0.17134634325E+02  0.22543951227E+02  0.60393757121E+02  0.66702558643E+02  0.00000000000E+00 0. -1.
        -14    1    6    6    0    0  0.86539781462E+02  0.31740215601E+02  0.46298635549E+03  0.47207302446E+03  0.00000000000E+00 0.  1.
</event>
<event>
12    1  0.8494789E-002  0.2217355E+03  0.7818608E-02  0.1132930E+00
         21   -1    0    0  501  502  0.00000000000E+00  0.00000000000E+00  0.32523630662E+03  0.32523630662E+03  0.00000000000E+00 0. -1.
         21   -1    0    0  502  503 -0.00000000000E+00 -0.00000000000E+00 -0.18393916043E+03  0.18393916043E+03  0.00000000000E+00 0. -1.
         -6    2    1    2    0  503 -0.13777714468E+03 -0.26578498447E+02  0.17986133223E+03  0.28411142814E+03  0.16935243310E+03 0.  0.
        -24    2    3    3    0    0 -0.86390387656E+02 -0.52423331683E+02  0.46767106464E+02  0.13904345396E+03  0.83273135272E+02 0.  0.
          6    2    1    2  501    0  0.13777714468E+03  0.26578498447E+02 -0.38564186030E+02  0.22506403891E+03  0.17169061416E+03 0.  0.
         24    2    5    5    0    0  0.32677896328E+02 -0.22856019826E+02 -0.55954997430E+02  0.10753041001E+03  0.82713873014E+02 0.  0.
          5    1    5    5  501    0  0.10509924835E+03  0.49434518273E+02  0.17390811399E+02  0.11753362889E+03  0.47000000000E+01 0. -1.
        -13    1    6    6    0    0  0.43056911509E+02 -0.35345799683E+02 -0.72340701007E+01  0.56174326468E+02  0.00000000000E+00 0.  1.
         14    1    6    6    0    0 -0.10379015181E+02  0.12489779858E+02 -0.48720927329E+02  0.51356083542E+02  0.00000000000E+00 0. -1.
         -5    1    3    3    0  503 -0.51386757019E+02  0.25844833236E+02  0.13309422576E+03  0.14506797418E+03  0.47000000000E+01 0.  1.
         13    1    4    4    0    0 -0.32338535233E+02  0.18832642434E+02 -0.14230352620E+01  0.37449623649E+02  0.00000000000E+00 0. -1.
        -14    1    4    4    0    0 -0.54051852423E+02 -0.71255974117E+02  0.48190141726E+02  0.10159383031E+03  0.00000000000E+00 0.  1.
</event>
<event>
12    1  0.8494789E-002  0.3229791E+03  0.7818608E-02  0.1074638E+00
         21   -1    0    0  501  502  0.00000000000E+00  0.00000000000E+00  0.67283819297E+03  0.67283819297E+03  0.00000000000E+00 0.  1.
         21   -1    0    0  502  503 -0.00000000000E+00 -0.00000000000E+00 -0.23638415930E+03  0.23638415930E+03  0.00000000000E+00 0. -1.
         -6    2    1    2    0  503 -0.93328439333E+02  0.25595503247E+03 -0.50180828341E+02  0.32685409830E+03  0.17347135155E+03 0.  0.
        -24    2    3    3    0    0 -0.18150316086E+02  0.12453594583E+03  0.34087557878E+02  0.15351634285E+03  0.81034993322E+02 0.  0.
          6    2    1    2  501    0  0.93328439333E+02 -0.25595503247E+03  0.48663486201E+03  0.58236825398E+03  0.16767861546E+03 0.  0.
         24    2    5    5    0    0  0.10276337181E+03 -0.22554294857E+03  0.48467536178E+03  0.55012166596E+03  0.79332898627E+02 0.  0.
          5    1    5    5  501    0 -0.94349324764E+01 -0.30412083894E+02  0.19595002288E+01  0.32246588017E+02  0.47000000000E+01 0. -1.
        -11    1    6    6    0    0  0.85164890706E+02 -0.22214647747E+03  0.47064408510E+03  0.52735943236E+03  0.00000000000E+00 0.  1.
         12    1    6    6    0    0  0.17598481103E+02 -0.33964711080E+01  0.14031276676E+02  0.22762233596E+02  0.00000000000E+00 0. -1.
         -5    1    3    3    0  503 -0.75178123247E+02  0.13141908664E+03 -0.84268386219E+02  0.17333775545E+03  0.47000000000E+01 0.  1.
         13    1    4    4    0    0 -0.17666042101E+02  0.76120646022E+02 -0.20262070644E+02  0.80727896672E+02  0.00000000000E+00 0. -1.
        -14    1    4    4    0    0 -0.48427398466E+00  0.48415299805E+02  0.54349628521E+02  0.72788446177E+02  0.00000000000E+00 0.  1.
</event>
<event>
12    1  0.8494789E-002  0.1887995E+03  0.7818608E-02  0.1159918E+00
         21   -1    0    0  503  502  0.00000000000E+00  0.00000000000E+00  0.31673148379E+03  0.31673148379E+03  0.00000000000E+00 0. -1.
         21   -1    0    0  501  503 -0.00000000000E+00 -0.00000000000E+00 -0.13064202583E+04  0.13064202583E+04  0.00000000000E+00 0.  1.
          6    2    1    2  501    0  0.29580226313E+02  0.69590533048E+02 -0.12708069674E+04  0.12845181970E+04  0.17122738713E+03 0.  0.
         24    2    3    3    0    0 -0.34503133561E+02  0.22383392982E+01 -0.46919522389E+03  0.47751976314E+03  0.81764843781E+02 0.  0.
         -6    2    1    2    0  502 -0.29580226313E+02 -0.69590533048E+02  0.28111819279E+03  0.33863354512E+03  0.17299539729E+03 0.  0.
        -24    2    5    5    0    0  0.17172177466E+02 -0.22312803852E+02  0.25282498734E+03  0.26622107097E+03  0.78488467393E+02 0.  0.
          5    1    3    3  501    0  0.64083359874E+02  0.67352193750E+02 -0.80161174346E+03  0.80699843387E+03  0.47000000000E+01 0. -1.
        -13    1    4    4    0    0 -0.10667336392E+02  0.40174548433E+02 -0.28144168387E+03  0.28449465343E+03  0.00000000000E+00 0.  1.
         14    1    4    4    0    0 -0.23835797168E+02 -0.37936209134E+02 -0.18775354002E+03  0.19302510971E+03  0.00000000000E+00 0. -1.
         -5    1    5    5    0  502 -0.46752403779E+02 -0.47277729196E+02  0.28293205458E+02  0.72412474148E+02  0.47000000000E+01 0.  1.
         13    1    6    6    0    0 -0.28383293319E+02 -0.37533964566E+01  0.50988587594E+02  0.58476793597E+02  0.00000000000E+00 0. -1.
        -14    1    6    6    0    0  0.45555470785E+02 -0.18559407395E+02  0.20183639974E+03  0.20774427738E+03  0.00000000000E+00 0.  1.
</event>
<event>
12    1  0.8494789E-002  0.1932212E+03  0.7818608E-02  0.1155670E+00
         21   -1    0    0  503  502  0.00000000000E+00  0.00000000000E+00  0.10563195813E+03  0.10563195813E+03  0.00000000000E+00 0. -1.
         21   -1    0    0  501  503 -0.00000000000E+00 -0.00000000000E+00 -0.41983725062E+03  0.41983725062E+03  0.00000000000E+00 0.  1.
          6    2    1    2  501    0  0.38148694236E+02 -0.79369057445E+02 -0.26199560195E+03  0.32531855880E+03  0.17156835113E+03 0.  0.
         24    2    3    3    0    0 -0.38572879669E+01 -0.90707602134E+02 -0.25377738682E+03  0.28079110439E+03  0.78726961643E+02 0.  0.
         -6    2    1    2    0  502 -0.38148694236E+02  0.79369057445E+02 -0.52209690545E+02  0.20015064995E+03  0.17198738540E+03 0.  0.
        -24    2    5    5    0    0 -0.65479794508E+02  0.11029562060E+03 -0.47284244983E+02  0.15832014236E+03  0.79854494174E+02 0.  0.
          5    1    3    3  501    0  0.42005982203E+02  0.11338544689E+02 -0.82182151345E+01  0.44527454413E+02  0.47000000000E+01 0. -1.
        -11    1    4    4    0    0  0.24613155568E+02  0.50201804124E+00 -0.52525541106E+02  0.58008550384E+02  0.00000000000E+00 0.  1.
         12    1    4    4    0    0 -0.28470443535E+02 -0.91209620175E+02 -0.20125184571E+03  0.22278255401E+03  0.00000000000E+00 0. -1.
         -5    1    5    5    0  502  0.27331100272E+02 -0.30926563160E+02 -0.49254455621E+01  0.41830507586E+02  0.47000000000E+01 0.  1.
         13    1    6    6    0    0  0.10782150104E+02 -0.38834575947E+01  0.34077667792E+01  0.11956123042E+02  0.00000000000E+00 0. -1.
        -14    1    6    6    0    0 -0.76261944612E+02  0.11417907820E+03 -0.50692011762E+02  0.14636401932E+03  0.00000000000E+00 0.  1.
</event>
<event>
12    1  0.8494789E-002  0.1906251E+03  0.7818608E-02  0.1158104E+00
         21   -1    0    0  501  502  0.00000000000E+00  0.00000000000E+00  0.23696515077E+04  0.23696515077E+04  0.00000000000E+00 0. -1.
         21   -1    0    0  502  503 -0.00000000000E+00 -0.00000000000E+00 -0.26365845357E+02  0.26365845357E+02  0.00000000000E+00 0. -1.
         -6    2    1    2    0  503 -0.79987123772E+02 -0.93698877153E+01  0.39579487116E+03  0.43930798459E+03  0.17277786468E+03 0.  0.
        -24    2    3    3    0    0  0.16263600193E+02 -0.37402500458E+02  0.20199583634E+03  0.22106457658E+03  0.80023605203E+02 0.  0.
          6    2    1    2  501    0  0.79987123772E+02  0.93698877153E+01  0.19474907912E+04  0.19567093685E+04  0.17177146486E+03 0.  0.
         24    2    5    5    0    0 -0.16464389859E+02 -0.13451102861E+02  0.68358853759E+03  0.68891810460E+03  0.82842367323E+02 0.  0.
          5    1    5    5  501    0  0.96451513631E+02  0.22820990577E+02  0.12639022536E+04  0.12677912639E+04  0.47000000000E+01 0. -1.
        -11    1    6    6    0    0 -0.14813312663E+02 -0.16524040772E+02  0.68484937327E+03  0.68520883110E+03  0.00000000000E+00 0.  1.
         12    1    6    6    0    0 -0.16510771962E+01  0.30729379109E+01 -0.12608356761E+01  0.37092735022E+01  0.00000000000E+00 0. -1.
         -5    1    3    3    0  503 -0.96250723965E+02  0.28032612743E+02  0.19379903482E+03  0.21824340801E+03  0.47000000000E+01 0.  1.
         13    1    4    4    0    0  0.83483239511E+01 -0.55159618288E+02  0.80009282669E+02  0.97538522214E+02  0.00000000000E+00 0. -1.
        -14    1    4    4    0    0  0.79152762422E+01  0.17757117830E+02  0.12198655367E+03  0.12352605437E+03  0.00000000000E+00 0.  1.
</event>
<event>
12    1  0.8494789E-002  0.1881075E+03  0.7818608E-02  0.1160378E+00
         21   -1    0    0  501  502  0.00000000000E+00  0.00000000000E+00  0.14178428015E+03  0.14178428015E+03  0.00000000000E+00 0. -1.
         21   -1    0    0  502  503 -0.00000000000E+00 -0.00000000000E+00 -0.26196369857E+03  0.26196369857E+03  0.00000000000E+00 0. -1.
         -6    2    1    2    0  503 -0.66485346418E+02 -0.33102207385E+02 -0.10586518442E+03  0.21509662479E+03  0.17188095677E+03 0.  0.
        -24    2    3    3    0    0 -0.10045641391E+03  0.12851981942E+02 -0.79298054091E+02  0.15190071228E+03  0.80802106871E+02 0.  0.
          6    2    1    2  501    0  0.66485346418E+02  0.33102207385E+02 -0.14314233999E+02  0.18865135393E+03  0.17282470490E+03 0.  0.
         24    2    5    5    0    0  0.64569808725E+02 -0.18902530994E+02 -0.58714929989E+02  0.12008260082E+03  0.80285877585E+02 0.  0.
          5    1    5    5  501    0  0.19155376926E+01  0.52004738380E+02  0.44400695990E+02  0.68568753110E+02  0.47000000000E+01 0. -1.
        -11    1    6    6    0    0  0.18064268356E+02 -0.28512163200E+02  0.11202156258E+02  0.35563317427E+02  0.00000000000E+00 0.  1.
         12    1    6    6    0    0  0.46505540369E+02  0.96096322061E+01 -0.69917086247E+02  0.84519283394E+02  0.00000000000E+00 0. -1.
         -5    1    3    3    0  503  0.33971067489E+02 -0.45954189327E+02 -0.26567130332E+02  0.63195912503E+02  0.47000000000E+01 0.  1.
         13    1    4    4    0    0 -0.71417586580E+02  0.10943634696E+02 -0.53693583308E+01  0.72450430103E+02  0.00000000000E+00 0. -1.
        -14    1    4    4    0    0 -0.29038827327E+02  0.19083472455E+01 -0.73928695760E+02  0.79450282180E+02  0.00000000000E+00 0.  1.
</event>
<event>
12    1  0.8494789E-002  0.2125917E+03  0.7818608E-02  0.1139674E+00
         21   -1    0    0  501  502  0.00000000000E+00  0.00000000000E+00  0.14659115886E+03  0.14659115886E+03  0.00000000000E+00 0.  1.
         21   -1    0    0  502  503 -0.00000000000E+00 -0.00000000000E+00 -0.44324238808E+03  0.44324238808E+03  0.00000000000E+00 0. -1.
         -6    2    1    2    0  503 -0.89319733688E+02 -0.87852864986E+02 -0.31186889256E+03  0.37743536859E+03  0.17175305122E+03 0.  0.
        -24    2    3    3    0    0 -0.65155594281E+02  0.68966049703E+01 -0.21785993980E+03  0.24171086495E+03  0.81660114116E+02 0.  0.
          6    2    1    2  501    0  0.89319733688E+02  0.87852864986E+02  0.15217663332E+02  0.21239817835E+03  0.17083696373E+03 0.  0.
         24    2    5    5    0    0 -0.24826574336E+02  0.21871087290E+02 -0.29408301338E+01  0.79226126069E+02  0.71926541120E+02 0.  0.
          5    1    5    5  501    0  0.11414630802E+03  0.65981777697E+02  0.18158493466E+02  0.13317205228E+03  0.47000000000E+01 0. -1.
        -13    1    6    6    0    0 -0.23271791214E+02  0.47758978581E+02 -0.15926115613E-01  0.53127173415E+02  0.00000000000E+00 0.  1.
         14    1    6    6    0    0 -0.15547831216E+01 -0.25887891292E+02 -0.29249040182E+01  0.26098952653E+02  0.00000000000E+00 0. -1.
         -5    1    3    3    0  503 -0.24164139407E+02 -0.94749469957E+02 -0.94008952755E+02  0.13572450364E+03  0.47000000000E+01 0.  1.
         13    1    4    4    0    0 -0.74515129878E+02 -0.64862192502E-01 -0.10787339406E+03  0.13110750526E+03  0.00000000000E+00 0. -1.
        -14    1    4    4    0    0  0.93595355966E+01  0.69614671628E+01 -0.10998654574E+03  0.11060335969E+03  0.00000000000E+00 0.  1.
</event>
<event>
12    1  0.8494789E-002  0.1841252E+03  0.7818608E-02  0.1164462E+00
         21   -1    0    0  503  502  0.00000000000E+00  0.00000000000E+00  0.13225739388E+03  0.13225739388E+03  0.00000000000E+00 0. -1.
         21   -1    0    0  501  503 -0.00000000000E+00 -0.00000000000E+00 -0.33611231819E+03  0.33611231819E+03  0.00000000000E+00 0. -1.
          6    2    1    2  501    0 -0.63563147858E+02  0.95763590524E+01 -0.21795195784E+03  0.28370565458E+03  0.16986424608E+03 0.  0.
         24    2    3    3    0    0 -0.59932597813E+02  0.25930227819E+02 -0.54785654152E+02  0.11961433069E+03  0.83915595752E+02 0.  0.
         -6    2    1    2    0  502  0.63563147858E+02 -0.95763590524E+01  0.14097033521E+02  0.18466405749E+03  0.17254016157E+03 0.  0.
        -24    2    5    5    0    0  0.10342879066E+03 -0.31885393515E+02 -0.60607516078E+01  0.13451040562E+03  0.79637450073E+02 0.  0.
          5    1    3    3  501    0 -0.36305500454E+01 -0.16353868767E+02 -0.16316630368E+03  0.16409132389E+03  0.47000000000E+01 0. -1.
        -13    1    4    4    0    0  0.12527082718E+02 -0.12640324807E+02 -0.28171537156E+02  0.33321781441E+02  0.00000000000E+00 0.  1.
         14    1    4    4    0    0 -0.72459680531E+02  0.38570552626E+02 -0.26614116996E+02  0.86292549250E+02  0.00000000000E+00 0. -1.
         -5    1    5    5    0  502 -0.39865642798E+02  0.22309034463E+02  0.20157785129E+02  0.50153651868E+02  0.47000000000E+01 0.  1.
         13    1    6    6    0    0  0.45446282723E+02  0.21913279600E+02  0.15040303910E+02  0.52647575233E+02  0.00000000000E+00 0. -1.
        -14    1    6    6    0    0  0.57982507934E+02 -0.53798673115E+02 -0.21101055518E+02  0.81862830388E+02  0.00000000000E+00 0.  1.
</event>
<event>
12    1  0.8494789E-002  0.1717181E+03  0.7818608E-02  0.1176070E+00
         21   -1    0    0  501  502  0.00000000000E+00  0.00000000000E+00  0.22383620208E+03  0.22383620208E+03  0.00000000000E+00 0. -1.
         21   -1    0    0  502  503 -0.00000000000E+00 -0.00000000000E+00 -0.29042671000E+03  0.29042671000E+03  0.00000000000E+00 0. -1.
         -6    2    1    2    0  503  0.50423013151E+01 -0.44454947391E+01 -0.22336882120E+03  0.28174589955E+03  0.17158652162E+03 0.  0.
        -24    2    3    3    0    0 -0.63547847546E+02 -0.10349591645E+02 -0.13945398881E+03  0.17310310883E+03  0.79823732777E+02 0.  0.
          6    2    1    2  501    0 -0.50423013151E+01  0.44454947391E+01  0.15677831328E+03  0.23251701254E+03  0.17157952785E+03 0.  0.
         24    2    5    5    0    0  0.84254207232E+01  0.61615731653E+02  0.59992853797E+02  0.11920624212E+03  0.82118813629E+02 0.  0.
          5    1    5    5  501    0 -0.13467722038E+02 -0.57170236914E+02  0.96785459482E+02  0.11331077042E+03  0.47000000000E+01 0. -1.
        -13    1    6    6    0    0  0.37625932912E+02  0.62599633117E+02  0.49183894853E+02  0.88053849472E+02  0.00000000000E+00 0.  1.
         14    1    6    6    0    0 -0.29200512188E+02 -0.98390146440E+00  0.10808958944E+02  0.31152392647E+02  0.00000000000E+00 0. -1.
         -5    1    3    3    0  503  0.68590148861E+02  0.59040969055E+01 -0.83914832387E+02  0.10864279072E+03  0.47000000000E+01 0.  1.
         13    1    4    4    0    0  0.65330584502E+01 -0.64399779972E+01 -0.81681520816E+02  0.82195042504E+02  0.00000000000E+00 0. -1.
        -14    1    4    4    0    0 -0.70080905996E+02 -0.39096136474E+01 -0.57772467998E+02  0.90908066323E+02  0.00000000000E+00 0.  1.
</event>
<event>
12    1  0.8494789E-002  0.1811936E+03  0.7818608E-02  0.1166748E+00
         21   -1    0    0  503  502  0.00000000000E+00  0.00000000000E+00  0.14168603920E+04  0.14168603920E+04  0.00000000000E+00 0. -1.
         21   -1    0    0  501  503 -0.00000000000E+00 -0.00000000000E+00 -0.24332794632E+02  0.24332794632E+02  0.00000000000E+00 0. -1.
          6    2    1    2  501    0  0.36914160234E+02  0.42697253778E+02  0.53619631236E+03  0.56598374377E+03  0.17217840199E+03 0.  0.
         24    2    3    3    0    0 -0.12773468207E+02  0.64856146993E+02  0.13534717214E+03  0.16143213990E+03  0.58068903001E+02 0.  0.
         -6    2    1    2    0  502 -0.36914160234E+02 -0.42697253778E+02  0.85633128500E+03  0.87520944286E+03  0.17176317560E+03 0.  0.
        -24    2    5    5    0    0 -0.39821174068E+02 -0.90761753334E+01  0.82180460534E+03  0.82670161613E+03  0.80029056595E+02 0.  0.
          5    1    3    3  501    0  0.49687628442E+02 -0.22158893216E+02  0.40084914023E+03  0.40455160387E+03  0.47000000000E+01 0. -1.
        -11    1    4    4    0    0 -0.23283839010E+02  0.18461877685E+01  0.27446493664E+02  0.36039639049E+02  0.00000000000E+00 0.  1.
         12    1    4    4    0    0  0.10510370802E+02  0.63009959225E+02  0.10790067847E+03  0.12539250085E+03  0.00000000000E+00 0. -1.
         -5    1    5    5    0  502  0.29070138343E+01 -0.33621078444E+02  0.34526679662E+02  0.48507826726E+02  0.47000000000E+01 0.  1.
         13    1    6    6    0    0 -0.34254484312E+02 -0.35086299224E+02  0.28121706480E+03  0.28546007711E+03  0.00000000000E+00 0. -1.
        -14    1    6    6    0    0 -0.55666897566E+01  0.26010123890E+02  0.54058754054E+03  0.54124153903E+03  0.00000000000E+00 0.  1.
</event>
<event>
12    1  0.8494789E-002  0.2022669E+03  0.7818608E-02  0.1148206E+00
         21   -1    0    0  501  502  0.00000000000E+00  0.00000000000E+00  0.12655654023E+03  0.12655654023E+03  0.00000000000E+00 0.  1.
         21   -1    0    0  502  503 -0.00000000000E+00 -0.00000000000E+00 -0.15646361908E+04  0.15646361908E+04  0.00000000000E+00 0. -1.
         -6    2    1    2    0  503  0.85353106629E+02 -0.61050889868E+02 -0.14724377477E+04  0.14860284390E+04  0.17086613651E+03 0.  0.
        -24    2    3    3    0    0  0.28604155952E+02 -0.65218158616E+02 -0.13014855730E+04  0.13057937431E+04  0.78492019059E+02 0.  0.
          6    2    1    2  501    0 -0.85353106629E+02  0.61050889868E+02  0.34358097205E+02  0.20516429199E+03  0.17291484581E+03 0.  0.
         24    2    5    5    0    0 -0.58571606204E+02  0.98549547277E+01  0.82980235577E+02  0.12950403241E+03  0.79735950040E+02 0.  0.
          5    1    5    5  501    0 -0.26781500425E+02  0.51195935141E+02 -0.48622138372E+02  0.75660259580E+02  0.47000000000E+01 0. -1.
        -11    1    6    6    0    0 -0.47531507301E+02  0.31504270818E+02  0.17483602565E+02  0.59644275708E+02  0.00000000000E+00 0.  1.
         12    1    6    6    0    0 -0.11040098904E+02 -0.21649316090E+02  0.65496633012E+02  0.69859756705E+02  0.00000000000E+00 0. -1.
         -5    1    3    3    0  503  0.56748950677E+02  0.41672687476E+01 -0.17095217477E+03  0.18023469586E+03  0.47000000000E+01 0.  1.
         13    1    4    4    0    0  0.15826203374E+02  0.78306043288E-01 -0.76961213018E+03  0.76977484095E+03  0.00000000000E+00 0. -1.
        -14    1    4    4    0    0  0.12777952578E+02 -0.65296464659E+02 -0.53187344279E+03  0.53601890220E+03  0.00000000000E+00 0.  1.
</event>
<event>
12    1  0.8494789E-002  0.2217751E+03  0.7818608E-02  0.1132599E+00
         21   -1    0    0  501  502  0.00000000000E+00  0.00000000000E+00  0.63048685272E+02  0.63048685272E+02  0.00000000000E+00 0. -1.
         21   -1    0    0  502  503 -0.00000000000E+00 -0.00000000000E+00 -0.92020145107E+03  0.92020145107E+03  0.00000000000E+00 0.  1.
         -6    2    1    2    0  503 -0.11215955208E+03 -0.83629333851E+02 -0.62096974269E+03  0.65938426394E+03  0.17207717920E+03 0.  0.
        -24    2    3    3    0    0  0.10726477639E+02 -0.41818466086E+02 -0.23746376852E+03  0.25447927857E+03  0.80664864908E+02 0.  0.
          6    2    1    2  501    0  0.11215955208E+03  0.83629333851E+02 -0.23618302311E+03  0.32386587240E+03  0.17185183239E+03 0.  0.
         24    2    5    5    0    0  0.13533869728E+03  0.82998348312E+02 -0.14746225205E+03  0.23204465409E+03  0.83032023378E+02 0.  0.
          5    1    5    5  501    0 -0.23179145202E+02  0.63098553894E+00 -0.88720771062E+02  0.91821218315E+02  0.47000000000E+01 0. -1.
        -11    1    6    6    0    0  0.25772009395E+02 -0.64841404696E+01 -0.60269335904E+02  0.65868303426E+02  0.00000000000E+00 0.  1.
         12    1    6    6    0    0  0.10956668788E+03  0.89482488782E+02 -0.87192916145E+02  0.16617635066E+03  0.00000000000E+00 0. -1.
         -5    1    3    3    0  503 -0.12288602972E+03 -0.41810867765E+02 -0.38350597417E+03  0.40490498538E+03  0.47000000000E+01 0.  1.
         13    1    4    4    0    0  0.46939816841E+01 -0.60391819030E+02 -0.22031350623E+03  0.22848905072E+03  0.00000000000E+00 0. -1.
        -14    1    4    4    0    0  0.60324959554E+01  0.18573352943E+02 -0.17150262291E+02  0.25990227850E+02  0.00000000000E+00 0.  1.
</event>
<event>
12    1  0.8494789E-002  0.2069968E+03  0.7818608E-02  0.1145108E+00
         21   -1    0    0  501  502  0.00000000000E+00  0.00000000000E+00  0.22620391045E+03  0.22620391045E+03  0.00000000000E+00 0. -1.
         21   -1    0    0  502  503 -0.00000000000E+00 -0.00000000000E+00 -0.27131632443E+03  0.27131632443E+03  0.00000000000E+00 0. -1.
         -6    2    1    2    0  503  0.44770565475E+02 -0.81469076599E+02 -0.16359315214E+03  0.26383779373E+03  0.18494877128E+03 0.  0.
        -24    2    3    3    0    0  0.37579879061E+02 -0.44303322581E+02 -0.19212537734E+03  0.21620191317E+03  0.80349704025E+02 0.  0.
          6    2    1    2  501    0 -0.44770565475E+02  0.81469076599E+02  0.11848073817E+03  0.23368244115E+03  0.17868459365E+03 0.  0.
         24    2    5    5    0    0 -0.75164320814E+02  0.19126793515E+02  0.53943245561E+02  0.13882719050E+03  0.10172318185E+03 0.  0.
          5    1    5    5  501    0  0.30393755339E+02  0.62342283084E+02  0.64537492609E+02  0.94855250650E+02  0.47000000000E+01 0. -1.
        -13    1    6    6    0    0 -0.40937547547E+02  0.53749563857E+02  0.19407614573E+01  0.67591900174E+02  0.00000000000E+00 0.  1.
         14    1    6    6    0    0 -0.34226773266E+02 -0.34622770342E+02  0.52002484103E+02  0.71235290323E+02  0.00000000000E+00 0. -1.
         -5    1    3    3    0  503  0.71906864140E+01 -0.37165754018E+02  0.28532225195E+02  0.47635880567E+02  0.47000000000E+01 0.  1.
         11    1    4    4    0    0  0.48079663192E+02 -0.17087246182E+02 -0.51183825124E+02  0.72273175861E+02  0.00000000000E+00 0. -1.
        -12    1    4    4    0    0 -0.10499784131E+02 -0.27216076399E+02 -0.14094155221E+03  0.14392873730E+03  0.00000000000E+00 0.  1.
</event>
<event>
12    1  0.8494789E-002  0.2387239E+03  0.7818608E-02  0.1120795E+00
         21   -1    0    0  503  502  0.00000000000E+00  0.00000000000E+00  0.16927700472E+03  0.16927700472E+03  0.00000000000E+00 0.  1.
         21   -1    0    0  501  503 -0.00000000000E+00 -0.00000000000E+00 -0.35936554821E+03  0.35936554821E+03  0.00000000000E+00 0.  1.
          6    2    1    2  501    0  0.19225450668E+02  0.16334033140E+03 -0.16345106237E+03  0.28931877595E+03  0.17303012025E+03 0.  0.
         24    2    3    3    0    0  0.71023168593E+02  0.15140164872E+03 -0.12153594659E+03  0.22146229021E+03  0.79421722223E+02 0.  0.
         -6    2    1    2    0  502 -0.19225450668E+02 -0.16334033140E+03 -0.26637481119E+02  0.23932377697E+03  0.17180405411E+03 0.  0.
        -24    2    5    5    0    0  0.40013972245E+02 -0.67449446736E+02 -0.53929166126E+02  0.12325786010E+03  0.78317298712E+02 0.  0.
          5    1    3    3  501    0 -0.51797717925E+02  0.11938682684E+02 -0.41915115783E+02  0.67856485745E+02  0.47000000000E+01 0. -1.
        -11    1    4    4    0    0 -0.13274184935E+01  0.90645792133E+02 -0.59067733832E+02  0.10820082648E+03  0.00000000000E+00 0.  1.
         12    1    4    4    0    0  0.72350587087E+02  0.60755856585E+02 -0.62468212753E+02  0.11326146373E+03  0.00000000000E+00 0. -1.
         -5    1    5    5    0  502 -0.59239422912E+02 -0.95890884666E+02  0.27291685007E+02  0.11606591687E+03  0.47000000000E+01 0.  1.
         13    1    6    6    0    0  0.60686129970E+02 -0.57329296485E+02 -0.26797768395E+02  0.87678817266E+02  0.00000000000E+00 0. -1.
        -14    1    6    6    0    0 -0.20672157725E+02 -0.10120150251E+02 -0.27131397731E+02  0.35579042834E+02  0.00000000000E+00 0.  1.
</event>
<event>
12    1  0.8494789E-002  0.1895083E+03  0.7818608E-02  0.1159712E+00
         21   -1    0    0  501  502  0.00000000000E+00  0.00000000000E+00  0.39111329072E+03  0.39111329072E+03  0.00000000000E+00 0. -1.
         21   -1    0    0  502  503 -0.00000000000E+00 -0.00000000000E+00 -0.32439725132E+03  0.32439725132E+03  0.00000000000E+00 0. -1.
         -6    2    1    2    0  503  0.89277655808E+01 -0.77101173821E+02 -0.27057747942E+03  0.33034159597E+03  0.17288464841E+03 0.  0.
        -24    2    3    3    0    0  0.27336621056E+02 -0.85878159205E+02 -0.28183634258E+03  0.30657663369E+03  0.80219444335E+02 0.  0.
          6    2    1    2  501    0 -0.89277655808E+01  0.77101173821E+02  0.33729351882E+03  0.38516894606E+03  0.16900858905E+03 0.  0.
         24    2    5    5    0    0  0.23551077551E+02  0.69596446986E+02  0.10532052001E+03  0.15076596325E+03  0.78991423921E+02 0.  0.
          5    1    5    5  501    0 -0.32478843132E+02  0.75047268348E+01  0.23197299881E+03  0.23440298281E+03  0.47000000000E+01 0. -1.
        -13    1    6    6    0    0 -0.53123124858E+01  0.20290127434E+02 -0.91087281941E+01  0.22866544657E+02  0.00000000000E+00 0.  1.
         14    1    6    6    0    0  0.28863390037E+02  0.49306319552E+02  0.11442924820E+03  0.12789941859E+03  0.00000000000E+00 0. -1.
         -5    1    3    3    0  503 -0.18408855476E+02  0.87769853846E+01  0.11258863159E+02  0.23764962276E+02  0.47000000000E+01 0.  1.
         13    1    4    4    0    0 -0.10828268360E+02 -0.31630065908E+02 -0.19210274026E+03  0.19499019278E+03  0.00000000000E+00 0. -1.
        -14    1    4    4    0    0  0.38164889416E+02 -0.54248093297E+02 -0.89733602317E+02  0.11158644091E+03  0.00000000000E+00 0.  1.
</event>
<event>
12    1  0.8494789E-002  0.1730134E+03  0.7818608E-02  0.1175042E+00
         21   -1    0    0  501  502  0.00000000000E+00  0.00000000000E+00  0.30635210858E+02  0.30635210858E+02  0.00000000000E+00 0. -1.
         21   -1    0    0  502  503 -0.00000000000E+00 -0.00000000000E+00 -0.11489332749E+04  0.11489332749E+04  0.00000000000E+00 0. -1.
         -6    2    1    2    0  503 -0.20889345385E+02 -0.65181465902E+01 -0.32831303467E+03  0.37111059917E+03  0.17162394093E+03 0.  0.
        -24    2    3    3    0    0  0.12563178022E+02  0.53450870587E+02 -0.24066845857E+03  0.25966995998E+03  0.80575133625E+02 0.  0.
          6    2    1    2  501    0  0.20889345385E+02  0.65181465902E+01 -0.78998502935E+03  0.80845788656E+03  0.17043754505E+03 0.  0.
         24    2    5    5    0    0  0.62185139725E+01 -0.54548478722E+02 -0.32196018710E+03  0.33621461346E+03  0.79797855760E+02 0.  0.
          5    1    5    5  501    0  0.14670831413E+02  0.61066625312E+02 -0.46802484226E+03  0.47224327310E+03  0.47000000000E+01 0. -1.
        -11    1    6    6    0    0 -0.24696373437E+02 -0.24291386394E+01 -0.34870327288E+02  0.42798963779E+02  0.00000000000E+00 0.  1.
         12    1    6    6    0    0  0.30914887409E+02 -0.52119340082E+02 -0.28708985981E+03  0.29341564968E+03  0.00000000000E+00 0. -1.
         -5    1    3    3    0  503 -0.33452523407E+02 -0.59969017177E+02 -0.87644576105E+02  0.11144063919E+03  0.47000000000E+01 0.  1.
         13    1    4    4    0    0  0.22774368671E+02 -0.12929863615E+02 -0.10594680221E+03  0.10913559521E+03  0.00000000000E+00 0. -1.
        -14    1    4    4    0    0 -0.10211190649E+02  0.66380734202E+02 -0.13472165635E+03  0.15053436477E+03  0.00000000000E+00 0.  1.
</event>
<event>
12    1  0.8494789E-002  0.1962757E+03  0.7818608E-02  0.1152964E+00
         21   -1    0    0  501  502  0.00000000000E+00  0.00000000000E+00  0.19077254474E+03  0.19077254474E+03  0.00000000000E+00 0.  1.
         21   -1    0    0  502  503 -0.00000000000E+00 -0.00000000000E+00 -0.20491517827E+03  0.20491517827E+03  0.00000000000E+00 0.  1.
         -6    2    1    2    0  503  0.94015190534E+02  0.13030586201E+01 -0.31759722480E+02  0.19882867497E+03  0.17228931483E+03 0.  0.
        -24    2    3    3    0    0  0.11878481653E+03  0.23244855105E+02 -0.58414359370E+02  0.15607897938E+03  0.79361542937E+02 0.  0.
          6    2    1    2  501    0 -0.94015190534E+02 -0.13030586201E+01  0.17617088951E+02  0.19685904804E+03  0.17205397106E+03 0.  0.
         24    2    5    5    0    0 -0.32109374074E+02 -0.36166732918E+02  0.62659019854E+02  0.11260543425E+03  0.80092362808E+02 0.  0.
          5    1    5    5  501    0 -0.61905816461E+02  0.34863674298E+02 -0.45041930903E+02  0.84253613790E+02  0.47000000000E+01 0. -1.
        -13    1    6    6    0    0 -0.16596638798E+02  0.80172669133E+00 -0.16785116758E+02  0.23618453159E+02  0.00000000000E+00 0.  1.
         14    1    6    6    0    0 -0.15512735276E+02 -0.36968459609E+02  0.79444136611E+02  0.88986981090E+02  0.00000000000E+00 0. -1.
         -5    1    3    3    0  503 -0.24769625997E+02 -0.21941796485E+02  0.26654636890E+02  0.42749695587E+02  0.47000000000E+01 0.  1.
         11    1    4    4    0    0  0.10427708718E+02 -0.97948769969E+00  0.18326148823E+02  0.21107918796E+02  0.00000000000E+00 0. -1.
        -12    1    4    4    0    0  0.10835710781E+03  0.24224342804E+02 -0.76740508193E+02  0.13497106059E+03  0.00000000000E+00 0.  1.
</event>
<event>
12    1  0.8494789E-002  0.3593811E+03  0.7818608E-02  0.1058840E+00
         21   -1    0    0  503  502  0.00000000000E+00  0.00000000000E+00  0.86040185848E+03  0.86040185848E+03  0.00000000000E+00 0. -1.
         21   -1    0    0  501  503 -0.00000000000E+00 -0.00000000000E+00 -0.19577644980E+03  0.19577644980E+03  0.00000000000E+00 0. -1.
          6    2    1    2  501    0 -0.26725063152E+03  0.16720662286E+03  0.77173973475E+02  0.36757393513E+03  0.17255092242E+03 0.  0.
         24    2    3    3    0    0 -0.53875116949E+02  0.22658590444E+02 -0.72593706911E+00  0.98290200090E+02  0.79022126660E+02 0.  0.
         -6    2    1    2    0  502  0.26725063152E+03 -0.16720662286E+03  0.58745143521E+03  0.68860437315E+03  0.17232480732E+03 0.  0.
        -24    2    5    5    0    0  0.14154218659E+03 -0.20985854338E+02  0.22987612613E+03  0.28232206006E+03  0.79925687737E+02 0.  0.
          5    1    3    3  501    0 -0.21337551457E+03  0.14454803242E+03  0.77899910544E+02  0.26928373504E+03  0.47000000000E+01 0. -1.
        -13    1    4    4    0    0 -0.14131965013E+02  0.48314518343E+02 -0.59872338740E+01  0.50693708557E+02  0.00000000000E+00 0.  1.
         14    1    4    4    0    0 -0.39743151936E+02 -0.25655927898E+02  0.52612968048E+01  0.47596491532E+02  0.00000000000E+00 0. -1.
         -5    1    5    5    0  502  0.12570844493E+03 -0.14622076853E+03  0.35757530907E+03  0.40628231310E+03  0.47000000000E+01 0.  1.
         13    1    6    6    0    0  0.74514868577E+02 -0.49193624750E+02  0.10516352779E+03  0.13795595650E+03  0.00000000000E+00 0. -1.
        -14    1    6    6    0    0  0.67027318017E+02  0.28207770412E+02  0.12471259834E+03  0.14436610356E+03  0.00000000000E+00 0.  1.
</event>
<event>
12    1  0.8494789E-002  0.2946178E+03  0.7818608E-02  0.1088007E+00
         21   -1    0    0  503  502  0.00000000000E+00  0.00000000000E+00  0.75324892064E+03  0.75324892064E+03  0.00000000000E+00 0.  1.
         21   -1    0    0  501  503 -0.00000000000E+00 -0.00000000000E+00 -0.12971288097E+03  0.12971288097E+03  0.00000000000E+00 0. -1.
          6    2    1    2  501    0  0.34060173582E+02  0.23649997302E+03  0.16373670912E+03  0.33705991004E+03  0.17235817470E+03 0.  0.
         24    2    3    3    0    0  0.38269520757E+01  0.30583115745E+02  0.53233889003E+02  0.10137205918E+03  0.80575895360E+02 0.  0.
         -6    2    1    2    0  502 -0.34060173582E+02 -0.23649997302E+03  0.45979933056E+03  0.54590189156E+03  0.17175889547E+03 0.  0.
        -24    2    5    5    0    0  0.22054987314E+02 -0.11391454306E+03  0.33216790748E+03  0.36019252434E+03  0.77072629661E+02 0.  0.
          5    1    3    3  501    0  0.30233221507E+02  0.20591685727E+03  0.11050282012E+03  0.23568785086E+03  0.47000000000E+01 0. -1.
        -13    1    4    4    0    0  0.34747751878E+02 -0.23493502077E+01  0.42488560428E+02  0.54938178658E+02  0.00000000000E+00 0.  1.
         14    1    4    4    0    0 -0.30920799803E+02  0.32932465952E+02  0.10745328575E+02  0.46433880522E+02  0.00000000000E+00 0. -1.
         -5    1    5    5    0  502 -0.56115160896E+02 -0.12258542995E+03  0.12763142308E+03  0.18570936723E+03  0.47000000000E+01 0.  1.
         13    1    6    6    0    0 -0.36958605192E+01 -0.24003601922E+02  0.12883682830E+02  0.27492209323E+02  0.00000000000E+00 0. -1.
        -14    1    6    6    0    0  0.25750847833E+02 -0.89910941142E+02  0.31928422465E+03  0.33270031502E+03  0.00000000000E+00 0.  1.
</event>
<event>
12    1  0.8494789E-002  0.1809440E+03  0.7818608E-02  0.1167060E+00
         21   -1    0    0  501  502  0.00000000000E+00  0.00000000000E+00  0.87255534769E+02  0.87255534769E+02  0.00000000000E+00 0. -1.
         21   -1    0    0  502  503 -0.00000000000E+00 -0.00000000000E+00 -0.37378643098E+03  0.37378643098E+03  0.00000000000E+00 0. -1.
         -6    2    1    2    0  503  0.23479895501E+02  0.40297468992E+02 -0.14265935262E+03  0.22987158984E+03  0.17410934904E+03 0.  0.
        -24    2    3    3    0    0 -0.10035522035E+02  0.15864569908E+02 -0.16395175731E+03  0.18301322594E+03  0.79128160994E+02 0.  0.
          6    2    1    2  501    0 -0.23479895501E+02 -0.40297468992E+02 -0.14387154358E+03  0.23117037591E+03  0.17483000356E+03 0.  0.
         24    2    5    5    0    0  0.46974751370E+02 -0.32165087955E+02 -0.12188015198E+03  0.15676806283E+03  0.80499900164E+02 0.  0.
          5    1    5    5  501    0 -0.70454646871E+02 -0.81323810374E+01 -0.21991391602E+02  0.74402313080E+02  0.47000000000E+01 0. -1.
        -11    1    6    6    0    0  0.10302302311E+02 -0.52646294562E+02 -0.86812062167E+02  0.10204951691E+03  0.00000000000E+00 0.  1.
         12    1    6    6    0    0  0.36672449059E+02  0.20481206607E+02 -0.35068089815E+02  0.54718545918E+02  0.00000000000E+00 0. -1.
         -5    1    3    3    0  503  0.33515417536E+02  0.24432899084E+02  0.21292404685E+02  0.46858363901E+02  0.47000000000E+01 0.  1.
         13    1    4    4    0    0  0.31873985837E+02  0.11567598255E+02 -0.41938342906E+02  0.53931298040E+02  0.00000000000E+00 0. -1.
        -14    1    4    4    0    0 -0.41909507872E+02  0.42969716531E+01 -0.12201341440E+03  0.12908192790E+03  0.00000000000E+00 0.  1.
</event>
<event>
12    1  0.8494789E-002  0.2337229E+03  0.7818608E-02  0.1125366E+00
         21   -1    0    0  503  502  0.00000000000E+00  0.00000000000E+00  0.42968276270E+03  0.42968276270E+03  0.00000000000E+00 0. -1.
         21   -1    0    0  501  503 -0.00000000000E+00 -0.00000000000E+00 -0.12385844966E+03  0.12385844966E+03  0.00000000000E+00 0.  1.
          6    2    1    2  501    0  0.64497128819E+02 -0.13084182076E+03  0.13334585615E+03  0.26908642547E+03  0.18261140527E+03 0.  0.
         24    2    3    3    0    0  0.72732646194E+02 -0.37757464667E+02  0.13359394879E+03  0.17552001780E+03  0.79020690550E+02 0.  0.
         -6    2    1    2    0  502 -0.64497128819E+02  0.13084182076E+03  0.17247845688E+03  0.28445478689E+03  0.17287638940E+03 0.  0.
        -24    2    5    5    0    0 -0.47298930337E+01  0.15417893363E+02  0.20913190557E+02  0.84732666325E+02  0.80511985936E+02 0.  0.
          5    1    3    3  501    0 -0.82355173751E+01 -0.93084356088E+02 -0.24809263108E+00  0.93566407673E+02  0.47000000000E+01 0. -1.
        -13    1    4    4    0    0  0.37236440946E+02  0.21553116811E+02  0.37021150318E+02  0.56759624289E+02  0.00000000000E+00 0.  1.
         14    1    4    4    0    0  0.35496205248E+02 -0.59310581479E+02  0.96572798468E+02  0.11876039351E+03  0.00000000000E+00 0. -1.
         -5    1    5    5    0  502 -0.59767235786E+02  0.11542392739E+03  0.15156526632E+03  0.19972212057E+03  0.47000000000E+01 0.  1.
         11    1    6    6    0    0 -0.67489529261E+01  0.32584686157E+02  0.44453039580E+02  0.55528216840E+02  0.00000000000E+00 0. -1.
        -12    1    6    6    0    0  0.20190598924E+01 -0.17166792793E+02 -0.23539849023E+02  0.29204449485E+02  0.00000000000E+00 0.  1.
</event>
<event>
12    1  0.8494789E-002  0.1965692E+03  0.7818608E-02  0.1153358E+00
         21   -1    0    0  503  502  0.00000000000E+00  0.00000000000E+00  0.12932709116E+03  0.12932709116E+03  0.00000000000E+00 0. -1.
         21   -1    0    0  501  503 -0.00000000000E+00 -0.00000000000E+00 -0.31767707883E+03  0.31767707883E+03  0.00000000000E+00 0. -1.
          6    2    1    2  501    0  0.21396700747E+02 -0.93007721880E+02 -0.15452993936E+03  0.24754678272E+03  0.16820122576E+03 0.  0.
         24    2    3    3    0    0 -0.42823380722E+01  0.12833744516E+02 -0.41817517157E+02  0.90741141363E+02  0.79386438244E+02 0.  0.
         -6    2    1    2    0  502 -0.21396700747E+02  0.93007721880E+02 -0.33820048319E+02  0.19945738727E+03  0.17184643882E+03 0.  0.
        -24    2    5    5    0    0 -0.44822384115E+02  0.11300306200E+03  0.99170761290E+01  0.14575820363E+03  0.79802051271E+02 0.  0.
          5    1    3    3  501    0  0.25679038819E+02 -0.10584146640E+03 -0.11271242220E+03  0.15680564136E+03  0.47000000000E+01 0. -1.
        -13    1    4    4    0    0 -0.23580208022E+01 -0.10611189388E+02  0.21009316071E+02  0.23654787340E+02  0.00000000000E+00 0.  1.
         14    1    4    4    0    0 -0.19243172699E+01  0.23444933904E+02 -0.62826833228E+02  0.67086354023E+02  0.00000000000E+00 0. -1.
         -5    1    5    5    0  502  0.23425683368E+02 -0.19995340125E+02 -0.43737124448E+02  0.53699183634E+02  0.47000000000E+01 0.  1.
         13    1    6    6    0    0 -0.54099374034E+02  0.30045636104E+02  0.20996813224E+01  0.61918423602E+02  0.00000000000E+00 0. -1.
        -14    1    6    6    0    0  0.92769899183E+01  0.82957425901E+02  0.78173948066E+01  0.83839780031E+02  0.00000000000E+00 0.  1.
</event>
<event>
12    1  0.8494789E-002  0.2274119E+03  0.7818608E-02  0.1128601E+00
         21   -1    0    0  503  502  0.00000000000E+00  0.00000000000E+00  0.41874387510E+03  0.41874387510E+03  0.00000000000E+00 0.  1.
         21   -1    0    0  501  503 -0.00000000000E+00 -0.00000000000E+00 -0.24230164020E+03  0.24230164020E+03  0.00000000000E+00 0.  1.
          6    2    1    2  501    0  0.12304810563E+03  0.84789515903E+02 -0.14351690049E+03  0.26891123520E+03  0.17142360803E+03 0.  0.
         24    2    3    3    0    0  0.13256104084E+03  0.20816761154E+02 -0.70718649519E+02  0.17141926307E+03  0.79860310975E+02 0.  0.
         -6    2    1    2    0  502 -0.12304810563E+03 -0.84789515903E+02  0.31995913539E+03  0.39213428009E+03  0.17048562108E+03 0.  0.
        -24    2    5    5    0    0  0.22209525724E+01 -0.42930696268E+02  0.15211781606E+03  0.17850540518E+03  0.82923895236E+02 0.  0.
          5    1    3    3  501    0 -0.95129352104E+01  0.63972754750E+02 -0.72798250969E+02  0.97491972135E+02  0.47000000000E+01 0. -1.
        -13    1    4    4    0    0  0.25536212471E+02  0.36169941426E+02 -0.41986587798E+01  0.44474616869E+02  0.00000000000E+00 0.  1.
         14    1    4    4    0    0  0.10702482837E+03 -0.15353180272E+02 -0.66519990739E+02  0.12694464620E+03  0.00000000000E+00 0. -1.
         -5    1    5    5    0  502 -0.12526905820E+03 -0.41858819635E+02  0.16784131933E+03  0.21362887491E+03  0.47000000000E+01 0.  1.
         11    1    6    6    0    0  0.11395927166E+01  0.16480430079E+02  0.93814976088E+02  0.95258348639E+02  0.00000000000E+00 0. -1.
        -12    1    6    6    0    0  0.10813598558E+01 -0.59411126347E+02  0.58302839977E+02  0.83247056539E+02  0.00000000000E+00 0.  1.
</event>
<event>
12    1  0.8494789E-002  0.2223876E+03  0.7818608E-02  0.1132243E+00
         21   -1    0    0  501  502  0.00000000000E+00  0.00000000000E+00  0.19417828520E+03  0.19417828520E+03  0.00000000000E+00 0.  1.
         21   -1    0    0  502  503 -0.00000000000E+00 -0.00000000000E+00 -0.54880194686E+03  0.54880194686E+03  0.00000000000E+00 0.  1.
         -6    2    1    2    0  503 -0.44058969678E+02 -0.13351463728E+03 -0.44950142441E+03  0.50119930446E+03  0.17141137963E+03 0.  0.
        -24    2    3    3    0    0  0.25745945561E+01 -0.13916891072E+03 -0.40627883061E+03  0.43719193975E+03  0.81851632465E+02 0.  0.
          6    2    1    2  501    0  0.44058969678E+02  0.13351463728E+03  0.94877762751E+02  0.24178092759E+03  0.17230460211E+03 0.  0.
         24    2    5    5    0    0  0.60028244234E+02  0.15554419139E+03  0.10363249127E+03  0.21281449433E+03  0.82176214134E+02 0.  0.
          5    1    5    5  501    0 -0.15969274556E+02 -0.22029554116E+02 -0.87547285204E+01  0.28966433261E+02  0.47000000000E+01 0. -1.
        -13    1    6    6    0    0 -0.12039132349E+02  0.82041452674E+02  0.44745953457E+02  0.94222826403E+02  0.00000000000E+00 0.  1.
         14    1    6    6    0    0  0.72067376583E+02  0.73502738718E+02  0.58886537815E+02  0.11859166793E+03  0.00000000000E+00 0. -1.
         -5    1    3    3    0  503 -0.46633564234E+02  0.56542734477E+01 -0.43222593805E+02  0.64007364706E+02  0.47000000000E+01 0.  1.
         13    1    4    4    0    0  0.40359679099E+02 -0.56512220026E+02 -0.20214107319E+03  0.21373710062E+03  0.00000000000E+00 0. -1.
        -14    1    4    4    0    0 -0.37785084542E+02 -0.82656690698E+02 -0.20413775742E+03  0.22345483914E+03  0.00000000000E+00 0.  1.
</event>
<event>
12    1  0.8494789E-002  0.2941772E+03  0.7818608E-02  0.1088304E+00
         21   -1    0    0  503  502  0.00000000000E+00  0.00000000000E+00  0.64568857444E+03  0.64568857444E+03  0.00000000000E+00 0. -1.
         21   -1    0    0  501  503 -0.00000000000E+00 -0.00000000000E+00 -0.14371938547E+03  0.14371938547E+03  0.00000000000E+00 0. -1.
          6    2    1    2  501    0 -0.19168122360E+03  0.14208148454E+03  0.14597342783E+03  0.32759283532E+03  0.17052854420E+03 0.  0.
         24    2    3    3    0    0 -0.46457964007E+02  0.39282715193E+02  0.11037335223E+03  0.14608019804E+03  0.73862529372E+02 0.  0.
         -6    2    1    2    0  502  0.19168122360E+03 -0.14208148454E+03  0.35599576114E+03  0.46181512460E+03  0.17207959680E+03 0.  0.
        -24    2    5    5    0    0  0.21345638922E+03 -0.13678408772E+03  0.29962030054E+03  0.40096692982E+03  0.82028272953E+02 0.  0.
          5    1    3    3  501    0 -0.14522325959E+03  0.10279876935E+03  0.35600075602E+02  0.18151263727E+03  0.47000000000E+01 0. -1.
        -11    1    4    4    0    0 -0.39439948875E+02  0.34046321320E+02  0.12133614218E+03  0.13204969126E+03  0.00000000000E+00 0.  1.
         12    1    4    4    0    0 -0.70180151314E+01  0.52363938721E+01 -0.10962789948E+02  0.14030506784E+02  0.00000000000E+00 0. -1.
         -5    1    5    5    0  502 -0.21775165618E+02 -0.52973968230E+01  0.56375460596E+02  0.60848194781E+02  0.47000000000E+01 0.  1.
         11    1    6    6    0    0  0.15405605656E+03 -0.55799455593E+02  0.16032329072E+03  0.22923875186E+03  0.00000000000E+00 0. -1.
        -12    1    6    6    0    0  0.59400332655E+02 -0.80984632126E+02  0.13929700983E+03  0.17172817796E+03  0.00000000000E+00 0.  1.
</event>
<event>
12    1  0.8494789E-002  0.2234409E+03  0.7818608E-02  0.1131393E+00
         21   -1    0    0  503  502  0.00000000000E+00  0.00000000000E+00  0.16990405839E+03  0.16990405839E+03  0.00000000000E+00 0.  1.
         21   -1    0    0  501  503 -0.00000000000E+00 -0.00000000000E+00 -0.32260236441E+03  0.32260236441E+03  0.00000000000E+00 0. -1.
          6    2    1    2  501    0  0.52417519402E+02  0.13151020181E+03 -0.15027884123E+03  0.26905245506E+03  0.17251945957E+03 0.  0.
         24    2    3    3    0    0 -0.18607488142E+02  0.35393083943E+02 -0.17970463225E+02  0.90697054426E+02  0.79398420180E+02 0.  0.
         -6    2    1    2    0  502 -0.52417519402E+02 -0.13151020181E+03 -0.24194647845E+01  0.22345396775E+03  0.17286784655E+03 0.  0.
        -24    2    5    5    0    0  0.21187450179E+02 -0.11607057361E+03  0.21653025652E+02  0.14434866791E+03  0.80289465715E+02 0.  0.
          5    1    3    3  501    0  0.71025007544E+02  0.96117117868E+02 -0.13230837801E+03  0.17835540063E+03  0.47000000000E+01 0. -1.
        -13    1    4    4    0    0 -0.37815786349E+02 -0.10385879274E+02 -0.66256026710E+01  0.39771834208E+02  0.00000000000E+00 0.  1.
         14    1    4    4    0    0  0.19208298207E+02  0.45778963217E+02 -0.11344860554E+02  0.50925220218E+02  0.00000000000E+00 0. -1.
         -5    1    5    5    0  502 -0.73604969581E+02 -0.15439628200E+02 -0.24072490437E+02  0.79105299834E+02  0.47000000000E+01 0.  1.
         13    1    6    6    0    0  0.35030426851E+02 -0.14827986722E+02 -0.59489174596E+01  0.38501813133E+02  0.00000000000E+00 0. -1.
        -14    1    6    6    0    0 -0.13842976672E+02 -0.10124258689E+03  0.27601943112E+02  0.10584685478E+03  0.00000000000E+00 0.  1.
</event>
<event>
12    1  0.8494789E-002  0.1835121E+03  0.7818608E-02  0.1164641E+00
         21   -1    0    0  501  502  0.00000000000E+00  0.00000000000E+00  0.21139105725E+02  0.21139105725E+02  0.00000000000E+00 0. -1.
         21   -1    0    0  502  503 -0.00000000000E+00 -0.00000000000E+00 -0.28813993207E+04  0.28813993207E+04  0.00000000000E+00 0. -1.
         -6    2    1    2    0  503 -0.11656171631E+02  0.68420195126E+02 -0.24049834484E+04  0.24119747281E+04  0.16988087790E+03 0.  0.
        -24    2    3    3    0    0  0.51536728759E+02  0.80337053333E+01 -0.13574567908E+04  0.13607972649E+04  0.79747617413E+02 0.  0.
          6    2    1    2  501    0  0.11656171631E+02 -0.68420195126E+02 -0.45527676658E+03  0.49056369828E+03  0.16899295385E+03 0.  0.
         24    2    5    5    0    0 -0.46814556392E+02 -0.14818398494E+02 -0.32472549044E+03  0.33773142309E+03  0.78769806285E+02 0.  0.
          5    1    5    5  501    0  0.58470728023E+02 -0.53601796632E+02 -0.13055127614E+03  0.15283227519E+03  0.47000000000E+01 0. -1.
        -11    1    6    6    0    0  0.78468977971E+01  0.70279163468E+01 -0.19489365586E+03  0.19517813019E+03  0.00000000000E+00 0.  1.
         12    1    6    6    0    0 -0.54661454189E+02 -0.21846314841E+02 -0.12983183458E+03  0.14255329290E+03  0.00000000000E+00 0. -1.
         -5    1    3    3    0  503 -0.63192900390E+02  0.60386489793E+02 -0.10475266575E+04  0.10511774632E+04  0.47000000000E+01 0.  1.
         11    1    4    4    0    0  0.42055305713E+02  0.70872693736E+01 -0.13417400326E+04  0.13424176672E+04  0.00000000000E+00 0. -1.
        -12    1    4    4    0    0  0.94814230468E+01  0.94643595965E+00 -0.15716758212E+02  0.18379597730E+02  0.00000000000E+00 0.  1.
</event>
<event>
12    1  0.8494789E-002  0.2143835E+03  0.7818608E-02  0.1138365E+00
         21   -1    0    0  501  502  0.00000000000E+00  0.00000000000E+00  0.23060356645E+03  0.23060356645E+03  0.00000000000E+00 0.  1.
         21   -1    0    0  502  503 -0.00000000000E+00 -0.00000000000E+00 -0.26924961933E+03  0.26924961933E+03  0.00000000000E+00 0. -1.
         -6    2    1    2    0  503 -0.40593194631E+02 -0.12298316677E+03 -0.14772188729E+03  0.26034984656E+03  0.17084384642E+03 0.  0.
        -24    2    3    3    0    0  0.17304675285E+02 -0.13004228088E+03 -0.12469961398E+03  0.19746813617E+03  0.78950772470E+02 0.  0.
          6    2    1    2  501    0  0.40593194631E+02  0.12298316677E+03  0.10907583442E+03  0.23950333922E+03  0.16938608291E+03 0.  0.
         24    2    5    5    0    0 -0.61281810809E+01  0.90482641724E+02  0.12960926869E+03  0.17881657790E+03  0.83379511542E+02 0.  0.
          5    1    5    5  501    0  0.46721375712E+02  0.32500525049E+02 -0.20533434270E+02  0.60686761322E+02  0.47000000000E+01 0. -1.
        -11    1    6    6    0    0  0.13680990835E+02  0.93837662619E+02  0.75872567816E+02  0.12144679075E+03  0.00000000000E+00 0.  1.
         12    1    6    6    0    0 -0.19809171916E+02 -0.33550208950E+01  0.53736700870E+02  0.57369787150E+02  0.00000000000E+00 0. -1.
         -5    1    3    3    0  503 -0.57897869915E+02  0.70591141092E+01 -0.23022273306E+02  0.62881710385E+02  0.47000000000E+01 0.  1.
         11    1    4    4    0    0 -0.97341228079E+01 -0.73298493839E+02 -0.22151144618E+02  0.77188700946E+02  0.00000000000E+00 0. -1.
        -12    1    4    4    0    0  0.27038798093E+02 -0.56743787044E+02 -0.10254846936E+03  0.12027943523E+03  0.00000000000E+00 0.  1.
</event>
<event>
12    1  0.8494789E-002  0.2000760E+03  0.7818608E-02  0.1149785E+00
         21   -1    0    0  501  502  0.00000000000E+00  0.00000000000E+00  0.40492671157E+03  0.40492671157E+03  0.00000000000E+00 0. -1.
         21   -1    0    0  502  503 -0.00000000000E+00 -0.00000000000E+00 -0.13263753451E+03  0.13263753451E+03  0.00000000000E+00 0. -1.
         -6    2    1    2    0  503 -0.19612613221E+02 -0.99395146868E+02  0.11834255977E+00  0.20007604427E+03  0.17252930089E+03 0.  0.
        -24    2    3    3    0    0 -0.56276489780E+01  0.11184687080E+02  0.26488244406E+02  0.85442102419E+02  0.80261809822E+02 0.  0.
          6    2    1    2  501    0  0.19612613221E+02  0.99395146868E+02  0.27217083450E+03  0.33748820181E+03  0.17192228882E+03 0.  0.
         24    2    5    5    0    0  0.28993577160E+02 -0.13031299610E+02  0.13748297235E+03  0.16173093009E+03  0.79024577038E+02 0.  0.
          5    1    5    5  501    0 -0.93809639382E+01  0.11242644648E+03  0.13468786215E+03  0.17575727172E+03  0.47000000000E+01 0. -1.
        -11    1    6    6    0    0 -0.20971795438E+02  0.87635423575E+01  0.77106641574E+02  0.80386877370E+02  0.00000000000E+00 0.  1.
         12    1    6    6    0    0  0.49965372597E+02 -0.21794841967E+02  0.60376330777E+02  0.81344052722E+02  0.00000000000E+00 0. -1.
         -5    1    3    3    0  503 -0.13984964243E+02 -0.11057983395E+03 -0.26369901846E+02  0.11463394185E+03  0.47000000000E+01 0.  1.
         11    1    4    4    0    0 -0.10758829273E+02 -0.31499281944E+02 -0.28290826415E+01  0.33406000642E+02  0.00000000000E+00 0. -1.
        -12    1    4    4    0    0  0.51311802951E+01  0.42683969024E+02  0.29317327048E+02  0.52036101776E+02  0.00000000000E+00 0.  1.
</event>
<event>
12    1  0.8494789E-002  0.1792010E+03  0.7818608E-02  0.1168877E+00
         21   -1    0    0  503  502  0.00000000000E+00  0.00000000000E+00  0.29750441351E+03  0.29750441351E+03  0.00000000000E+00 0. -1.
         21   -1    0    0  501  503 -0.00000000000E+00 -0.00000000000E+00 -0.12017181977E+03  0.12017181977E+03  0.00000000000E+00 0. -1.
          6    2    1    2  501    0 -0.45595921041E+01  0.45503831364E+02  0.19797831305E+02  0.17907570466E+03  0.17200222478E+03 0.  0.
         24    2    3    3    0    0  0.19410664764E+02 -0.31186427814E+02  0.38366639360E+02  0.96475101158E+02  0.80536196466E+02 0.  0.
         -6    2    1    2    0  502  0.45595921041E+01 -0.45503831364E+02  0.15753476243E+03  0.23860052861E+03  0.17326748780E+03 0.  0.
        -24    2    5    5    0    0  0.38309330286E+02  0.27515982642E+02  0.59262307844E+02  0.11151589777E+03  0.81847664823E+02 0.  0.
          5    1    3    3  501    0 -0.23970256869E+02  0.76690259178E+02 -0.18568808055E+02  0.82600603507E+02  0.47000000000E+01 0. -1.
        -11    1    4    4    0    0  0.46523496020E+02 -0.21181001048E+02  0.35708079827E+01  0.51242766875E+02  0.00000000000E+00 0.  1.
         12    1    4    4    0    0 -0.27112831255E+02 -0.10005426766E+02  0.34795831377E+02  0.45232334283E+02  0.00000000000E+00 0. -1.
         -5    1    5    5    0  502 -0.33749738181E+02 -0.73019814006E+02  0.98272454587E+02  0.12708463084E+03  0.47000000000E+01 0.  1.
         11    1    6    6    0    0  0.47269183554E+02  0.43327068024E+02  0.66106949063E+02  0.92096358515E+02  0.00000000000E+00 0. -1.
        -12    1    6    6    0    0 -0.89598532681E+01 -0.15811085381E+02 -0.68446412182E+01  0.19419539256E+02  0.00000000000E+00 0.  1.
</event>
<event>
12    1  0.8494789E-002  0.2126267E+03  0.7818608E-02  0.1139678E+00
         21   -1    0    0  501  502  0.00000000000E+00  0.00000000000E+00  0.27717456556E+03  0.27717456556E+03  0.00000000000E+00 0.  1.
         21   -1    0    0  502  503 -0.00000000000E+00 -0.00000000000E+00 -0.21292759592E+03  0.21292759592E+03  0.00000000000E+00 0.  1.
         -6    2    1    2    0  503  0.53614428470E+02  0.11114786857E+03 -0.87172239871E+02  0.22980231570E+03  0.17315238743E+03 0.  0.
        -24    2    3    3    0    0  0.91390391215E+02  0.52865341397E+02 -0.23299868955E+02  0.13532667810E+03  0.81384752778E+02 0.  0.
          6    2    1    2  501    0 -0.53614428470E+02 -0.11114786857E+03  0.15141920950E+03  0.26029984578E+03  0.17204614811E+03 0.  0.
         24    2    5    5    0    0  0.58655246619E+01 -0.11762963586E+03  0.13997280728E+03  0.19920166041E+03  0.78852895447E+02 0.  0.
          5    1    5    5  501    0 -0.59479953132E+02  0.64817672901E+01  0.11446402227E+02  0.61098185371E+02  0.47000000000E+01 0. -1.
        -13    1    6    6    0    0 -0.35958122425E+02 -0.43020911850E+02  0.51214345650E+02  0.75938755752E+02  0.00000000000E+00 0.  1.
         14    1    6    6    0    0  0.41823647087E+02 -0.74608724005E+02  0.88758461626E+02  0.12326290465E+03  0.00000000000E+00 0. -1.
         -5    1    3    3    0  503 -0.37775962745E+02  0.58282527168E+02 -0.63872370916E+02  0.94475637605E+02  0.47000000000E+01 0.  1.
         13    1    4    4    0    0  0.33476511352E+02  0.31142931199E+02  0.29153728571E+02  0.54226366885E+02  0.00000000000E+00 0. -1.
        -14    1    4    4    0    0  0.57913879863E+02  0.21722410198E+02 -0.52453597526E+02  0.81100311214E+02  0.00000000000E+00 0.  1.
</event>
<event>
12    1  0.8494789E-002  0.1882051E+03  0.7818608E-02  0.1160464E+00
         21   -1    0    0  501  502  0.00000000000E+00  0.00000000000E+00  0.53785120460E+03  0.53785120460E+03  0.00000000000E+00 0. -1.
         21   -1    0    0  502  503 -0.00000000000E+00 -0.00000000000E+00 -0.18823013306E+03  0.18823013306E+03  0.00000000000E+00 0. -1.
         -6    2    1    2    0  503 -0.36464228513E+02  0.66998363057E+02 -0.11832525286E+03  0.22231066757E+03  0.17205448800E+03 0.  0.
        -24    2    3    3    0    0 -0.68588329267E+02  0.31465075216E+02 -0.13391040149E+03  0.17171858072E+03  0.76556289551E+02 0.  0.
          6    2    1    2  501    0  0.36464228513E+02 -0.66998363057E+02  0.46794632440E+03  0.50377067009E+03  0.17027244319E+03 0.  0.
         24    2    5    5    0    0  0.66604629234E+02 -0.35266808224E+02  0.43524822722E+03  0.44893828106E+03  0.80153830259E+02 0.  0.
          5    1    5    5  501    0 -0.30140400720E+02 -0.31731554833E+02  0.32698097180E+02  0.54832389032E+02  0.47000000000E+01 0. -1.
        -11    1    6    6    0    0  0.73859331949E+02 -0.18301714887E+02  0.21782141642E+03  0.23072997884E+03  0.00000000000E+00 0.  1.
         12    1    6    6    0    0 -0.72547027156E+01 -0.16965093337E+02  0.21742681080E+03  0.21820830222E+03  0.00000000000E+00 0. -1.
         -5    1    3    3    0  503  0.32124100753E+02  0.35533287841E+02  0.15585148628E+02  0.50592086849E+02  0.47000000000E+01 0.  1.
         13    1    4    4    0    0 -0.54411655809E+02 -0.59068283281E+01 -0.11529416360E+03  0.12762547970E+03  0.00000000000E+00 0. -1.
        -14    1    4    4    0    0 -0.14176673457E+02  0.37371903544E+02 -0.18616237888E+02  0.44093101024E+02  0.00000000000E+00 0.  1.
</event>
<event>
12    1  0.8494789E-002  0.1738109E+03  0.7818608E-02  0.1177655E+00
         21   -1    0    0  501  502  0.00000000000E+00  0.00000000000E+00  0.57695141384E+02  0.57695141384E+02  0.00000000000E+00 0. -1.
         21   -1    0    0  502  503 -0.00000000000E+00 -0.00000000000E+00 -0.50738721844E+03  0.50738721844E+03  0.00000000000E+00 0. -1.
         -6    2    1    2    0  503 -0.75378834590E+00  0.50587355129E+01 -0.29682914557E+03  0.34397349020E+03  0.17373560746E+03 0.  0.
        -24    2    3    3    0    0 -0.30795028800E+02 -0.67423034042E+01 -0.29897774225E+03  0.31128638089E+03  0.80732447680E+02 0.  0.
          6    2    1    2  501    0  0.75378834590E+00 -0.50587355129E+01 -0.15286293149E+03  0.22110886963E+03  0.15967434798E+03 0.  0.
         24    2    5    5    0    0  0.34568068643E+02  0.45680843969E+02 -0.97701009957E+02  0.13875088237E+03  0.80153784295E+02 0.  0.
          5    1    5    5  501    0 -0.33814280297E+02 -0.50739579481E+02 -0.55161921533E+02  0.82357987258E+02  0.47000000000E+01 0. -1.
        -13    1    6    6    0    0  0.41576254814E+02 -0.39318961534E+01 -0.69965459395E+02  0.81481349277E+02  0.00000000000E+00 0.  1.
         14    1    6    6    0    0 -0.70081861709E+01  0.49612740122E+02 -0.27735550563E+02  0.57269533094E+02  0.00000000000E+00 0. -1.
         -5    1    3    3    0  503  0.30041240454E+02  0.11801038917E+02  0.21485966832E+01  0.32687109313E+02  0.47000000000E+01 0.  1.
         11    1    4    4    0    0 -0.37914042204E+02 -0.35094084160E+02 -0.13164465747E+03  0.14141918251E+03  0.00000000000E+00 0. -1.
        -12    1    4    4    0    0  0.71190134036E+01  0.28351780755E+02 -0.16733308478E+03  0.16986719838E+03  0.00000000000E+00 0.  1.
</event>
<event>
12    1  0.8494789E-002  0.1839008E+03  0.7818608E-02  0.1164149E+00
         21   -1    0    0  501  502  0.00000000000E+00  0.00000000000E+00  0.16869617196E+03  0.16869617196E+03  0.00000000000E+00 0. -1.
         21   -1    0    0  502  503 -0.00000000000E+00 -0.00000000000E+00 -0.20885436688E+03  0.20885436688E+03  0.00000000000E+00 0.  1.
         -6    2    1    2    0  503 -0.61950184373E+02 -0.30864306424E+02 -0.58610560302E+02  0.19301472567E+03  0.17037915305E+03 0.  0.
        -24    2    3    3    0    0  0.22709669306E+02 -0.44278025407E+02 -0.52497037098E+02  0.10695263269E+03  0.78782321127E+02 0.  0.
          6    2    1    2  501    0  0.61950184373E+02  0.30864306424E+02  0.18452365387E+02  0.18453581317E+03  0.17006629824E+03 0.  0.
         24    2    5    5    0    0  0.51625085250E+02  0.74751320344E+02 -0.21985240413E+02  0.12379070945E+03  0.81165754048E+02 0.  0.
          5    1    5    5  501    0  0.10325099123E+02 -0.43887013920E+02  0.40437605800E+02  0.60745103717E+02  0.47000000000E+01 0. -1.
        -11    1    6    6    0    0  0.65862667228E+02  0.34493485558E+02 -0.30303137133E+02  0.80286808384E+02  0.00000000000E+00 0.  1.
         12    1    6    6    0    0 -0.14237581978E+02  0.40257834786E+02  0.83178967202E+01  0.43503901067E+02  0.00000000000E+00 0. -1.
         -5    1    3    3    0  503 -0.84659853679E+02  0.13413718983E+02 -0.61135232041E+01  0.86062092979E+02  0.47000000000E+01 0.  1.
         13    1    4    4    0    0  0.16844567147E+02  0.19848354779E+02 -0.27526067242E+02  0.37886422471E+02  0.00000000000E+00 0. -1.
        -14    1    4    4    0    0  0.58651021593E+01 -0.64126380186E+02 -0.24970969856E+02  0.69066210223E+02  0.00000000000E+00 0.  1.
</event>
<event>
12    1  0.8494789E-002  0.3764616E+03  0.7818608E-02  0.1052313E+00
         21   -1    0    0  503  502  0.00000000000E+00  0.00000000000E+00  0.30514995662E+03  0.30514995662E+03  0.00000000000E+00 0. -1.
         21   -1    0    0  501  503 -0.00000000000E+00 -0.00000000000E+00 -0.46900227402E+03  0.46900227402E+03  0.00000000000E+00 0.  1.
          6    2    1    2  501    0 -0.33219007573E+03  0.50208658075E+02 -0.12338927415E+03  0.39552233117E+03  0.16835036595E+03 0.  0.
         24    2    3    3    0    0 -0.18263586749E+03  0.15670060777E+02 -0.55451657059E+00  0.19887583724E+03  0.77135466864E+02 0.  0.
         -6    2    1    2    0  502  0.33219007573E+03 -0.50208658075E+02 -0.40463043263E+02  0.37862989947E+03  0.16985931574E+03 0.  0.
        -24    2    5    5    0    0  0.32361936261E+03 -0.51410872292E+02 -0.72732851695E+02  0.34489070893E+03  0.79290376118E+02 0.  0.
          5    1    3    3  501    0 -0.14955420824E+03  0.34538597298E+02 -0.12283475757E+03  0.19664649393E+03  0.47000000000E+01 0. -1.
        -11    1    4    4    0    0 -0.45836705665E+02  0.38827288676E+02 -0.23811038734E+01  0.60118479587E+02  0.00000000000E+00 0.  1.
         12    1    4    4    0    0 -0.13679916183E+03 -0.23157227899E+02  0.18265873028E+01  0.13875735765E+03  0.00000000000E+00 0. -1.
         -5    1    5    5    0  502  0.85707131277E+01  0.12022142171E+01  0.32269808431E+02  0.33739190547E+02  0.47000000000E+01 0.  1.
         13    1    6    6    0    0  0.97472219045E+02  0.53814263652E+01  0.84672503299E+01  0.97987180607E+02  0.00000000000E+00 0. -1.
        -14    1    6    6    0    0  0.22614714356E+03 -0.56792298658E+02 -0.81200102025E+02  0.24690352832E+03  0.00000000000E+00 0.  1.
</event>
<event>
12    1  0.8494789E-002  0.2233246E+03  0.7818608E-02  0.1131518E+00
         21   -1    0    0  501  502  0.00000000000E+00  0.00000000000E+00  0.11716215267E+03  0.11716215267E+03  0.00000000000E+00 0.  1.
         21   -1    0    0  502  503 -0.00000000000E+00 -0.00000000000E+00 -0.47251696675E+03  0.47251696675E+03  0.00000000000E+00 0.  1.
         -6    2    1    2    0  503 -0.13074472800E+03  0.56752032448E+02 -0.27159668463E+03  0.35162288754E+03  0.17192707423E+03 0.  0.
        -24    2    3    3    0    0 -0.65521454080E+02  0.31190042617E+01 -0.58971749293E+02  0.12279537543E+03  0.85429783328E+02 0.  0.
          6    2    1    2  501    0  0.13074472800E+03 -0.56752032448E+02 -0.83758129445E+02  0.23805623187E+03  0.17129030387E+03 0.  0.
         24    2    5    5    0    0  0.14187312773E+03 -0.71810026595E+02 -0.10748396261E+03  0.20746882225E+03  0.78777190185E+02 0.  0.
          5    1    5    5  501    0 -0.11128399736E+02  0.15057994147E+02  0.23725833163E+02  0.30587409627E+02  0.47000000000E+01 0. -1.
        -13    1    6    6    0    0  0.38571853558E+02 -0.52228559811E+02 -0.13222507219E+02  0.66260433472E+02  0.00000000000E+00 0.  1.
         14    1    6    6    0    0  0.10330127418E+03 -0.19581466784E+02 -0.94261455389E+02  0.14120838877E+03  0.00000000000E+00 0. -1.
         -5    1    3    3    0  503 -0.65223273919E+02  0.53633028186E+02 -0.21262493534E+03  0.22882751212E+03  0.47000000000E+01 0.  1.
         11    1    4    4    0    0 -0.10647471642E+02 -0.79664497163E+01 -0.65131371870E+02  0.66475022190E+02  0.00000000000E+00 0. -1.
        -12    1    4    4    0    0 -0.54873982439E+02  0.11085453978E+02  0.61596225773E+01  0.56320353238E+02  0.00000000000E+00 0.  1.
</event>
<event>
12    1  0.8494789E-002  0.1853602E+03  0.7818608E-02  0.1163033E+00
         21   -1    0    0  503  502  0.00000000000E+00  0.00000000000E+00  0.63760971533E+03  0.63760971533E+03  0.00000000000E+00 0.  1.
         21   -1    0    0  501  503 -0.00000000000E+00 -0.00000000000E+00 -0.71733109577E+02  0.71733109577E+02  0.00000000000E+00 0.  1.
          6    2    1    2  501    0 -0.42184877641E+02  0.52666175314E+02  0.10486020997E+03  0.21296497509E+03  0.17264161450E+03 0.  0.
         24    2    3    3    0    0 -0.43795793715E+02 -0.14864874693E+02  0.81700068088E+01  0.94922088168E+02  0.82488894793E+02 0.  0.
         -6    2    1    2    0  502  0.42184877641E+02 -0.52666175314E+02  0.46101639578E+03  0.49637784982E+03  0.17117699227E+03 0.  0.
        -24    2    5    5    0    0 -0.34223871105E+02  0.49826125542E+01  0.24765665561E+03  0.26248439468E+03  0.79800617810E+02 0.  0.
          5    1    3    3  501    0  0.16109160740E+01  0.67531050007E+02  0.96690203158E+02  0.11804288692E+03  0.47000000000E+01 0. -1.
        -13    1    4    4    0    0 -0.15587987751E+02  0.30812403460E+02 -0.13435202377E+02  0.37052587386E+02  0.00000000000E+00 0.  1.
         14    1    4    4    0    0 -0.28207805964E+02 -0.45677278153E+02  0.21605209186E+02  0.57869500782E+02  0.00000000000E+00 0. -1.
         -5    1    5    5    0  502  0.76408748746E+02 -0.57648787868E+02  0.21335974017E+03  0.23389345513E+03  0.47000000000E+01 0.  1.
         11    1    6    6    0    0  0.53375758955E+01 -0.24322168414E+02  0.28410601627E+02  0.37778563731E+02  0.00000000000E+00 0. -1.
        -12    1    6    6    0    0 -0.39561447001E+02  0.29304780969E+02  0.21924605398E+03  0.22470583095E+03  0.00000000000E+00 0.  1.
</event>
<event>
12    1  0.8494789E-002  0.2420396E+03  0.7818608E-02  0.1118534E+00
         21   -1    0    0  501  502  0.00000000000E+00  0.00000000000E+00  0.14835668542E+03  0.14835668542E+03  0.00000000000E+00 0.  1.
         21   -1    0    0  502  503 -0.00000000000E+00 -0.00000000000E+00 -0.39397660414E+03  0.39397660414E+03  0.00000000000E+00 0.  1.
         -6    2    1    2    0  503  0.71233810885E+02 -0.15333171676E+03 -0.12191843028E+03  0.27101160510E+03  0.17320021731E+03 0.  0.
        -24    2    3    3    0    0  0.47035282185E+02 -0.12906788255E+03 -0.15666847600E+03  0.22198142950E+03  0.76550033252E+02 0.  0.
          6    2    1    2  501    0 -0.71233810885E+02  0.15333171676E+03 -0.12370148844E+03  0.27132168446E+03  0.17241962486E+03 0.  0.
         24    2    5    5    0    0 -0.54315670462E+02  0.13347371963E+03 -0.21583827089E+02  0.16581969260E+03  0.79151013722E+02 0.  0.
          5    1    5    5  501    0 -0.16918140423E+02  0.19857997132E+02 -0.10211766135E+03  0.10550199185E+03  0.47000000000E+01 0. -1.
        -13    1    6    6    0    0 -0.55148810267E+01  0.81312314676E+02 -0.41786347165E+02  0.91587145605E+02  0.00000000000E+00 0.  1.
         14    1    6    6    0    0 -0.48800789435E+02  0.52161404956E+02  0.20202520076E+02  0.74232546999E+02  0.00000000000E+00 0. -1.
         -5    1    3    3    0  503  0.24198528700E+02 -0.24263834210E+02  0.34750045721E+02  0.49030175601E+02  0.47000000000E+01 0. -1.
         13    1    4    4    0    0  0.78012904449E+01  0.53774171029E+01 -0.35644714614E+02  0.36882549088E+02  0.00000000000E+00 0. -1.
        -14    1    4    4    0    0  0.39233991740E+02 -0.13444529966E+03 -0.12102376139E+03  0.18509888041E+03  0.00000000000E+00 0.  1.
</event>
<event>
12    1  0.8494789E-002  0.2420869E+03  0.7818608E-02  0.1118608E+00
         21   -1    0    0  503  502  0.00000000000E+00  0.00000000000E+00  0.12713838207E+04  0.12713838207E+04  0.00000000000E+00 0.  1.
         21   -1    0    0  501  503 -0.00000000000E+00 -0.00000000000E+00 -0.48232606181E+02  0.48232606181E+02  0.00000000000E+00 0. -1.
          6    2    1    2  501    0  0.67267081340E+01  0.16850433109E+03  0.75907427472E+03  0.79674326087E+03  0.17368681876E+03 0.  0.
         24    2    3    3    0    0 -0.23196650331E+02  0.58155633641E+02  0.54265439021E+03  0.55193333701E+03  0.78971254150E+02 0.  0.
         -6    2    1    2    0  502 -0.67267081340E+01 -0.16850433109E+03  0.46407693977E+03  0.52287316597E+03  0.17201739294E+03 0.  0.
        -24    2    5    5    0    0 -0.43467330930E+01 -0.14961009331E+03  0.21912215714E+03  0.27713429637E+03  0.79917609857E+02 0.  0.
          5    1    3    3  501    0  0.29923358465E+02  0.11034869745E+03  0.21641988451E+03  0.24480992386E+03  0.47000000000E+01 0. -1.
        -13    1    4    4    0    0  0.22385254748E+02  0.32867022320E+02  0.35343776536E+03  0.35566781520E+03  0.00000000000E+00 0.  1.
         14    1    4    4    0    0 -0.45581905079E+02  0.25288611321E+02  0.18921662485E+03  0.19626552181E+03  0.00000000000E+00 0. -1.
         -5    1    5    5    0  502 -0.23799750410E+01 -0.18894237778E+02  0.24495478262E+03  0.24573886960E+03  0.47000000000E+01 0.  1.
         13    1    6    6    0    0  0.36501437032E+02 -0.92619200249E+02  0.12781815902E+03  0.16201281720E+03  0.00000000000E+00 0. -1.
        -14    1    6    6    0    0 -0.40848170125E+02 -0.56990893061E+02  0.91303998118E+02  0.11512147917E+03  0.00000000000E+00 0.  1.
</event>
<event>
12    1  0.8494789E-002  0.2445266E+03  0.7818608E-02  0.1116967E+00
         21   -1    0    0  503  502  0.00000000000E+00  0.00000000000E+00  0.63193661683E+02  0.63193661683E+02  0.00000000000E+00 0. -1.
         21   -1    0    0  501  503 -0.00000000000E+00 -0.00000000000E+00 -0.12102558433E+04  0.12102558433E+04  0.00000000000E+00 0.  1.
          6    2    1    2  501    0 -0.14635313434E+03  0.92940782976E+02 -0.87213451599E+03  0.90551133784E+03  0.17109921070E+03 0.  0.
         24    2    3    3    0    0 -0.95610548013E+02  0.12857797826E+03 -0.68432257747E+03  0.70767242861E+03  0.82638990741E+02 0.  0.
         -6    2    1    2    0  502  0.14635313434E+03 -0.92940782976E+02 -0.27492766563E+03  0.36793816714E+03  0.17244142322E+03 0.  0.
        -24    2    5    5    0    0  0.13638718329E+03 -0.10049836687E+03 -0.14497576782E+03  0.23730117775E+03  0.81194151240E+02 0.  0.
          5    1    3    3  501    0 -0.50742586328E+02 -0.35637195288E+02 -0.18781193852E+03  0.19783890923E+03  0.47000000000E+01 0. -1.
        -11    1    4    4    0    0 -0.79533203771E+02  0.69498637494E+02 -0.55005095298E+03  0.56009967148E+03  0.00000000000E+00 0.  1.
         12    1    4    4    0    0 -0.16077344242E+02  0.59079340770E+02 -0.13427162449E+03  0.14757275713E+03  0.00000000000E+00 0. -1.
         -5    1    5    5    0  502  0.99659510474E+01  0.75575838932E+01 -0.12995189781E+03  0.13063698940E+03  0.47000000000E+01 0.  1.
         11    1    6    6    0    0  0.95165577272E+02 -0.49751354973E+02 -0.41964900815E+02  0.11529413393E+03  0.00000000000E+00 0. -1.
        -12    1    6    6    0    0  0.41221606021E+02 -0.50747011896E+02 -0.10301086700E+03  0.12200704381E+03  0.00000000000E+00 0.  1.
</event>
<event>
12    1  0.8494789E-002  0.2016963E+03  0.7818608E-02  0.1150807E+00
         21   -1    0    0  503  502  0.00000000000E+00  0.00000000000E+00  0.41509873089E+03  0.41509873089E+03  0.00000000000E+00 0. -1.
         21   -1    0    0  501  503 -0.00000000000E+00 -0.00000000000E+00 -0.96966222629E+02  0.96966222629E+02  0.00000000000E+00 0. -1.
          6    2    1    2  501    0 -0.25625119881E+02 -0.74314727403E+02  0.20973666678E+03  0.28308663668E+03  0.17311628749E+03 0.  0.
         24    2    3    3    0    0  0.97508154677E+01 -0.19521895922E+02  0.23612475215E+02  0.85810140687E+02  0.79559087704E+02 0.  0.
         -6    2    1    2    0  502  0.25625119881E+02  0.74314727403E+02  0.10839584147E+03  0.22897831684E+03  0.18574737052E+03 0.  0.
        -24    2    5    5    0    0 -0.96144262787E+00  0.48186250641E+02 -0.19865813188E+02  0.95326961960E+02  0.79810651044E+02 0.  0.
          5    1    3    3  501    0 -0.35375935348E+02 -0.54792831481E+02  0.18612419157E+03  0.19727649599E+03  0.47000000000E+01 0. -1.
        -11    1    4    4    0    0 -0.32345020138E+02  0.30449171582E+01 -0.92239469638E-01  0.32488157170E+02  0.00000000000E+00 0.  1.
         12    1    4    4    0    0  0.42095835605E+02 -0.22566813080E+02  0.23704714684E+02  0.53321983517E+02  0.00000000000E+00 0. -1.
         -5    1    5    5    0  502  0.26586562509E+02  0.26128476762E+02  0.12826165466E+03  0.13365135488E+03  0.47000000000E+01 0.  1.
         11    1    6    6    0    0  0.16804595060E+02  0.10164226636E+02 -0.43095102115E+02  0.47359199154E+02  0.00000000000E+00 0. -1.
        -12    1    6    6    0    0 -0.17766037687E+02  0.38022024005E+02  0.23229288927E+02  0.47967762806E+02  0.00000000000E+00 0.  1.
</event>
<event>
12    1  0.8494789E-002  0.2782613E+03  0.7818608E-02  0.1096644E+00
         21   -1    0    0  501  502  0.00000000000E+00  0.00000000000E+00  0.12737239667E+03  0.12737239667E+03  0.00000000000E+00 0.  1.
         21   -1    0    0  502  503 -0.00000000000E+00 -0.00000000000E+00 -0.61303517852E+03  0.61303517852E+03  0.00000000000E+00 0.  1.
         -6    2    1    2    0  503 -0.21860285906E+03 -0.93159975594E+00 -0.27681510279E+03  0.39248988999E+03  0.17214422657E+03 0.  0.
        -24    2    3    3    0    0 -0.10195207578E+03  0.38361276920E+02 -0.75172380391E+02  0.15619936353E+03  0.82955054516E+02 0.  0.
          6    2    1    2  501    0  0.21860285906E+03  0.93159975594E+00 -0.20884767906E+03  0.34791768520E+03  0.17216644491E+03 0.  0.
         24    2    5    5    0    0  0.20961182876E+03  0.12137440001E+02 -0.11356637615E+03  0.25144475549E+03  0.79010803473E+02 0.  0.
          5    1    5    5  501    0  0.89910303038E+01 -0.11205840245E+02 -0.95281302915E+02  0.96472929709E+02  0.47000000000E+01 0. -1.
        -11    1    6    6    0    0  0.86396240031E+02  0.40310409471E+02 -0.30096349767E+02  0.99975145273E+02  0.00000000000E+00 0.  1.
         12    1    6    6    0    0  0.12321558873E+03 -0.28172969470E+02 -0.83470026384E+02  0.15146961022E+03  0.00000000000E+00 0. -1.
         -5    1    3    3    0  503 -0.11665078328E+03 -0.39292876676E+02 -0.20164272240E+03  0.23629052646E+03  0.47000000000E+01 0.  1.
         13    1    4    4    0    0 -0.49468828278E+02 -0.21189943936E+02 -0.12980333206E+02  0.55359441339E+02  0.00000000000E+00 0. -1.
        -14    1    4    4    0    0 -0.52483247504E+02  0.59551220857E+02 -0.62192047185E+02  0.10083992219E+03  0.00000000000E+00 0.  1.
</event>
<event>
12    1  0.8494789E-002  0.2324432E+03  0.7818608E-02  0.1125123E+00
         21   -1    0    0  503  502  0.00000000000E+00  0.00000000000E+00  0.26416811286E+03  0.26416811286E+03  0.00000000000E+00 0. -1.
         21   -1    0    0  501  503 -0.00000000000E+00 -0.00000000000E+00 -0.82330716830E+03  0.82330716830E+03  0.00000000000E+00 0. -1.
          6    2    1    2  501    0  0.12024194420E+03  0.10026517551E+03 -0.75115851880E+03  0.78597683257E+03  0.17032096292E+03 0.  0.
         24    2    3    3    0    0  0.81334634902E+02  0.13298848994E+03 -0.49902898710E+03  0.52872989911E+03  0.78893060184E+02 0.  0.
         -6    2    1    2    0  502 -0.12024194420E+03 -0.10026517551E+03  0.19201946335E+03  0.30149844860E+03  0.17180980658E+03 0.  0.
        -24    2    5    5    0    0 -0.40996763810E+02 -0.49890004901E+02  0.18878614919E+02  0.10447738418E+03  0.79933562863E+02 0.  0.
          5    1    3    3  501    0  0.38907309295E+02 -0.32723314438E+02 -0.25212953169E+03  0.25724693346E+03  0.47000000000E+01 0. -1.
        -13    1    4    4    0    0  0.76885600695E+01  0.87401929702E+02 -0.23410368876E+03  0.25000549666E+03  0.00000000000E+00 0.  1.
         14    1    4    4    0    0  0.73646074833E+02  0.45586560242E+02 -0.26492529835E+03  0.27872440244E+03  0.00000000000E+00 0. -1.
         -5    1    5    5    0  502 -0.79245180388E+02 -0.50375170605E+02  0.17314084843E+03  0.19702106442E+03  0.47000000000E+01 0.  1.
         13    1    6    6    0    0 -0.22728057019E+02 -0.39563146801E+02  0.49522183377E+02  0.67336868111E+02  0.00000000000E+00 0. -1.
        -14    1    6    6    0    0 -0.18268706791E+02 -0.10326858100E+02 -0.30643568457E+02  0.37140516068E+02  0.00000000000E+00 0.  1.
</event>
<event>
12    1  0.8494789E-002  0.1780640E+03  0.7818608E-02  0.1169964E+00
         21   -1    0    0  503  502  0.00000000000E+00  0.00000000000E+00  0.10391530075E+04  0.10391530075E+04  0.00000000000E+00 0.  1.
         21   -1    0    0  501  503 -0.00000000000E+00 -0.00000000000E+00 -0.31481717493E+02  0.31481717493E+02  0.00000000000E+00 0.  1.
          6    2    1    2  501    0  0.36331760414E+02 -0.21428678448E+02  0.60506044832E+03  0.63040491115E+03  0.17185174076E+03 0.  0.
         24    2    3    3    0    0  0.58005671059E+02  0.24074948123E+02  0.53168244363E+03  0.54126030948E+03  0.79575377806E+02 0.  0.
         -6    2    1    2    0  502 -0.36331760414E+02  0.21428678448E+02  0.40261084170E+03  0.44022981386E+03  0.17299599441E+03 0.  0.
        -24    2    5    5    0    0 -0.33173012760E+02 -0.53465420167E+02  0.27385604355E+03  0.29116945111E+03  0.76311969876E+02 0.  0.
          5    1    3    3  501    0 -0.21673910645E+02 -0.45503626571E+02  0.73378004691E+02  0.89144601666E+02  0.47000000000E+01 0. -1.
        -11    1    4    4    0    0  0.22662634277E+02 -0.16878909543E+02  0.36339642060E+03  0.36449341707E+03  0.00000000000E+00 0.  1.
         12    1    4    4    0    0  0.35343036782E+02  0.40953857666E+02  0.16828602303E+03  0.17676689241E+03  0.00000000000E+00 0. -1.
         -5    1    5    5    0  502 -0.31587476538E+01  0.74894098615E+02  0.12875479816E+03  0.14906036275E+03  0.47000000000E+01 0.  1.
         13    1    6    6    0    0 -0.15154757961E+02 -0.54095678707E+02  0.26535484859E+03  0.27123643710E+03  0.00000000000E+00 0. -1.
        -14    1    6    6    0    0 -0.18018254799E+02  0.63025854044E+00  0.85011949583E+01  0.19933014011E+02  0.00000000000E+00 0.  1.
</event>
<event>
12    1  0.8494789E-002  0.1966791E+03  0.7818608E-02  0.1153038E+00
         21   -1    0    0  501  502  0.00000000000E+00  0.00000000000E+00  0.22824729152E+04  0.22824729152E+04  0.00000000000E+00 0.  1.
         21   -1    0    0  502  503 -0.00000000000E+00 -0.00000000000E+00 -0.54664075490E+02  0.54664075490E+02  0.00000000000E+00 0.  1.
         -6    2    1    2    0  503  0.92504368247E+02  0.17971371530E+02  0.13899625124E+03  0.23908534430E+03  0.17018171366E+03 0.  0.
        -24    2    3    3    0    0 -0.16465916705E+02  0.30076400560E+01  0.79404960948E+02  0.11389889080E+03  0.79922695095E+02 0.  0.
          6    2    1    2  501    0 -0.92504368247E+02 -0.17971371530E+02  0.20888125885E+04  0.20980516464E+04  0.17263444846E+03 0.  0.
         24    2    5    5    0    0 -0.21625971203E+02 -0.49200897452E+02  0.64430080711E+03  0.65145722951E+03  0.79903572438E+02 0.  0.
          5    1    5    5  501    0 -0.70878397045E+02  0.31229525922E+02  0.14445117814E+04  0.14465944169E+04  0.47000000000E+01 0. -1.
        -13    1    6    6    0    0  0.26710005409E+02 -0.30526895217E+02  0.37734341085E+03  0.37951727949E+03  0.00000000000E+00 0.  1.
         14    1    6    6    0    0 -0.48335976611E+02 -0.18674002235E+02  0.26695739627E+03  0.27193995002E+03  0.00000000000E+00 0. -1.
         -5    1    3    3    0  503  0.10897028495E+03  0.14963731474E+02  0.59591290289E+02  0.12518645350E+03  0.47000000000E+01 0.  1.
         11    1    4    4    0    0 -0.63434350507E+01 -0.13051601626E+02  0.90670594802E+02  0.91824507812E+02  0.00000000000E+00 0. -1.
        -12    1    4    4    0    0 -0.10122481654E+02  0.16059241682E+02 -0.11265633854E+02  0.22074382990E+02  0.00000000000E+00 0.  1.
</event>
<event>
12    1  0.8494789E-002  0.1849262E+03  0.7818608E-02  0.1164384E+00
         21   -1    0    0  501  502  0.00000000000E+00  0.00000000000E+00  0.76840392744E+03  0.76840392744E+03  0.00000000000E+00 0.  1.
         21   -1    0    0  502  503 -0.00000000000E+00 -0.00000000000E+00 -0.23198301556E+03  0.23198301556E+03  0.00000000000E+00 0.  1.
         -6    2    1    2    0  503  0.70590041159E+02  0.13158183801E+02 -0.18223554711E+03  0.25962950605E+03  0.17041594429E+03 0.  0.
        -24    2    3    3    0    0  0.16295870226E+02 -0.27583982232E+02 -0.13944829735E+03  0.17925152503E+03  0.10797615538E+03 0.  0.
          6    2    1    2  501    0 -0.70590041159E+02 -0.13158183801E+02  0.71865645899E+03  0.74075743695E+03  0.16461586388E+03 0.  0.
         24    2    5    5    0    0 -0.63221755146E+02 -0.35536476246E+02  0.70679765824E+03  0.71396563285E+03  0.70172385853E+02 0.  0.
          5    1    5    5  501    0 -0.73682860131E+01  0.22378292445E+02  0.11858800750E+02  0.26791804097E+02  0.47000000000E+01 0. -1.
        -11    1    6    6    0    0 -0.36656426416E+02 -0.59714030902E+01  0.11529856735E+03  0.12113261693E+03  0.00000000000E+00 0.  1.
         12    1    6    6    0    0 -0.26565328731E+02 -0.29565073156E+02  0.59149909089E+03  0.59283301592E+03  0.00000000000E+00 0. -1.
         -5    1    3    3    0  503  0.54294170933E+02  0.40742166032E+02 -0.42787249756E+02  0.80377981015E+02  0.47000000000E+01 0.  1.
         11    1    4    4    0    0  0.49040236996E+02 -0.10514493798E+01 -0.20689421067E+02  0.53236289639E+02  0.00000000000E+00 0. -1.
        -12    1    4    4    0    0 -0.32744366770E+02 -0.26532532852E+02 -0.11875887629E+03  0.12601523540E+03  0.00000000000E+00 0.  1.
</event>
<event>
12    1  0.8494789E-002  0.1726041E+03  0.7818608E-02  0.1175570E+00
         21   -1    0    0  501  502  0.00000000000E+00  0.00000000000E+00  0.10920691180E+04  0.10920691180E+04  0.00000000000E+00 0. -1.
         21   -1    0    0  502  503 -0.00000000000E+00 -0.00000000000E+00 -0.27189768477E+02  0.27189768477E+02  0.00000000000E+00 0. -1.
         -6    2    1    2    0  503  0.22025970358E+02 -0.15321898426E+02  0.57314002772E+03  0.59810658617E+03  0.16888485161E+03 0.  0.
        -24    2    3    3    0    0  0.39361435613E+02 -0.47120211620E+02  0.20545940960E+03  0.22861669724E+03  0.79261518460E+02 0.  0.
          6    2    1    2  501    0 -0.22025970358E+02  0.15321898426E+02  0.49173932183E+03  0.52115230034E+03  0.17050588133E+03 0.  0.
         24    2    5    5    0    0  0.20658477104E+02 -0.48580225554E+02  0.26844693736E+03  0.28495953485E+03  0.79695466204E+02 0.  0.
          5    1    5    5  501    0 -0.42684447462E+02  0.63902123980E+02  0.22329238447E+03  0.23619276548E+03  0.47000000000E+01 0. -1.
        -11    1    6    6    0    0  0.31735218665E+01 -0.42089250932E+02  0.26176751286E+03  0.26514865090E+03  0.00000000000E+00 0.  1.
         12    1    6    6    0    0  0.17484955238E+02 -0.64909746226E+01  0.66794244970E+01  0.19810883949E+02  0.00000000000E+00 0. -1.
         -5    1    3    3    0  503 -0.17335465256E+02  0.31798313195E+02  0.36768061812E+03  0.36948988893E+03  0.47000000000E+01 0.  1.
         13    1    4    4    0    0  0.56964420691E+02 -0.82104929489E+01  0.11824825657E+03  0.13151048476E+03  0.00000000000E+00 0. -1.
        -14    1    4    4    0    0 -0.17602985077E+02 -0.38909718671E+02  0.87211153023E+02  0.97106212481E+02  0.00000000000E+00 0.  1.
</event>
<event>
12    1  0.8494789E-002  0.1870759E+03  0.7818608E-02  0.1161334E+00
         21   -1    0    0  503  502  0.00000000000E+00  0.00000000000E+00  0.11546649293E+03  0.11546649293E+03  0.00000000000E+00 0. -1.
         21   -1    0    0  501  503 -0.00000000000E+00 -0.00000000000E+00 -0.30877243929E+03  0.30877243929E+03  0.00000000000E+00 0. -1.
          6    2    1    2  501    0  0.48720939668E+02  0.56344942956E+02 -0.12914373237E+03  0.22732248436E+03  0.17160689300E+03 0.  0.
         24    2    3    3    0    0 -0.23048323282E+01  0.46692647097E+01 -0.11125549607E+03  0.15238194708E+03  0.10399691392E+03 0.  0.
         -6    2    1    2    0  502 -0.48720939668E+02 -0.56344942956E+02 -0.64162213985E+02  0.19691644786E+03  0.17061891799E+03 0.  0.
        -24    2    5    5    0    0  0.95719839131E+01 -0.49941976044E+02 -0.91016990102E+02  0.13224549670E+03  0.81356960746E+02 0.  0.
          5    1    3    3  501    0  0.51025771996E+02  0.51675678246E+02 -0.17888236300E+02  0.74940537281E+02  0.47000000000E+01 0. -1.
        -11    1    4    4    0    0  0.24623939402E+02 -0.30435501705E+02 -0.78771374284E+01  0.39933788323E+02  0.00000000000E+00 0.  1.
         12    1    4    4    0    0 -0.26928771730E+02  0.35104766415E+02 -0.10337835864E+03  0.11244815876E+03  0.00000000000E+00 0. -1.
         -5    1    5    5    0  502 -0.58292923581E+02 -0.64029669125E+01  0.26854776117E+02  0.64670951170E+02  0.47000000000E+01 0.  1.
         13    1    6    6    0    0  0.47340180160E+00 -0.69321104790E+02 -0.85622830305E+02  0.11016763930E+03  0.00000000000E+00 0. -1.
        -14    1    6    6    0    0  0.90985821115E+01  0.19379128747E+02 -0.53941597969E+01  0.22077857399E+02  0.00000000000E+00 0.  1.
</event>
<event>
12    1  0.8494789E-002  0.2476878E+03  0.7818608E-02  0.1115239E+00
         21   -1    0    0  503  502  0.00000000000E+00  0.00000000000E+00  0.73099309232E+02  0.73099309232E+02  0.00000000000E+00 0.  1.
         21   -1    0    0  501  503 -0.00000000000E+00 -0.00000000000E+00 -0.89176010208E+03  0.89176010208E+03  0.00000000000E+00 0. -1.
          6    2    1    2  501    0 -0.17800524924E+03 -0.93062764648E+01 -0.27963677120E+03  0.37165106774E+03  0.16779546122E+03 0.  0.
         24    2    3    3    0    0 -0.14430925449E+03 -0.36767514963E+02 -0.12204916917E+03  0.20811060792E+03  0.78974770316E+02 0.  0.
         -6    2    1    2    0  502  0.17800524924E+03  0.93062764648E+01 -0.53902402164E+03  0.59320834357E+03  0.17197897381E+03 0.  0.
        -24    2    5    5    0    0  0.14700373196E+03 -0.44375166717E+02 -0.46686957488E+03  0.49796578164E+03  0.80146535191E+02 0.  0.
          5    1    3    3  501    0 -0.33695994745E+02  0.27461238499E+02 -0.15758760203E+03  0.16354045981E+03  0.47000000000E+01 0. -1.
        -13    1    4    4    0    0 -0.14075385978E+03 -0.18133485695E+02 -0.12474582984E+03  0.18894971397E+03  0.00000000000E+00 0.  1.
         14    1    4    4    0    0 -0.35553947129E+01 -0.18634029268E+02  0.26966606721E+01  0.19160893954E+02  0.00000000000E+00 0. -1.
         -5    1    5    5    0  502  0.31001517276E+02  0.53681443182E+02 -0.72154446768E+02  0.95242561935E+02  0.47000000000E+01 0.  1.
         11    1    6    6    0    0  0.69022650700E+02 -0.48714093510E+02 -0.32732501433E+03  0.33805155557E+03  0.00000000000E+00 0. -1.
        -12    1    6    6    0    0  0.77981081264E+02  0.43389267926E+01 -0.13954456054E+03  0.15991422606E+03  0.00000000000E+00 0.  1.
</event>
<event>
12    1  0.8494789E-002  0.1994703E+03  0.7818608E-02  0.1150562E+00
         21   -1    0    0  503  502  0.00000000000E+00  0.00000000000E+00  0.49703803887E+02  0.49703803887E+02  0.00000000000E+00 0. -1.
         21   -1    0    0  501  503 -0.00000000000E+00 -0.00000000000E+00 -0.13131505840E+04  0.13131505840E+04  0.00000000000E+00 0.  1.
          6    2    1    2  501    0 -0.77486720320E+01 -0.98641881221E+02 -0.10587117482E+04  0.10770138266E+04  0.17116645220E+03 0.  0.
         24    2    3    3    0    0 -0.29920449477E+02 -0.55638698336E+02 -0.97375534567E+03  0.97913358459E+03  0.80698235428E+02 0.  0.
         -6    2    1    2    0  502  0.77486720320E+01  0.98641881221E+02 -0.20473503191E+03  0.28584056124E+03  0.17319968392E+03 0.  0.
        -24    2    5    5    0    0  0.14512742434E+02 -0.76283386708E+01 -0.13523155230E+03  0.15859302310E+03  0.81211840240E+02 0.  0.
          5    1    3    3  501    0  0.22171777445E+02 -0.43003182886E+02 -0.84956402499E+02  0.97880242025E+02  0.47000000000E+01 0. -1.
        -13    1    4    4    0    0 -0.44486651161E+02 -0.15155190850E+02 -0.26964738771E+03  0.27371235931E+03  0.00000000000E+00 0.  1.
         14    1    4    4    0    0  0.14566201684E+02 -0.40483507486E+02 -0.70410795797E+03  0.70542122528E+03  0.00000000000E+00 0. -1.
         -5    1    5    5    0  502 -0.67640704022E+01  0.10627021989E+03 -0.69503479613E+02  0.12724753814E+03  0.47000000000E+01 0.  1.
         11    1    6    6    0    0 -0.13927547231E+02 -0.22626225121E+02 -0.85743505995E+01  0.27918490706E+02  0.00000000000E+00 0. -1.
        -12    1    6    6    0    0  0.28440289665E+02  0.14997886450E+02 -0.12665720170E+03  0.13067453239E+03  0.00000000000E+00 0.  1.
</event>
<event>
12    1  0.8494789E-002  0.2039342E+03  0.7818608E-02  0.1146730E+00
         21   -1    0    0  501  502  0.00000000000E+00  0.00000000000E+00  0.31005221004E+03  0.31005221004E+03  0.00000000000E+00 0. -1.
         21   -1    0    0  502  503 -0.00000000000E+00 -0.00000000000E+00 -0.14169794783E+03  0.14169794783E+03  0.00000000000E+00 0. -1.
         -6    2    1    2    0  503  0.14517763540E+01  0.10539681269E+03  0.29378277436E+02  0.20603944803E+03  0.17458114211E+03 0.  0.
        -24    2    3    3    0    0 -0.54570534779E+02  0.52939011705E+02 -0.23329393120E+02  0.11281654975E+03  0.80017692345E+02 0.  0.
          6    2    1    2  501    0 -0.14517763540E+01 -0.10539681269E+03  0.13897598477E+03  0.24571070984E+03  0.17305731076E+03 0.  0.
         24    2    5    5    0    0  0.13033089273E+02 -0.37722385395E+02  0.15024989254E+03  0.17543389689E+03  0.81296876911E+02 0.  0.
          5    1    5    5  501    0 -0.14484865627E+02 -0.67674427296E+02 -0.11273907766E+02  0.70276812949E+02  0.47000000000E+01 0. -1.
        -11    1    6    6    0    0 -0.24326918928E+02  0.12967717034E+02  0.43782673919E+02  0.51738604592E+02  0.00000000000E+00 0.  1.
         12    1    6    6    0    0  0.37360008201E+02 -0.50690102429E+02  0.10646721862E+03  0.12369529230E+03  0.00000000000E+00 0. -1.
         -5    1    3    3    0  503  0.56022311133E+02  0.52457800986E+02  0.52707670556E+02  0.93222898283E+02  0.47000000000E+01 0.  1.
         13    1    4    4    0    0 -0.35675762724E+02  0.65608340956E+02  0.68827787405E+01  0.74997247230E+02  0.00000000000E+00 0. -1.
        -14    1    4    4    0    0 -0.18894772055E+02 -0.12669329251E+02 -0.30212171861E+02  0.37819302522E+02  0.00000000000E+00 0.  1.
</event>
<event>
12    1  0.8494789E-002  0.1966695E+03  0.7818608E-02  0.1153251E+00
         21   -1    0    0  501  502  0.00000000000E+00  0.00000000000E+00  0.36038538351E+03  0.36038538351E+03  0.00000000000E+00 0.  1.
         21   -1    0    0  502  503 -0.00000000000E+00 -0.00000000000E+00 -0.10765557431E+03  0.10765557431E+03  0.00000000000E+00 0.  1.
         -6    2    1    2    0  503  0.73535879615E+02 -0.51808627070E+02  0.93430291364E+02  0.21494960428E+03  0.17141310803E+03 0.  0.
        -24    2    3    3    0    0  0.13679376176E+02  0.42782773986E+01 -0.14560612198E+02  0.79256321068E+02  0.76577568592E+02 0.  0.
          6    2    1    2  501    0 -0.73535879615E+02  0.51808627070E+02  0.15929951783E+03  0.25309135354E+03  0.17489207365E+03 0.  0.
         24    2    5    5    0    0 -0.58749507055E+02 -0.31669638337E+02  0.54337246972E+02  0.11808607248E+03  0.80853655048E+02 0.  0.
          5    1    5    5  501    0 -0.14786372560E+02  0.83478265407E+02  0.10496227086E+03  0.13500528105E+03  0.47000000000E+01 0. -1.
        -11    1    6    6    0    0 -0.57510751719E+02  0.10402780872E+02  0.14687965140E+02  0.60261436534E+02  0.00000000000E+00 0.  1.
         12    1    6    6    0    0 -0.12387553358E+01 -0.42072419210E+02  0.39649281833E+02  0.57824635950E+02  0.00000000000E+00 0. -1.
         -5    1    3    3    0  503  0.59856503439E+02 -0.56086904469E+02  0.10799090356E+03  0.13569328321E+03  0.47000000000E+01 0.  1.
         13    1    4    4    0    0 -0.11074890987E+02 -0.13877625368E+02 -0.37128147337E+02  0.41155084994E+02  0.00000000000E+00 0. -1.
        -14    1    4    4    0    0  0.24754267164E+02  0.18155902766E+02  0.22567535139E+02  0.38101236073E+02  0.00000000000E+00 0.  1.
</event>
<event>
12    1  0.8494789E-002  0.1787106E+03  0.7818608E-02  0.1169101E+00
         21   -1    0    0  503  502  0.00000000000E+00  0.00000000000E+00  0.57311390949E+02  0.57311390949E+02  0.00000000000E+00 0. -1.
         21   -1    0    0  501  503 -0.00000000000E+00 -0.00000000000E+00 -0.60148817426E+03  0.60148817426E+03  0.00000000000E+00 0. -1.
          6    2    1    2  501    0 -0.32111862101E+02 -0.37414011151E+02 -0.36185313154E+03  0.40349702036E+03  0.17158431371E+03 0.  0.
         24    2    3    3    0    0 -0.24966975079E+02 -0.46717385670E+02 -0.37377321628E+03  0.38612518660E+03  0.81119532459E+02 0.  0.
         -6    2    1    2    0  502  0.32111862101E+02  0.37414011151E+02 -0.18232365177E+03  0.25530254485E+03  0.17177454845E+03 0.  0.
        -24    2    5    5    0    0  0.51067664433E+02  0.62509088646E+02 -0.19239368124E+03  0.22194717272E+03  0.75696277213E+02 0.  0.
          5    1    3    3  501    0 -0.71448870225E+01  0.93033745189E+01  0.11920084740E+02  0.17371833760E+02  0.47000000000E+01 0. -1.
        -11    1    4    4    0    0 -0.21134294066E+02 -0.52810379802E+02 -0.12596890141E+03  0.13821634752E+03  0.00000000000E+00 0.  1.
         12    1    4    4    0    0 -0.38326810125E+01  0.60929941319E+01 -0.24780431487E+03  0.24790883907E+03  0.00000000000E+00 0. -1.
         -5    1    5    5    0  502 -0.18955802332E+02 -0.25095077496E+02  0.10070029469E+02  0.33355372132E+02  0.47000000000E+01 0.  1.
         11    1    6    6    0    0  0.38490110782E+02  0.38360283562E+02 -0.18627580744E+03  0.19404039894E+03  0.00000000000E+00 0. -1.
        -12    1    6    6    0    0  0.12577553651E+02  0.24148805084E+02 -0.61178737934E+01  0.27906773777E+02  0.00000000000E+00 0.  1.
</event>
<event>
12    1  0.8494789E-002  0.2106184E+03  0.7818608E-02  0.1141429E+00
         21   -1    0    0  501  502  0.00000000000E+00  0.00000000000E+00  0.41173815828E+03  0.41173815828E+03  0.00000000000E+00 0.  1.
         21   -1    0    0  502  503 -0.00000000000E+00 -0.00000000000E+00 -0.15580329394E+03  0.15580329394E+03  0.00000000000E+00 0.  1.
         -6    2    1    2    0  503 -0.11408649381E+03  0.37617253937E+02 -0.30751916393E+02  0.21285160908E+03  0.17300098631E+03 0.  0.
        -24    2    3    3    0    0 -0.21303558430E+02  0.72625888168E+02 -0.72665929859E+01  0.11083235608E+03  0.80638988996E+02 0.  0.
          6    2    1    2  501    0  0.11408649381E+03 -0.37617253937E+02  0.28668678073E+03  0.35468984314E+03  0.17083556045E+03 0.  0.
         24    2    5    5    0    0  0.14632518364E+03 -0.27207780550E+02  0.26348663617E+03  0.31336156026E+03  0.81356851663E+02 0.  0.
          5    1    5    5  501    0 -0.32238689836E+02 -0.10409473387E+02  0.23200144560E+02  0.41328282884E+02  0.47000000000E+01 0. -1.
        -13    1    6    6    0    0  0.94944342311E+02 -0.56392106885E+02  0.16650515080E+03  0.19979605376E+03  0.00000000000E+00 0.  1.
         14    1    6    6    0    0  0.51380841333E+02  0.29184326336E+02  0.96981485379E+02  0.11356550650E+03  0.00000000000E+00 0. -1.
         -5    1    3    3    0  503 -0.92782935378E+02 -0.35008634232E+02 -0.23485323407E+02  0.10201925300E+03  0.47000000000E+01 0.  1.
         13    1    4    4    0    0 -0.46340334543E+02  0.31753879636E+02  0.14760007067E+02  0.58082641866E+02  0.00000000000E+00 0. -1.
        -14    1    4    4    0    0  0.25036776113E+02  0.40872008532E+02 -0.22026600053E+02  0.52749714212E+02  0.00000000000E+00 0.  1.
</event>
<event>
12    1  0.8494789E-002  0.1740283E+03  0.7818608E-02  0.1173864E+00
         21   -1    0    0  501  502  0.00000000000E+00  0.00000000000E+00  0.83084910617E+02  0.83084910617E+02  0.00000000000E+00 0.  1.
         21   -1    0    0  502  503 -0.00000000000E+00 -0.00000000000E+00 -0.37458607244E+03  0.37458607244E+03  0.00000000000E+00 0.  1.
         -6    2    1    2    0  503 -0.21076157321E+02 -0.12199576538E+02 -0.18580754597E+03  0.25457864127E+03  0.17231600732E+03 0.  0.
        -24    2    3    3    0    0 -0.19625392875E+02 -0.55896549434E+02 -0.48684836595E+02  0.11057774689E+03  0.79672106215E+02 0.  0.
          6    2    1    2  501    0  0.21076157321E+02  0.12199576538E+02 -0.10569361585E+03  0.20309234178E+03  0.17170417812E+03 0.  0.
         24    2    5    5    0    0  0.43197367964E+02 -0.14664356652E+02  0.77957893105E+00  0.90977890999E+02  0.78710310330E+02 0.  0.
          5    1    5    5  501    0 -0.22121210643E+02  0.26863933190E+02 -0.10647319478E+03  0.11211445078E+03  0.47000000000E+01 0. -1.
        -11    1    6    6    0    0  0.35274582668E+02 -0.36634522978E+01 -0.36752074198E+02  0.51072810996E+02  0.00000000000E+00 0.  1.
         12    1    6    6    0    0  0.79227852964E+01 -0.11000904354E+02  0.37531653129E+02  0.39905080003E+02  0.00000000000E+00 0. -1.
         -5    1    3    3    0  503 -0.14507644463E+01  0.43696972897E+02 -0.13712270937E+03  0.14400089438E+03  0.47000000000E+01 0.  1.
         13    1    4    4    0    0  0.17406859600E+02 -0.21474844012E+02  0.13226551137E+02  0.30644890951E+02  0.00000000000E+00 0. -1.
        -14    1    4    4    0    0 -0.37032252475E+02 -0.34421705423E+02 -0.61911387732E+02  0.79932855938E+02  0.00000000000E+00 0.  1.
</event>
<event>
12    1  0.8494789E-002  0.2097767E+03  0.7818608E-02  0.1142349E+00
         21   -1    0    0  501  502  0.00000000000E+00  0.00000000000E+00  0.19186696347E+03  0.19186696347E+03  0.00000000000E+00 0. -1.
         21   -1    0    0  502  503 -0.00000000000E+00 -0.00000000000E+00 -0.58073252211E+03  0.58073252211E+03  0.00000000000E+00 0. -1.
         -6    2    1    2    0  503 -0.93902236751E+02  0.74972870791E+02 -0.49687401097E+03  0.53934222643E+03  0.17195258944E+03 0.  0.
        -24    2    3    3    0    0 -0.12295325431E+03  0.49985829986E+02 -0.46250376958E+03  0.48765356886E+03  0.79247589217E+02 0.  0.
          6    2    1    2  501    0  0.93902236751E+02 -0.74972870791E+02  0.10800845232E+03  0.23325725915E+03  0.16823959626E+03 0.  0.
         24    2    5    5    0    0  0.97098919733E+02 -0.25541718250E+02  0.16692677777E+02  0.12926534454E+03  0.79688796089E+02 0.  0.
          5    1    5    5  501    0 -0.31966829829E+01 -0.49431152541E+02  0.91315774544E+02  0.10399191461E+03  0.47000000000E+01 0. -1.
        -11    1    6    6    0    0  0.35153531413E+02  0.27954669849E+02  0.15159449461E+02  0.47402987724E+02  0.00000000000E+00 0.  1.
         12    1    6    6    0    0  0.61945388320E+02 -0.53496388099E+02  0.15332283159E+01  0.81862356812E+02  0.00000000000E+00 0. -1.
         -5    1    3    3    0  503  0.29051017555E+02  0.24987040805E+02 -0.34370241387E+02  0.51688657577E+02  0.47000000000E+01 0.  1.
         13    1    4    4    0    0 -0.92017436248E+02  0.59269091925E+02 -0.25280689017E+03  0.27548386078E+03  0.00000000000E+00 0. -1.
        -14    1    4    4    0    0 -0.30935818057E+02 -0.92832619392E+01 -0.20969687941E+03  0.21216970808E+03  0.00000000000E+00 0.  1.
</event>
<event>
12    1  0.8494789E-002  0.1961652E+03  0.7818608E-02  0.1153191E+00
         21   -1    0    0  501  502  0.00000000000E+00  0.00000000000E+00  0.15530480957E+03  0.15530480957E+03  0.00000000000E+00 0.  1.
         21   -1    0    0  502  503 -0.00000000000E+00 -0.00000000000E+00 -0.27519799239E+03  0.27519799239E+03  0.00000000000E+00 0.  1.
         -6    2    1    2    0  503  0.94174013180E+02 -0.64220042973E+01 -0.12903869860E+03  0.23412452591E+03  0.17103602252E+03 0.  0.
        -24    2    3    3    0    0  0.77371661323E+02  0.50637996895E+02 -0.12562900164E+03  0.17435932871E+03  0.77897039413E+02 0.  0.
          6    2    1    2  501    0 -0.94174013180E+02  0.64220042973E+01  0.91455157731E+01  0.19637827605E+03  0.17196162347E+03 0.  0.
         24    2    5    5    0    0 -0.91456795372E+02 -0.26096116701E+02  0.57934259093E+02  0.13749497671E+03  0.80642033192E+02 0.  0.
          5    1    5    5  501    0 -0.27172178080E+01  0.32518120998E+02 -0.48788743320E+02  0.58883299335E+02  0.47000000000E+01 0. -1.
        -11    1    6    6    0    0 -0.71625316625E+02  0.14244409683E+02  0.13455438942E+02  0.74257242246E+02  0.00000000000E+00 0.  1.
         12    1    6    6    0    0 -0.19831478748E+02 -0.40340526384E+02  0.44478820151E+02  0.63237734465E+02  0.00000000000E+00 0. -1.
         -5    1    3    3    0  503  0.16802351857E+02 -0.57060001192E+02 -0.34096969655E+01  0.59765197208E+02  0.47000000000E+01 0.  1.
         13    1    4    4    0    0  0.19287919004E+01  0.16429482300E+02 -0.76031061841E+02  0.77809835442E+02  0.00000000000E+00 0. -1.
        -14    1    4    4    0    0  0.75442869423E+02  0.34208514595E+02 -0.49597939794E+02  0.96549493263E+02  0.00000000000E+00 0.  1.
</event>
<event>
12    1  0.8494789E-002  0.1896575E+03  0.7818608E-02  0.1158877E+00
         21   -1    0    0  501  502  0.00000000000E+00  0.00000000000E+00  0.10086341047E+04  0.10086341047E+04  0.00000000000E+00 0. -1.
         21   -1    0    0  502  503 -0.00000000000E+00 -0.00000000000E+00 -0.37381954979E+02  0.37381954979E+02  0.00000000000E+00 0.  1.
         -6    2    1    2    0  503 -0.62212560705E+02 -0.48306037051E+02  0.60122758900E+03  0.63043205815E+03  0.17252852009E+03 0.  0.
        -24    2    3    3    0    0 -0.91673501714E+02  0.10033526112E+02  0.38661319252E+03  0.40603758216E+03  0.83018401205E+02 0.  0.
          6    2    1    2  501    0  0.62212560705E+02  0.48306037051E+02  0.37002456072E+03  0.41558400152E+03  0.17201165909E+03 0.  0.
         24    2    5    5    0    0  0.10296326249E+03  0.33480252521E+02  0.20908063001E+03  0.24883430163E+03  0.80507385331E+02 0.  0.
          5    1    5    5  501    0 -0.40750701781E+02  0.14825784529E+02  0.16094393071E+03  0.16674969990E+03  0.47000000000E+01 0. -1.
        -13    1    6    6    0    0  0.34758044046E+02  0.51478003197E+02  0.12079324844E+03  0.13582752044E+03  0.00000000000E+00 0.  1.
         14    1    6    6    0    0  0.68205218440E+02 -0.17997750676E+02  0.88287381567E+02  0.11300678119E+03  0.00000000000E+00 0. -1.
         -5    1    3    3    0  503  0.29460941009E+02 -0.58339563162E+02  0.21461439648E+03  0.22439447598E+03  0.47000000000E+01 0.  1.
         11    1    4    4    0    0 -0.50206426694E+01 -0.91093302854E+00  0.19926622866E+03  0.19933154927E+03  0.00000000000E+00 0. -1.
        -12    1    4    4    0    0 -0.86652859045E+02  0.10944459140E+02  0.18734696386E+03  0.20670603289E+03  0.00000000000E+00 0.  1.
</event>
<event>
12    1  0.8494789E-002  0.2151476E+03  0.7818608E-02  0.1138531E+00
         21   -1    0    0  503  502  0.00000000000E+00  0.00000000000E+00  0.47057139139E+02  0.47057139139E+02  0.00000000000E+00 0.  1.
         21   -1    0    0  501  503 -0.00000000000E+00 -0.00000000000E+00 -0.11963700390E+04  0.11963700390E+04  0.00000000000E+00 0. -1.
          6    2    1    2  501    0 -0.10922295350E+03 -0.69516347927E+02 -0.85598783251E+03  0.88261183484E+03  0.17183220123E+03 0.  0.
         24    2    3    3    0    0 -0.11746118675E+03 -0.87006037433E+02 -0.52124120627E+03  0.54727446515E+03  0.80310423647E+02 0.  0.
         -6    2    1    2    0  502  0.10922295350E+03  0.69516347927E+02 -0.29332506733E+03  0.36081534329E+03  0.16548698024E+03 0.  0.
        -24    2    5    5    0    0  0.13985851340E+03  0.64024245793E+02 -0.27272912397E+03  0.32319907554E+03  0.80105927068E+02 0.  0.
          5    1    3    3  501    0  0.82382332571E+01  0.17489689506E+02 -0.33474662624E+03  0.33533736969E+03  0.47000000000E+01 0. -1.
        -11    1    4    4    0    0 -0.24880809650E+02 -0.58547379893E+02 -0.13756378250E+03  0.15156069622E+03  0.00000000000E+00 0.  1.
         12    1    4    4    0    0 -0.92580377104E+02 -0.28458657540E+02 -0.38367742377E+03  0.39571376893E+03  0.00000000000E+00 0. -1.
         -5    1    5    5    0  502 -0.30635559900E+02  0.54921021339E+01 -0.20595943364E+02  0.37616267748E+02  0.47000000000E+01 0.  1.
         11    1    6    6    0    0 -0.33251281350E+01  0.19022531156E+02 -0.58656160342E+02  0.61753204895E+02  0.00000000000E+00 0. -1.
        -12    1    6    6    0    0  0.14318364153E+03  0.45001714637E+02 -0.21407296363E+03  0.26144587065E+03  0.00000000000E+00 0.  1.
</event>
<event>
12    1  0.8494789E-002  0.2098568E+03  0.7818608E-02  0.1141705E+00
         21   -1    0    0  501  502  0.00000000000E+00  0.00000000000E+00  0.26710267534E+03  0.26710267534E+03  0.00000000000E+00 0.  1.
         21   -1    0    0  502  503 -0.00000000000E+00 -0.00000000000E+00 -0.18066453266E+03  0.18066453266E+03  0.00000000000E+00 0.  1.
         -6    2    1    2    0  503  0.50224591137E+02  0.10747989015E+03 -0.23160667237E+02  0.21113095300E+03  0.17310524680E+03 0.  0.
        -24    2    3    3    0    0  0.74635398626E+01 -0.10387747508E+02  0.14968281037E+02  0.79992879931E+02  0.77531939721E+02 0.  0.
          6    2    1    2  501    0 -0.50224591137E+02 -0.10747989015E+03  0.10959880992E+03  0.23663625500E+03  0.17294618152E+03 0.  0.
         24    2    5    5    0    0 -0.95597233679E+02 -0.59883822572E+02  0.99848194926E+02  0.16999372479E+03  0.78761038244E+02 0.  0.
          5    1    5    5  501    0  0.45372642542E+02 -0.47596067577E+02  0.97506149940E+01  0.66642530209E+02  0.47000000000E+01 0. -1.
        -13    1    6    6    0    0 -0.15778436398E+02  0.70757369955E+01  0.53018853169E+02  0.55767588262E+02  0.00000000000E+00 0.  1.
         14    1    6    6    0    0 -0.79818797280E+02 -0.66959559568E+02  0.46829341756E+02  0.11422613653E+03  0.00000000000E+00 0. -1.
         -5    1    3    3    0  503  0.42761051275E+02  0.11786763766E+03 -0.38128948274E+02  0.13113807307E+03  0.47000000000E+01 0.  1.
         11    1    4    4    0    0 -0.31342952886E+02  0.26208309697E+01  0.22109434808E+02  0.38445761251E+02  0.00000000000E+00 0. -1.
        -12    1    4    4    0    0  0.38806492749E+02 -0.13008578477E+02 -0.71411537710E+01  0.41547118681E+02  0.00000000000E+00 0.  1.
</event>
<event>
12    1  0.8494789E-002  0.1849533E+03  0.7818608E-02  0.1165769E+00
         21   -1    0    0  501  502  0.00000000000E+00  0.00000000000E+00  0.40740233115E+03  0.40740233115E+03  0.00000000000E+00 0.  1.
         21   -1    0    0  502  503 -0.00000000000E+00 -0.00000000000E+00 -0.99953986396E+02  0.99953986396E+02  0.00000000000E+00 0.  1.
         -6    2    1    2    0  503 -0.16294875744E+02 -0.17670188971E+02  0.41398429390E+02  0.18952982886E+03  0.18338475269E+03 0.  0.
        -24    2    3    3    0    0 -0.39580808560E+02  0.57356937716E+02  0.27384017336E+02  0.10959361585E+03  0.80027604728E+02 0.  0.
          6    2    1    2  501    0  0.16294875744E+02  0.17670188971E+02  0.26604991536E+03  0.31782648868E+03  0.17220151245E+03 0.  0.
         24    2    5    5    0    0  0.35229709159E+02 -0.51371893976E+02  0.17407573592E+03  0.20117882767E+03  0.79311758084E+02 0.  0.
          5    1    5    5  501    0 -0.18934833415E+02  0.69042082948E+02  0.91974179445E+02  0.11664766101E+03  0.47000000000E+01 0. -1.
        -13    1    6    6    0    0  0.60901927093E+01  0.21504947045E+02  0.39879673591E+02  0.45715878646E+02  0.00000000000E+00 0.  1.
         14    1    6    6    0    0  0.29139516450E+02 -0.72876841021E+02  0.13419606233E+03  0.15546294903E+03  0.00000000000E+00 0. -1.
         -5    1    3    3    0  503  0.23285932816E+02 -0.75027126688E+02  0.14014412054E+02  0.79936213016E+02  0.47000000000E+01 0.  1.
         11    1    4    4    0    0 -0.37817010363E+02  0.18770996591E+02  0.49519579269E+02  0.65074306118E+02  0.00000000000E+00 0. -1.
        -12    1    4    4    0    0 -0.17637981968E+01  0.38585941125E+02 -0.22135561933E+02  0.44519309728E+02  0.00000000000E+00 0.  1.
</event>
<event>
12    1  0.8494789E-002  0.1932800E+03  0.7818608E-02  0.1155716E+00
         21   -1    0    0  501  502  0.00000000000E+00  0.00000000000E+00  0.58343157247E+02  0.58343157247E+02  0.00000000000E+00 0.  1.
         21   -1    0    0  502  503 -0.00000000000E+00 -0.00000000000E+00 -0.68622750593E+03  0.68622750593E+03  0.00000000000E+00 0.  1.
         -6    2    1    2    0  503  0.83802004622E+02 -0.22541854048E+02 -0.21422110222E+03  0.28798066563E+03  0.17178845124E+03 0.  0.
        -24    2    3    3    0    0 -0.12505508783E+02 -0.42025487974E+02 -0.79418044017E+02  0.12110135706E+03  0.80223335617E+02 0.  0.
          6    2    1    2  501    0 -0.83802004622E+02  0.22541854048E+02 -0.41366324646E+03  0.45658999754E+03  0.17270273078E+03 0.  0.
         24    2    5    5    0    0  0.74902490871E+01  0.53009101603E+02 -0.22405912096E+03  0.24390632829E+03  0.80135751120E+02 0.  0.
          5    1    5    5  501    0 -0.91292253709E+02 -0.30467247555E+02 -0.18960412550E+03  0.21268366926E+03  0.47000000000E+01 0. -1.
        -11    1    6    6    0    0 -0.35391692189E+02  0.23316465325E+02 -0.12442939166E+03  0.13144924092E+03  0.00000000000E+00 0.  1.
         12    1    6    6    0    0  0.42881941276E+02  0.29692636278E+02 -0.99629729303E+02  0.11245708736E+03  0.00000000000E+00 0. -1.
         -5    1    3    3    0  503  0.96307513404E+02  0.19483633926E+02 -0.13480305820E+03  0.16687930857E+03  0.47000000000E+01 0.  1.
         13    1    4    4    0    0 -0.20472406914E+02 -0.27247946886E+02 -0.93291751696E+02  0.99322308616E+02  0.00000000000E+00 0. -1.
        -14    1    4    4    0    0  0.79668981317E+01 -0.14777541088E+02  0.13873707679E+02  0.21779048446E+02  0.00000000000E+00 0.  1.
</event>
<event>
12    1  0.8494789E-002  0.2607481E+03  0.7818608E-02  0.1106752E+00
         21   -1    0    0  501  502  0.00000000000E+00  0.00000000000E+00  0.12550466744E+03  0.12550466744E+03  0.00000000000E+00 0. -1.
         21   -1    0    0  502  503 -0.00000000000E+00 -0.00000000000E+00 -0.54847039950E+03  0.54847039950E+03  0.00000000000E+00 0.  1.
         -6    2    1    2    0  503 -0.14566723910E+03 -0.13032668508E+03 -0.17181961105E+03  0.31194754749E+03  0.17200379139E+03 0.  0.
        -24    2    3    3    0    0 -0.21643012809E+02 -0.73842284854E+02 -0.12583868175E+03  0.16804191162E+03  0.80508429368E+02 0.  0.
          6    2    1    2  501    0  0.14566723910E+03  0.13032668508E+03 -0.25114612101E+03  0.36202751944E+03  0.17258493950E+03 0.  0.
         24    2    5    5    0    0  0.76406709424E+01  0.24570694343E+02 -0.54895525223E+02  0.99783264135E+02  0.79253279042E+02 0.  0.
          5    1    5    5  501    0  0.13802656816E+03  0.10575599074E+03 -0.19625059578E+03  0.26224425531E+03  0.47000000000E+01 0. -1.
        -11    1    6    6    0    0  0.33480287179E+02  0.20598472008E+02 -0.61342515025E+02  0.72856920249E+02  0.00000000000E+00 0.  1.
         12    1    6    6    0    0 -0.25839616237E+02  0.39722223351E+01  0.64469898012E+01  0.26926343886E+02  0.00000000000E+00 0. -1.
         -5    1    3    3    0  503 -0.12402422630E+03 -0.56484400226E+02 -0.45980929302E+02  0.14390563587E+03  0.47000000000E+01 0.  1.
         13    1    4    4    0    0 -0.34627500562E+02 -0.35658493949E+02 -0.17925834079E+02  0.52838693335E+02  0.00000000000E+00 0. -1.
        -14    1    4    4    0    0  0.12984487753E+02 -0.38183790905E+02 -0.10791284767E+03  0.11520321828E+03  0.00000000000E+00 0.  1.
</event>
<event>
12    1  0.8494789E-002  0.2979322E+03  0.7818608E-02  0.1086473E+00
         21   -1    0    0  503  502  0.00000000000E+00  0.00000000000E+00  0.82712392481E+03  0.82712392481E+03  0.00000000000E+00 0.  1.
         21   -1    0    0  501  503 -0.00000000000E+00 -0.00000000000E+00 -0.15138030869E+03  0.15138030869E+03  0.00000000000E+00 0. -1.
          6    2    1    2  501    0 -0.23854152732E+03  0.47610206849E+02  0.72874177839E+02  0.30671525470E+03  0.17203142044E+03 0.  0.
         24    2    3    3    0    0 -0.15126591455E+03 -0.39006757244E+02  0.46996244944E+02  0.18097230872E+03  0.78354485951E+02 0.  0.
         -6    2    1    2    0  502  0.23854152732E+03 -0.47610206849E+02  0.60286943829E+03  0.67178897880E+03  0.16935194231E+03 0.  0.
        -24    2    5    5    0    0  0.76812437421E+02 -0.63269134512E+02  0.33549793708E+03  0.35888146819E+03  0.79585856185E+02 0.  0.
          5    1    3    3  501    0 -0.87275612774E+02  0.86616964093E+02  0.25877932895E+02  0.12574294598E+03  0.47000000000E+01 0. -1.
        -11    1    4    4    0    0 -0.15813485993E+03 -0.41597748985E+02  0.35487087462E+02  0.16732106867E+03  0.00000000000E+00 0.  1.
         12    1    4    4    0    0  0.68689453792E+01  0.25909917414E+01  0.11509157482E+02  0.13651240045E+02  0.00000000000E+00 0. -1.
         -5    1    5    5    0  502  0.16172908990E+03  0.15658927663E+02  0.26737150121E+03  0.31290751061E+03  0.47000000000E+01 0.  1.
         11    1    6    6    0    0 -0.10468870784E+02  0.10705905282E+01  0.88590252595E+02  0.89213094747E+02  0.00000000000E+00 0. -1.
        -12    1    6    6    0    0  0.87281308206E+02 -0.64339725040E+02  0.24690768448E+03  0.26966837345E+03  0.00000000000E+00 0.  1.
</event>
<event>
12    1  0.8494789E-002  0.1756252E+03  0.7818608E-02  0.1172595E+00
         21   -1    0    0  503  502  0.00000000000E+00  0.00000000000E+00  0.75095123633E+02  0.75095123633E+02  0.00000000000E+00 0. -1.
         21   -1    0    0  501  503 -0.00000000000E+00 -0.00000000000E+00 -0.15302386944E+04  0.15302386944E+04  0.00000000000E+00 0. -1.
          6    2    1    2  501    0  0.33394254789E+02  0.32253338188E+00 -0.14144275766E+04  0.14250507405E+04  0.17043756431E+03 0.  0.
         24    2    3    3    0    0 -0.45703128440E+02  0.18389504434E+01 -0.80329400794E+03  0.80879996016E+03  0.82364765943E+02 0.  0.
         -6    2    1    2    0  502 -0.33394254789E+02 -0.32253338188E+00 -0.40715994168E+02  0.18028307751E+03  0.17242075158E+03 0.  0.
        -24    2    5    5    0    0 -0.22139993450E+02  0.28457083963E+02 -0.87289984697E+02  0.12419251354E+03  0.80648955692E+02 0.  0.
          5    1    3    3  501    0  0.79097383228E+02 -0.15164170615E+01 -0.61113356869E+03  0.61625078039E+03  0.47000000000E+01 0. -1.
        -13    1    4    4    0    0 -0.16958394548E+02 -0.24325356785E+02 -0.96860182389E+02  0.10129760639E+03  0.00000000000E+00 0.  1.
         14    1    4    4    0    0 -0.28744733892E+02  0.26164307229E+02 -0.70643382555E+03  0.70750235376E+03  0.00000000000E+00 0. -1.
         -5    1    5    5    0  502 -0.11254261339E+02 -0.28779617345E+02  0.46573990529E+02  0.56090563971E+02  0.47000000000E+01 0.  1.
         13    1    6    6    0    0  0.22411391708E+02  0.91507330241E+01  0.11353243442E+00  0.24207835152E+02  0.00000000000E+00 0. -1.
        -14    1    6    6    0    0 -0.44551385157E+02  0.19306350939E+02 -0.87403517131E+02  0.99984678391E+02  0.00000000000E+00 0.  1.
</event>
<event>
12    1  0.8494789E-002  0.1970729E+03  0.7818608E-02  0.1152256E+00
         21   -1    0    0  503  502  0.00000000000E+00  0.00000000000E+00  0.36104194055E+03  0.36104194055E+03  0.00000000000E+00 0.  1.
         21   -1    0    0  501  503 -0.00000000000E+00 -0.00000000000E+00 -0.12563932172E+03  0.12563932172E+03  0.00000000000E+00 0.  1.
          6    2    1    2  501    0  0.94836128091E+02  0.19389269073E+02  0.25295646465E+02  0.19868970324E+03  0.17166214929E+03 0.  0.
         24    2    3    3    0    0 -0.10582766900E+02  0.20969878010E+02  0.37671514910E+02  0.92431085401E+02  0.81071769277E+02 0.  0.
         -6    2    1    2    0  502 -0.94836128091E+02 -0.19389269073E+02  0.21010697237E+03  0.28799155903E+03  0.17153531208E+03 0.  0.
        -24    2    5    5    0    0 -0.93623346097E+02  0.43173848798E+02  0.16699977254E+03  0.21186051914E+03  0.79791248817E+02 0.  0.
          5    1    3    3  501    0  0.10541889499E+03 -0.15806089363E+01 -0.12375868445E+02  0.10625861784E+03  0.47000000000E+01 0. -1.
        -13    1    4    4    0    0  0.31538744285E+02  0.57995111016E+01 -0.26542772794E+01  0.32177195465E+02  0.00000000000E+00 0.  1.
         14    1    4    4    0    0 -0.42121511185E+02  0.15170366908E+02  0.40325792189E+02  0.60253889936E+02  0.00000000000E+00 0. -1.
         -5    1    5    5    0  502 -0.12127819940E+01 -0.62563117871E+02  0.43107199829E+02  0.76131039892E+02  0.47000000000E+01 0.  1.
         11    1    6    6    0    0  0.10301226101E+02 -0.75382714800E+01  0.73460493387E+01  0.14727703045E+02  0.00000000000E+00 0. -1.
        -12    1    6    6    0    0 -0.10392457220E+03  0.50712120278E+02  0.15965372320E+03  0.19713281610E+03  0.00000000000E+00 0.  1.
</event>
<event>
12    1  0.8494789E-002  0.2054600E+03  0.7818608E-02  0.1145555E+00
         21   -1    0    0  503  502  0.00000000000E+00  0.00000000000E+00  0.16509311099E+03  0.16509311099E+03  0.00000000000E+00 0.  1.
         21   -1    0    0  501  503 -0.00000000000E+00 -0.00000000000E+00 -0.25575654305E+03  0.25575654305E+03  0.00000000000E+00 0.  1.
          6    2    1    2  501    0 -0.49152384431E+02  0.97293596025E+02 -0.26275957953E+02  0.20713337793E+03  0.17416029847E+03 0.  0.
         24    2    3    3    0    0  0.19911150995E+02  0.10745929729E+03 -0.11391118922E+02  0.13560183355E+03  0.79461595534E+02 0.  0.
         -6    2    1    2    0  502  0.49152384431E+02 -0.97293596025E+02 -0.64387474102E+02  0.21371627611E+03  0.17218274922E+03 0.  0.
        -24    2    5    5    0    0  0.91006367418E+02 -0.84394831827E+02 -0.78850144692E+02  0.16735473116E+03  0.79910037998E+02 0.  0.
          5    1    3    3  501    0 -0.69063535426E+02 -0.10165701265E+02 -0.14884839031E+02  0.71531544375E+02  0.47000000000E+01 0. -1.
        -11    1    4    4    0    0  0.16987341320E+02  0.90933037706E+02  0.24745014035E+02  0.95758565315E+02  0.00000000000E+00 0.  1.
         12    1    4    4    0    0  0.29238096751E+01  0.16526259584E+02 -0.36136132957E+02  0.39843268239E+02  0.00000000000E+00 0. -1.
         -5    1    5    5    0  502 -0.41853982987E+02 -0.12898764198E+02  0.14462670590E+02  0.46361544952E+02  0.47000000000E+01 0.  1.
         13    1    6    6    0    0  0.27431206778E+02 -0.35086665489E+01  0.11959111583E+02  0.30129755992E+02  0.00000000000E+00 0. -1.
        -14    1    6    6    0    0  0.63575160640E+02 -0.80886165278E+02 -0.90809256275E+02  0.13722497517E+03  0.00000000000E+00 0.  1.
</event>
<event>
12    1  0.8494789E-002  0.2449331E+03  0.7818608E-02  0.1116660E+00
         21   -1    0    0  503  502  0.00000000000E+00  0.00000000000E+00  0.34779861863E+03  0.34779861863E+03  0.00000000000E+00 0.  1.
         21   -1    0    0  501  503 -0.00000000000E+00 -0.00000000000E+00 -0.20053398007E+03  0.20053398007E+03  0.00000000000E+00 0.  1.
          6    2    1    2  501    0  0.16034407902E+03 -0.68391790917E+02  0.17693977792E+03  0.30160841719E+03  0.17109147135E+03 0.  0.
         24    2    3    3    0    0  0.33905487312E+02  0.11286611814E+02  0.94924971685E+02  0.13106844013E+03  0.83013348760E+02 0.  0.
         -6    2    1    2    0  502 -0.16034407902E+03  0.68391790917E+02 -0.29675139360E+02  0.24672418151E+03  0.17205971958E+03 0.  0.
        -24    2    5    5    0    0 -0.10230728390E+03 -0.30632883649E+02 -0.18710789695E+01  0.12853233943E+03  0.71497604446E+02 0.  0.
          5    1    3    3  501    0  0.12643859170E+03 -0.79678402731E+02  0.82014806237E+02  0.17053997706E+03  0.47000000000E+01 0. -1.
        -13    1    4    4    0    0  0.30681011913E+02  0.40512170692E+02  0.86768606433E+02  0.10055521632E+03  0.00000000000E+00 0.  1.
         14    1    4    4    0    0  0.32244753998E+01 -0.29225558878E+02  0.81563652518E+01  0.30513223813E+02  0.00000000000E+00 0. -1.
         -5    1    5    5    0  502 -0.58036795112E+02  0.99024674567E+02 -0.27804060390E+02  0.11819184208E+03  0.47000000000E+01 0.  1.
         11    1    6    6    0    0 -0.93868879566E+02 -0.12393420697E+02  0.22123079161E+02  0.97233708451E+02  0.00000000000E+00 0. -1.
        -12    1    6    6    0    0 -0.84384043381E+01 -0.18239462952E+02 -0.23994158131E+02  0.31298630976E+02  0.00000000000E+00 0.  1.
</event>
<event>
12    1  0.8494789E-002  0.2356560E+03  0.7818608E-02  0.1122967E+00
         21   -1    0    0  501  502  0.00000000000E+00  0.00000000000E+00  0.78767810999E+02  0.78767810999E+02  0.00000000000E+00 0. -1.
         21   -1    0    0  502  503 -0.00000000000E+00 -0.00000000000E+00 -0.11812096861E+04  0.11812096861E+04  0.00000000000E+00 0.  1.
         -6    2    1    2    0  503 -0.15741400366E+03  0.28261379955E+02 -0.95401787837E+03  0.98269215055E+03  0.17307765994E+03 0.  0.
        -24    2    3    3    0    0 -0.11509772502E+03 -0.28931081445E+02 -0.43636210014E+03  0.46014909988E+03  0.85092995600E+02 0.  0.
          6    2    1    2  501    0  0.15741400366E+03 -0.28261379955E+02 -0.14842399678E+03  0.27728534659E+03  0.17111284718E+03 0.  0.
         24    2    5    5    0    0  0.26371860768E+02 -0.56046575101E+02 -0.74701342753E+02  0.12431090428E+03  0.77693092956E+02 0.  0.
          5    1    5    5  501    0  0.13104214289E+03  0.27785195146E+02 -0.73722654031E+02  0.15297444231E+03  0.47000000000E+01 0. -1.
        -13    1    6    6    0    0 -0.23929400394E+02 -0.14409557158E+00 -0.14494423860E+02  0.27977228058E+02  0.00000000000E+00 0.  1.
         14    1    6    6    0    0  0.50301261163E+02 -0.55902479530E+02 -0.60206918893E+02  0.96333676223E+02  0.00000000000E+00 0. -1.
         -5    1    3    3    0  503 -0.42316278638E+02  0.57192461400E+02 -0.51765577823E+03  0.52254305068E+03  0.47000000000E+01 0.  1.
         13    1    4    4    0    0 -0.27966445973E+02 -0.48778453194E+02 -0.18624064673E+03  0.19454315226E+03  0.00000000000E+00 0. -1.
        -14    1    4    4    0    0 -0.87131279051E+02  0.19847371750E+02 -0.25012145341E+03  0.26560594762E+03  0.00000000000E+00 0.  1.
</event>
<event>
12    1  0.8494789E-002  0.2903343E+03  0.7818608E-02  0.1090266E+00
         21   -1    0    0  501  502  0.00000000000E+00  0.00000000000E+00  0.19852658220E+03  0.19852658220E+03  0.00000000000E+00 0.  1.
         21   -1    0    0  502  503 -0.00000000000E+00 -0.00000000000E+00 -0.59521139953E+03  0.59521139953E+03  0.00000000000E+00 0.  1.
         -6    2    1    2    0  503  0.23296944643E+03  0.15186923830E+02 -0.41128624596E+03  0.50303672579E+03  0.17141810217E+03 0.  0.
        -24    2    3    3    0    0  0.23699027038E+03  0.16745834126E+02 -0.42179212265E+03  0.49074605163E+03  0.80487770811E+02 0.  0.
          6    2    1    2  501    0 -0.23296944643E+03 -0.15186923830E+02  0.14601428632E+02  0.29070125595E+03  0.17259377992E+03 0.  0.
         24    2    5    5    0    0 -0.23962672896E+03  0.19558253994E+02  0.26395185734E+02  0.25311496191E+03  0.74612221400E+02 0.  0.
          5    1    5    5  501    0  0.66572825301E+01 -0.34745177824E+02 -0.11793757102E+02  0.37586294035E+02  0.47000000000E+01 0. -1.
        -11    1    6    6    0    0 -0.11608970419E+03 -0.27721243755E+02  0.16188665557E+02  0.12044650126E+03  0.00000000000E+00 0.  1.
         12    1    6    6    0    0 -0.12353702477E+03  0.47279497750E+02  0.10206520177E+02  0.13266846065E+03  0.00000000000E+00 0. -1.
         -5    1    3    3    0  503 -0.40208239464E+01 -0.15589102961E+01  0.10505876683E+02  0.12290674164E+02  0.47000000000E+01 0.  1.
         11    1    4    4    0    0  0.21136887518E+02  0.19896551352E+02 -0.22108029830E+02  0.36488433135E+02  0.00000000000E+00 0. -1.
        -12    1    4    4    0    0  0.21585338286E+03 -0.31507172260E+01 -0.39968409282E+03  0.45425761849E+03  0.00000000000E+00 0.  1.
</event>
<event>
12    1  0.8494789E-002  0.2589922E+03  0.7818608E-02  0.1107857E+00
         21   -1    0    0  503  502  0.00000000000E+00  0.00000000000E+00  0.33978030887E+03  0.33978030887E+03  0.00000000000E+00 0.  1.
         21   -1    0    0  501  503 -0.00000000000E+00 -0.00000000000E+00 -0.54956882226E+03  0.54956882226E+03  0.00000000000E+00 0.  1.
          6    2    1    2  501    0 -0.14739299011E+03 -0.12652752933E+03 -0.46107347098E+03  0.52848752221E+03  0.17022457602E+03 0.  0.
         24    2    3    3    0    0 -0.16475038626E+03 -0.14034107919E+03 -0.44207300081E+03  0.49890372213E+03  0.81474398575E+02 0.  0.
         -6    2    1    2    0  502  0.14739299011E+03  0.12652752933E+03  0.25128495759E+03  0.36086160891E+03  0.17129816598E+03 0.  0.
        -24    2    5    5    0    0  0.70163300421E+02  0.19275120484E+01  0.11562551890E+03  0.16107381504E+03  0.87458042755E+02 0.  0.
          5    1    3    3  501    0  0.17357396147E+02  0.13813549867E+02 -0.19000470170E+02  0.29583800088E+02  0.47000000000E+01 0. -1.
        -11    1    4    4    0    0 -0.89403631025E+02 -0.28710577449E+02 -0.14530492995E+03  0.17300528653E+03  0.00000000000E+00 0.  1.
         12    1    4    4    0    0 -0.75346755230E+02 -0.11163050175E+03 -0.29676807086E+03  0.32589843560E+03  0.00000000000E+00 0. -1.
         -5    1    5    5    0  502  0.77229689688E+02  0.12460001728E+03  0.13565943869E+03  0.19978779387E+03  0.47000000000E+01 0.  1.
         13    1    6    6    0    0  0.34536454374E+02 -0.46159343440E+01 -0.49331168194E+01  0.35191038236E+02  0.00000000000E+00 0. -1.
        -14    1    6    6    0    0  0.35626846047E+02  0.65434463924E+01  0.12055863572E+03  0.12588277680E+03  0.00000000000E+00 0.  1.
</event>
<event>
12    1  0.8494789E-002  0.1730563E+03  0.7818608E-02  0.1174880E+00
         21   -1    0    0  503  502  0.00000000000E+00  0.00000000000E+00  0.97422162515E+03  0.97422162515E+03  0.00000000000E+00 0.  1.
         21   -1    0    0  501  503 -0.00000000000E+00 -0.00000000000E+00 -0.70561966722E+02  0.70561966722E+02  0.00000000000E+00 0.  1.
          6    2    1    2  501    0  0.97257341100E+01  0.89651817062E+01  0.58365389566E+02  0.18195632991E+03  0.17183312518E+03 0.  0.
         24    2    3    3    0    0 -0.27120119927E+02  0.47861212917E+02 -0.75050190541E+01  0.96917991879E+02  0.79439129100E+02 0.  0.
         -6    2    1    2    0  502 -0.97257341100E+01 -0.89651817062E+01  0.84529426886E+03  0.86282726196E+03  0.17255004672E+03 0.  0.
        -24    2    5    5    0    0 -0.62718300274E+02  0.63650122615E+01  0.35421602370E+03  0.36863786528E+03  0.80316783454E+02 0.  0.
          5    1    3    3  501    0  0.36845854037E+02 -0.38896031211E+02  0.65870408620E+02  0.85038338033E+02  0.47000000000E+01 0. -1.
        -13    1    4    4    0    0 -0.43244937352E+02 -0.28248770705E+01 -0.55703764817E+01  0.43693633761E+02  0.00000000000E+00 0.  1.
         14    1    4    4    0    0  0.16124817425E+02  0.50686089987E+02 -0.19346425724E+01  0.53224358118E+02  0.00000000000E+00 0. -1.
         -5    1    5    5    0  502  0.52992566164E+02 -0.15330193968E+02  0.49107824516E+03  0.49418939667E+03  0.47000000000E+01 0.  1.
         13    1    6    6    0    0 -0.50055882650E+02 -0.68032264810E+01  0.34403493386E+03  0.34772390052E+03  0.00000000000E+00 0. -1.
        -14    1    6    6    0    0 -0.12662417624E+02  0.13168238743E+02  0.10181089839E+02  0.20913964760E+02  0.00000000000E+00 0.  1.
</event>
<event>
12    1  0.8494789E-002  0.1776250E+03  0.7818608E-02  0.1170583E+00
         21   -1    0    0  503  502  0.00000000000E+00  0.00000000000E+00  0.21532883180E+02  0.21532883180E+02  0.00000000000E+00 0. -1.
         21   -1    0    0  501  503 -0.00000000000E+00 -0.00000000000E+00 -0.16616074087E+04  0.16616074087E+04  0.00000000000E+00 0. -1.
          6    2    1    2  501    0 -0.86946564585E+01 -0.42840953210E+02 -0.52341470373E+03  0.55273283807E+03  0.17216182468E+03 0.  0.
         24    2    3    3    0    0  0.20866970244E+02 -0.66496074875E+02 -0.49169315674E+03  0.50311629750E+03  0.80664056487E+02 0.  0.
         -6    2    1    2    0  502  0.86946564585E+01  0.42840953210E+02 -0.11166598218E+04  0.11304074539E+04  0.17023780341E+03 0.  0.
        -24    2    5    5    0    0  0.50026809244E+02  0.13589213979E+02 -0.98191556108E+03  0.98638621616E+03  0.78180879724E+02 0.  0.
          5    1    3    3  501    0 -0.29561626702E+02  0.23655121665E+02 -0.31721546991E+02  0.49616540566E+02  0.47000000000E+01 0. -1.
        -13    1    4    4    0    0 -0.55008251807E+01  0.13429352376E+02 -0.16922287083E+03  0.16984400665E+03  0.00000000000E+00 0.  1.
         14    1    4    4    0    0  0.26367795424E+02 -0.79925427250E+02 -0.32247028591E+03  0.33327229085E+03  0.00000000000E+00 0. -1.
         -5    1    5    5    0  502 -0.41332152785E+02  0.29251739231E+02 -0.13474426076E+03  0.14402123770E+03  0.47000000000E+01 0.  1.
         11    1    6    6    0    0  0.16389305067E+02  0.31832347058E+02 -0.17825526162E+03  0.18181541721E+03  0.00000000000E+00 0. -1.
        -12    1    6    6    0    0  0.33637504176E+02 -0.18243133079E+02 -0.80366029946E+03  0.80457079895E+03  0.00000000000E+00 0.  1.
</event>
<event>
12    1  0.8494789E-002  0.2004592E+03  0.7818608E-02  0.1149706E+00
         21   -1    0    0  501  502  0.00000000000E+00  0.00000000000E+00  0.10049465035E+03  0.10049465035E+03  0.00000000000E+00 0.  1.
         21   -1    0    0  502  503 -0.00000000000E+00 -0.00000000000E+00 -0.40009317802E+03  0.40009317802E+03  0.00000000000E+00 0.  1.
         -6    2    1    2    0  503  0.96649827686E+02 -0.14805680068E+01 -0.12555550779E+03  0.23511679187E+03  0.17370186817E+03 0.  0.
        -24    2    3    3    0    0 -0.11809767029E+02 -0.97545414322E+01 -0.85494598341E+02  0.11910425466E+03  0.81497702163E+02 0.  0.
          6    2    1    2  501    0 -0.96649827686E+02  0.14805680068E+01 -0.17404301988E+03  0.26547103650E+03  0.17561468383E+03 0.  0.
         24    2    5    5    0    0 -0.12237467352E+03  0.21545601577E+02 -0.17902392705E+03  0.23213527940E+03  0.79984047275E+02 0.  0.
          5    1    5    5  501    0  0.25724845829E+02 -0.20065033570E+02  0.49809071717E+01  0.33335757099E+02  0.47000000000E+01 0. -1.
        -11    1    6    6    0    0 -0.48647995871E+02  0.48696951801E+02 -0.91861469284E+02  0.11478915522E+03  0.00000000000E+00 0.  1.
         12    1    6    6    0    0 -0.73726677645E+02 -0.27151350224E+02 -0.87162457768E+02  0.11734612418E+03  0.00000000000E+00 0. -1.
         -5    1    3    3    0  503  0.10845959471E+03  0.82739734254E+01 -0.40060909449E+02  0.11601253720E+03  0.47000000000E+01 0.  1.
         13    1    4    4    0    0  0.15962285219E+02  0.23732751889E+02 -0.64998396498E+02  0.71012883401E+02  0.00000000000E+00 0. -1.
        -14    1    4    4    0    0 -0.27772052248E+02 -0.33487293321E+02 -0.20496201843E+02  0.48091371263E+02  0.00000000000E+00 0.  1.
</event>
<event>
12    1  0.8494789E-002  0.2917981E+03  0.7818608E-02  0.1089556E+00
         21   -1    0    0  501  502  0.00000000000E+00  0.00000000000E+00  0.13728233874E+03  0.13728233874E+03  0.00000000000E+00 0. -1.
         21   -1    0    0  502  503 -0.00000000000E+00 -0.00000000000E+00 -0.70971686049E+03  0.70971686049E+03  0.00000000000E+00 0. -1.
         -6    2    1    2    0  503 -0.23444149130E+03 -0.28017087540E+02 -0.43806669231E+03  0.52575035614E+03  0.16959728779E+03 0.  0.
        -24    2    3    3    0    0 -0.24618119893E+03 -0.31304729024E+02 -0.34764543481E+03  0.43438995371E+03  0.79070315398E+02 0.  0.
          6    2    1    2  501    0  0.23444149130E+03  0.28017087540E+02 -0.13436782944E+03  0.32124884309E+03  0.17145942832E+03 0.  0.
         24    2    5    5    0    0  0.96863652947E+02 -0.44550666902E+02 -0.84727894949E+02  0.15790884894E+03  0.79931590805E+02 0.  0.
          5    1    5    5  501    0  0.13757783835E+03  0.72567754442E+02 -0.49639934491E+02  0.16333999414E+03  0.47000000000E+01 0. -1.
        -11    1    6    6    0    0  0.14721453847E+02 -0.37093617988E+02 -0.59523425163E+02  0.71663769381E+02  0.00000000000E+00 0.  1.
         12    1    6    6    0    0  0.82142199100E+02 -0.74570489141E+01 -0.25204469786E+02  0.86245079562E+02  0.00000000000E+00 0. -1.
         -5    1    3    3    0  503  0.11739707635E+02  0.32876414841E+01 -0.90421257509E+02  0.91360402425E+02  0.47000000000E+01 0.  1.
         11    1    4    4    0    0 -0.72553888200E+02  0.16764323141E+02 -0.14663713564E+03  0.16446142031E+03  0.00000000000E+00 0. -1.
        -12    1    4    4    0    0 -0.17362731073E+03 -0.48069052165E+02 -0.20100829917E+03  0.26992853340E+03  0.00000000000E+00 0.  1.
</event>
<event>
12    1  0.8494789E-002  0.2244781E+03  0.7818608E-02  0.1130604E+00
         21   -1    0    0  501  502  0.00000000000E+00  0.00000000000E+00  0.17089509762E+03  0.17089509762E+03  0.00000000000E+00 0.  1.
         21   -1    0    0  502  503 -0.00000000000E+00 -0.00000000000E+00 -0.43909914238E+03  0.43909914238E+03  0.00000000000E+00 0.  1.
         -6    2    1    2    0  503 -0.35125093690E+02 -0.14071929496E+03 -0.30895948735E+03  0.38184642678E+03  0.17121634454E+03 0.  0.
        -24    2    3    3    0    0  0.39010527862E+02 -0.55777770957E+02 -0.10532284804E+03  0.14903507878E+03  0.80533045221E+02 0.  0.
          6    2    1    2  501    0  0.35125093690E+02  0.14071929496E+03  0.40755442590E+02  0.22814781322E+03  0.17133221062E+03 0.  0.
         24    2    5    5    0    0  0.30034690529E+02  0.55802244046E+02  0.83904094734E+02  0.13264538434E+03  0.80863637057E+02 0.  0.
          5    1    5    5  501    0  0.50904031615E+01  0.84917050915E+02 -0.43148652144E+02  0.95502428881E+02  0.47000000000E+01 0. -1.
        -11    1    6    6    0    0 -0.10880224106E+02  0.39277168558E+02  0.34715354583E+01  0.40903872738E+02  0.00000000000E+00 0.  1.
         12    1    6    6    0    0  0.40914914635E+02  0.16525075488E+02  0.80432559276E+02  0.91741511603E+02  0.00000000000E+00 0. -1.
         -5    1    3    3    0  503 -0.74135621552E+02 -0.84941524004E+02 -0.20363663931E+03  0.23281134799E+03  0.47000000000E+01 0.  1.
         13    1    4    4    0    0  0.28010713221E+02 -0.28157082834E+02 -0.12516545886E+00  0.39716961556E+02  0.00000000000E+00 0. -1.
        -14    1    4    4    0    0  0.10999814641E+02 -0.27620688124E+02 -0.10519768258E+03  0.10931811723E+03  0.00000000000E+00 0.  1.
</event>
<event>
12    1  0.8494789E-002  0.2513041E+03  0.7818608E-02  0.1113168E+00
         21   -1    0    0  501  502  0.00000000000E+00  0.00000000000E+00  0.37521082280E+03  0.37521082280E+03  0.00000000000E+00 0.  1.
         21   -1    0    0  502  503 -0.00000000000E+00 -0.00000000000E+00 -0.18654618315E+03  0.18654618315E+03  0.00000000000E+00 0.  1.
         -6    2    1    2    0  503 -0.91082571229E+02  0.15868646365E+03 -0.88007058981E+00  0.24698571654E+03  0.16590280625E+03 0.  0.
        -24    2    3    3    0    0 -0.20079604666E+01  0.33944289233E+02  0.17491083646E+02  0.92536742220E+02  0.84266624334E+02 0.  0.
          6    2    1    2  501    0  0.91082571229E+02 -0.15868646365E+03  0.18954471024E+03  0.31477128942E+03  0.17226821800E+03 0.  0.
         24    2    5    5    0    0  0.11676898360E+03 -0.12456634112E+03  0.96302050543E+02  0.21210553013E+03  0.81011740522E+02 0.  0.
          5    1    5    5  501    0 -0.25686412373E+02 -0.34120122531E+02  0.93242659696E+02  0.10266575928E+03  0.47000000000E+01 0. -1.
        -11    1    6    6    0    0  0.24452116786E+02 -0.77566846933E+02  0.64316493369E+02  0.10368767081E+03  0.00000000000E+00 0.  1.
         12    1    6    6    0    0  0.92316866816E+02 -0.46999494187E+02  0.31985557174E+02  0.10841785932E+03  0.00000000000E+00 0. -1.
         -5    1    3    3    0  503 -0.89074610762E+02  0.12474217442E+03 -0.18371154236E+02  0.15444897432E+03  0.47000000000E+01 0.  1.
         11    1    4    4    0    0  0.26151369882E+02  0.50497309181E+02  0.34176977369E+01  0.56969755476E+02  0.00000000000E+00 0. -1.
        -12    1    4    4    0    0 -0.28159330349E+02 -0.16553019947E+02  0.14073385909E+02  0.35566986743E+02  0.00000000000E+00 0.  1.
</event>
<event>
12    1  0.8494789E-002  0.2241368E+03  0.7818608E-02  0.1131079E+00
         21   -1    0    0  503  502  0.00000000000E+00  0.00000000000E+00  0.10113250748E+03  0.10113250748E+03  0.00000000000E+00 0.  1.
         21   -1    0    0  501  503 -0.00000000000E+00 -0.00000000000E+00 -0.58733536507E+03  0.58733536507E+03  0.00000000000E+00 0.  1.
          6    2    1    2  501    0  0.61149459500E+02  0.12900489075E+03 -0.10512387812E+03  0.24636099003E+03  0.17105902321E+03 0.  0.
         24    2    3    3    0    0  0.31428059798E+02  0.12355818516E+03 -0.18787977761E+02  0.15476947354E+03  0.85710289740E+02 0.  0.
         -6    2    1    2    0  502 -0.61149459500E+02 -0.12900489075E+03 -0.38107897946E+03  0.44210688252E+03  0.17278827722E+03 0.  0.
        -24    2    5    5    0    0 -0.10104918849E+03 -0.57265802217E+02 -0.22203577863E+03  0.26306690115E+03  0.80087432781E+02 0.  0.
          5    1    3    3  501    0  0.29721399702E+02  0.54467055901E+01 -0.86335900362E+02  0.91591516493E+02  0.47000000000E+01 0. -1.
        -13    1    4    4    0    0  0.44265747282E+02  0.20641429972E+02 -0.14572777209E+02  0.50969509016E+02  0.00000000000E+00 0.  1.
         14    1    4    4    0    0 -0.12837687484E+02  0.10291675519E+03 -0.42152005521E+01  0.10379996452E+03  0.00000000000E+00 0. -1.
         -5    1    5    5    0  502  0.39899728990E+02 -0.71739088536E+02 -0.15904320083E+03  0.17903998137E+03  0.47000000000E+01 0.  1.
         13    1    6    6    0    0 -0.45431843339E+02 -0.27828813633E+01 -0.15086726027E+03  0.15758403168E+03  0.00000000000E+00 0. -1.
        -14    1    6    6    0    0 -0.55617345152E+02 -0.54482920853E+02 -0.71168518362E+02  0.10548286947E+03  0.00000000000E+00 0.  1.
</event>
<event>
12    1  0.8494789E-002  0.1734076E+03  0.7818608E-02  0.1177142E+00
         21   -1    0    0  503  502  0.00000000000E+00  0.00000000000E+00  0.63297327572E+03  0.63297327572E+03  0.00000000000E+00 0. -1.
         21   -1    0    0  501  503 -0.00000000000E+00 -0.00000000000E+00 -0.17558836314E+03  0.17558836314E+03  0.00000000000E+00 0. -1.
          6    2    1    2  501    0  0.24330231347E+02  0.19684381397E+02 -0.12224748440E+03  0.20354601666E+03  0.15970941872E+03 0.  0.
         24    2    3    3    0    0 -0.15332093800E+02  0.61200444601E+02 -0.95360671132E+02  0.13997185314E+03  0.80733478509E+02 0.  0.
         -6    2    1    2    0  502 -0.24330231347E+02 -0.19684381397E+02  0.57963239698E+03  0.60501562220E+03  0.17056011388E+03 0.  0.
        -24    2    5    5    0    0  0.46697780716E+02 -0.31663223329E+02  0.36777117753E+03  0.38119485136E+03  0.82889283060E+02 0.  0.
          5    1    3    3  501    0  0.39662325147E+02 -0.41516063205E+02 -0.26886813272E+02  0.63574163526E+02  0.47000000000E+01 0. -1.
        -13    1    4    4    0    0 -0.41297618896E+02  0.19599445417E+02 -0.72869515083E+02  0.86020914989E+02  0.00000000000E+00 0.  1.
         14    1    4    4    0    0  0.25965525096E+02  0.41600999184E+02 -0.22491156048E+02  0.53950938148E+02  0.00000000000E+00 0. -1.
         -5    1    5    5    0  502 -0.71028012062E+02  0.11978841933E+02  0.21186121945E+03  0.22382077084E+03  0.47000000000E+01 0.  1.
         11    1    6    6    0    0  0.67265042548E+01 -0.53644358311E+02  0.17874980465E+03  0.18674703666E+03  0.00000000000E+00 0. -1.
        -12    1    6    6    0    0  0.39971276461E+02  0.21981134982E+02  0.18902137288E+03  0.19444781471E+03  0.00000000000E+00 0.  1.
</event>
<event>
12    1  0.8494789E-002  0.1941324E+03  0.7818608E-02  0.1154902E+00
         21   -1    0    0  503  502  0.00000000000E+00  0.00000000000E+00  0.41645897393E+03  0.41645897393E+03  0.00000000000E+00 0.  1.
         21   -1    0    0  501  503 -0.00000000000E+00 -0.00000000000E+00 -0.29698555330E+03  0.29698555330E+03  0.00000000000E+00 0.  1.
          6    2    1    2  501    0  0.89573772689E+02  0.62991530622E+01 -0.23786420534E+03  0.30702892461E+03  0.17211693782E+03 0.  0.
         24    2    3    3    0    0  0.27907263318E+02 -0.59151756256E+02 -0.14529180391E+03  0.17788435672E+03  0.79091026481E+02 0.  0.
         -6    2    1    2    0  502 -0.89573772689E+02 -0.62991530622E+01  0.35733762597E+03  0.40641560262E+03  0.17152353493E+03 0.  0.
        -24    2    5    5    0    0 -0.36083398689E+02  0.58384982761E+02  0.19607082956E+03  0.22455211766E+03  0.85258814599E+02 0.  0.
          5    1    3    3  501    0  0.61666509371E+02  0.65450909318E+02 -0.92572401430E+02  0.12914456789E+03  0.47000000000E+01 0. -1.
        -13    1    4    4    0    0  0.42071470082E+02 -0.46753461407E+02 -0.48891842227E+02  0.79663711844E+02  0.00000000000E+00 0.  1.
         14    1    4    4    0    0 -0.14164206764E+02 -0.12398294848E+02 -0.96399961679E+02  0.98220644877E+02  0.00000000000E+00 0. -1.
         -5    1    5    5    0  502 -0.53490373999E+02 -0.64684135823E+02  0.16126679640E+03  0.18186348496E+03  0.47000000000E+01 0.  1.
         11    1    6    6    0    0 -0.54474177947E+02  0.26189699196E+02  0.66879618916E+02  0.90145548051E+02  0.00000000000E+00 0. -1.
        -12    1    6    6    0    0  0.18390779258E+02  0.32195283565E+02  0.12919121065E+03  0.13440656961E+03  0.00000000000E+00 0.  1.
</event>
<event>
12    1  0.8494789E-002  0.2023157E+03  0.7818608E-02  0.1148228E+00
         21   -1    0    0  501  502  0.00000000000E+00  0.00000000000E+00  0.10196263243E+03  0.10196263243E+03  0.00000000000E+00 0.  1.
         21   -1    0    0  502  503 -0.00000000000E+00 -0.00000000000E+00 -0.44340201934E+03  0.44340201934E+03  0.00000000000E+00 0.  1.
         -6    2    1    2    0  503 -0.50922538600E+02 -0.92586724656E+02 -0.82098392132E+02  0.21644308197E+03  0.17012364686E+03 0.  0.
        -24    2    3    3    0    0 -0.94427206138E+02 -0.88396624728E+02 -0.79486176629E+02  0.17240756557E+03  0.81705910846E+02 0.  0.
          6    2    1    2  501    0  0.50922538600E+02  0.92586724656E+02 -0.25934099479E+03  0.32892156980E+03  0.17252895695E+03 0.  0.
         24    2    5    5    0    0 -0.11316373186E+02  0.10630853696E+03 -0.14214248520E+03  0.19543167909E+03  0.80990677000E+02 0.  0.
          5    1    5    5  501    0  0.62238911786E+02 -0.13721812304E+02 -0.11719850958E+03  0.13348989071E+03  0.47000000000E+01 0. -1.
        -11    1    6    6    0    0 -0.16318825758E+02  0.55927763500E+01 -0.68303299280E+02  0.70448022783E+02  0.00000000000E+00 0.  1.
         12    1    6    6    0    0  0.50024525718E+01  0.10071576061E+03 -0.73839185921E+02  0.12498365631E+03  0.00000000000E+00 0. -1.
         -5    1    3    3    0  503  0.43504667538E+02 -0.41900999277E+01 -0.26122155032E+01  0.44035516402E+02  0.47000000000E+01 0.  1.
         11    1    4    4    0    0 -0.10240374023E+03 -0.50351357049E+02 -0.59938136205E+02  0.12889672355E+03  0.00000000000E+00 0. -1.
        -12    1    4    4    0    0  0.79765340898E+01 -0.38045267680E+02 -0.19548040424E+02  0.43510842020E+02  0.00000000000E+00 0.  1.
</event>
<event>
12    1  0.8494789E-002  0.1745736E+03  0.7818608E-02  0.1173739E+00
         21   -1    0    0  503  502  0.00000000000E+00  0.00000000000E+00  0.84575032795E+03  0.84575032795E+03  0.00000000000E+00 0. -1.
         21   -1    0    0  501  503 -0.00000000000E+00 -0.00000000000E+00 -0.19043011142E+03  0.19043011142E+03  0.00000000000E+00 0. -1.
          6    2    1    2  501    0  0.10542508430E+02  0.16279621847E+02 -0.13914838422E+03  0.22324476420E+03  0.17349288556E+03 0.  0.
         24    2    3    3    0    0  0.19328310663E+02 -0.39759669722E+02 -0.22362988998E+02  0.93327440269E+02  0.79091674029E+02 0.  0.
         -6    2    1    2    0  502 -0.10542508430E+02 -0.16279621847E+02  0.79446860076E+03  0.81293567517E+03  0.17119545498E+03 0.  0.
        -24    2    5    5    0    0  0.33413066165E+02 -0.56491349608E+02  0.36472758535E+03  0.37905953397E+03  0.79700772902E+02 0.  0.
          5    1    3    3  501    0 -0.87858022336E+01  0.56039291569E+02 -0.11678539522E+03  0.12991732393E+03  0.47000000000E+01 0. -1.
        -13    1    4    4    0    0 -0.17982606648E+02 -0.21619447391E+02  0.19632023692E+02  0.34295641146E+02  0.00000000000E+00 0.  1.
         14    1    4    4    0    0  0.37310917312E+02 -0.18140222331E+02 -0.41995012691E+02  0.59031799123E+02  0.00000000000E+00 0. -1.
         -5    1    5    5    0  502 -0.43955574594E+02  0.40211727761E+02  0.42974101540E+03  0.43387614120E+03  0.47000000000E+01 0.  1.
         11    1    6    6    0    0  0.52054579506E+02 -0.57754479642E+02  0.33533691491E+03  0.34423263307E+03  0.00000000000E+00 0. -1.
        -12    1    6    6    0    0 -0.18641513341E+02  0.12631300344E+01  0.29390670444E+02  0.34826900900E+02  0.00000000000E+00 0.  1.
</event>
<event>
12    1  0.8494789E-002  0.2207814E+03  0.7818608E-02  0.1133484E+00
         21   -1    0    0  501  502  0.00000000000E+00  0.00000000000E+00  0.34870429719E+02  0.34870429719E+02  0.00000000000E+00 0.  1.
         21   -1    0    0  502  503 -0.00000000000E+00 -0.00000000000E+00 -0.14396032073E+04  0.14396032073E+04  0.00000000000E+00 0. -1.
         -6    2    1    2    0  503 -0.43734521363E+02 -0.13045198348E+03 -0.56635530244E+03  0.60751272039E+03  0.17141455153E+03 0.  0.
        -24    2    3    3    0    0 -0.16986461409E+02 -0.12945319086E+03 -0.27353166663E+03  0.31343071144E+03  0.79828376709E+02 0.  0.
          6    2    1    2  501    0  0.43734521363E+02  0.13045198348E+03 -0.83837747509E+03  0.86696091658E+03  0.17266734430E+03 0.  0.
         24    2    5    5    0    0  0.90840250081E+02  0.65184619451E+02 -0.59193374444E+03  0.60766305531E+03  0.79798780241E+02 0.  0.
          5    1    5    5  501    0 -0.47105728717E+02  0.65267364030E+02 -0.24644373065E+03  0.25929786127E+03  0.47000000000E+01 0. -1.
        -11    1    6    6    0    0 -0.37961104534E+00 -0.14044998590E+02 -0.33850762339E+02  0.36650787180E+02  0.00000000000E+00 0.  1.
         12    1    6    6    0    0  0.91219861126E+02  0.79229618041E+02 -0.55808298210E+03  0.57101226813E+03  0.00000000000E+00 0. -1.
         -5    1    3    3    0  503 -0.26748059954E+02 -0.99879261844E+00 -0.29282363581E+03  0.29408200895E+03  0.47000000000E+01 0.  1.
         11    1    4    4    0    0  0.28501261003E+00 -0.13776531557E+02 -0.11814436608E+03  0.11894521971E+03  0.00000000000E+00 0. -1.
        -12    1    4    4    0    0 -0.17271474019E+02 -0.11567665931E+03 -0.15538730055E+03  0.19448549173E+03  0.00000000000E+00 0.  1.
</event>
<event>
12    1  0.8494789E-002  0.1877718E+03  0.7818608E-02  0.1161777E+00
         21   -1    0    0  501  502  0.00000000000E+00  0.00000000000E+00  0.13392660729E+04  0.13392660729E+04  0.00000000000E+00 0. -1.
         21   -1    0    0  502  503 -0.00000000000E+00 -0.00000000000E+00 -0.32910615483E+02  0.32910615483E+02  0.00000000000E+00 0. -1.
         -6    2    1    2    0  503 -0.72768207726E+02  0.20480013162E+02  0.32124406773E+03  0.36932938614E+03  0.16580651803E+03 0.  0.
        -24    2    3    3    0    0  0.15124356056E+02 -0.26000838401E+01  0.90193980781E+02  0.12100696201E+03  0.79197374355E+02 0.  0.
          6    2    1    2  501    0  0.72768207726E+02 -0.20480013162E+02  0.98511138970E+03  0.10028473023E+04  0.17188257190E+03 0.  0.
         24    2    5    5    0    0  0.57841593522E+02  0.51082221446E+01  0.28101837012E+03  0.29811569957E+03  0.80807809716E+02 0.  0.
          5    1    5    5  501    0  0.14926614204E+02 -0.25588235307E+02  0.70409301958E+03  0.70473160268E+03  0.47000000000E+01 0. -1.
        -11    1    6    6    0    0  0.45074676371E+02  0.39568175197E+02  0.20641451181E+03  0.21495189607E+03  0.00000000000E+00 0.  1.
         12    1    6    6    0    0  0.12766917151E+02 -0.34459953053E+02  0.74603858307E+02  0.83163803498E+02  0.00000000000E+00 0. -1.
         -5    1    3    3    0  503 -0.87892563782E+02  0.23080097002E+02  0.23105008695E+03  0.24832242413E+03  0.47000000000E+01 0.  1.
         11    1    4    4    0    0  0.58073998239E+01  0.36080734236E+02  0.23823911169E+02  0.43624809674E+02  0.00000000000E+00 0. -1.
        -12    1    4    4    0    0  0.93169562317E+01 -0.38680818076E+02  0.66370069612E+02  0.77382152340E+02  0.00000000000E+00 0.  1.
</event>
<event>
12    1  0.8494789E-002  0.2005958E+03  0.7818608E-02  0.1149336E+00
         21   -1    0    0  501  502  0.00000000000E+00  0.00000000000E+00  0.20643555968E+02  0.20643555968E+02  0.00000000000E+00 0.  1.
         21   -1    0    0  502  503 -0.00000000000E+00 -0.00000000000E+00 -0.19822923574E+04  0.19822923574E+04  0.00000000000E+00 0. -1.
         -6    2    1    2    0  503  0.85087337112E+02 -0.57347492304E+02 -0.84399351949E+03  0.86750431301E+03  0.17236612875E+03 0.  0.
        -24    2    3    3    0    0  0.54896127054E+02 -0.14047704005E+02 -0.21599484558E+03  0.23727355745E+03  0.80212498967E+02 0.  0.
          6    2    1    2  501    0 -0.85087337112E+02  0.57347492304E+02 -0.11176552819E+04  0.11354316003E+04  0.17182258299E+03 0.  0.
         24    2    5    5    0    0 -0.87200233887E+02 -0.21434873530E+02 -0.61088033296E+03  0.62254363558E+03  0.79513913299E+02 0.  0.
          5    1    5    5  501    0  0.21128967750E+01  0.78782365834E+02 -0.50677494894E+03  0.51288796473E+03  0.47000000000E+01 0. -1.
        -13    1    6    6    0    0 -0.50542941077E+02  0.25930875051E+02 -0.36963082631E+03  0.37397051612E+03  0.00000000000E+00 0.  1.
         14    1    6    6    0    0 -0.36657292811E+02 -0.47365748581E+02 -0.24124950665E+03  0.24857311945E+03  0.00000000000E+00 0. -1.
         -5    1    3    3    0  503  0.30191210058E+02 -0.43299788300E+02 -0.62799867391E+03  0.63023075556E+03  0.47000000000E+01 0.  1.
         13    1    4    4    0    0  0.70268560027E+02 -0.99703163859E+01 -0.20737538631E+03  0.21918400622E+03  0.00000000000E+00 0. -1.
        -14    1    4    4    0    0 -0.15372432973E+02 -0.40773876189E+01 -0.86194592780E+01  0.18089551225E+02  0.00000000000E+00 0.  1.
</event>
<event>
12    1  0.8494789E-002  0.2455200E+03  0.7818608E-02  0.1116300E+00
         21   -1    0    0  503  502  0.00000000000E+00  0.00000000000E+00  0.12411924031E+03  0.12411924031E+03  0.00000000000E+00 0.  1.
         21   -1    0    0  501  503 -0.00000000000E+00 -0.00000000000E+00 -0.53313923310E+03  0.53313923310E+03  0.00000000000E+00 0. -1.
          6    2    1    2  501    0 -0.36337466848E+02 -0.17145630339E+03 -0.30391016683E+03  0.39018519141E+03  0.17077885883E+03 0.  0.
         24    2    3    3    0    0 -0.45914144623E+02 -0.25798693742E+02 -0.87345456878E+02  0.12897604991E+03  0.78942455864E+02 0.  0.
         -6    2    1    2    0  502  0.36337466848E+02  0.17145630339E+03 -0.10510982596E+03  0.26707328201E+03  0.17193715998E+03 0.  0.
        -24    2    5    5    0    0  0.56037978161E+02  0.24973294034E+02 -0.32589464031E+02  0.10237150585E+03  0.75192630177E+02 0.  0.
          5    1    3    3  501    0  0.95766777748E+01 -0.14565760965E+03 -0.21656470996E+03  0.26120914150E+03  0.47000000000E+01 0. -1.
        -11    1    4    4    0    0 -0.30889256638E+02 -0.47479430960E+02 -0.26251205949E+02  0.62430508197E+02  0.00000000000E+00 0.  1.
         12    1    4    4    0    0 -0.15024887985E+02  0.21680737218E+02 -0.61094250929E+02  0.66545541713E+02  0.00000000000E+00 0. -1.
         -5    1    5    5    0  502 -0.19700511313E+02  0.14648300935E+03 -0.72520361925E+02  0.16470177616E+03  0.47000000000E+01 0.  1.
         11    1    6    6    0    0 -0.16629816340E+02 -0.56435416017E+01 -0.15554506082E+01  0.17630081676E+02  0.00000000000E+00 0. -1.
        -12    1    6    6    0    0  0.72667794501E+02  0.30616835636E+02 -0.31034013423E+02  0.84741424175E+02  0.00000000000E+00 0.  1.
</event>
<event>
12    1  0.8494789E-002  0.2664839E+03  0.7818608E-02  0.1103413E+00
         21   -1    0    0  501  502  0.00000000000E+00  0.00000000000E+00  0.92519171636E+02  0.92519171636E+02  0.00000000000E+00 0.  1.
         21   -1    0    0  502  503 -0.00000000000E+00 -0.00000000000E+00 -0.78224455317E+03  0.78224455317E+03  0.00000000000E+00 0. -1.
         -6    2    1    2    0  503 -0.32231776684E+02  0.19991451668E+03 -0.40929429834E+03  0.48840093199E+03  0.17323090461E+03 0.  0.
        -24    2    3    3    0    0 -0.73308245217E+02  0.15897212550E+03 -0.37250080514E+03  0.41955758224E+03  0.81397048398E+02 0.  0.
          6    2    1    2  501    0  0.32231776684E+02 -0.19991451668E+03 -0.28043108319E+03  0.38636279281E+03  0.17213341873E+03 0.  0.
         24    2    5    5    0    0 -0.47728860619E+02 -0.89601793270E+02 -0.12696549858E+03  0.18109132347E+03  0.79795389060E+02 0.  0.
          5    1    5    5  501    0  0.79960637303E+02 -0.11031272341E+03 -0.15346558461E+03  0.20527146934E+03  0.47000000000E+01 0. -1.
        -13    1    6    6    0    0 -0.56031462559E+02 -0.73322894327E+02 -0.13297173984E+03  0.16185566170E+03  0.00000000000E+00 0.  1.
         14    1    6    6    0    0  0.83026019400E+01 -0.16278898943E+02  0.60062412605E+01  0.19235661773E+02  0.00000000000E+00 0. -1.
         -5    1    3    3    0  503  0.41076468533E+02  0.40942391181E+02 -0.36793493204E+02  0.68843349751E+02  0.47000000000E+01 0.  1.
         11    1    4    4    0    0 -0.51021763409E+02  0.10743563717E+03 -0.15759708599E+03  0.19743980853E+03  0.00000000000E+00 0. -1.
        -12    1    4    4    0    0 -0.22286481807E+02  0.51536488321E+02 -0.21490371914E+03  0.22211777372E+03  0.00000000000E+00 0.  1.
</event>
<event>
12    1  0.8494789E-002  0.2308398E+03  0.7818608E-02  0.1126096E+00
         21   -1    0    0  501  502  0.00000000000E+00  0.00000000000E+00  0.36604969383E+03  0.36604969383E+03  0.00000000000E+00 0. -1.
         21   -1    0    0  502  503 -0.00000000000E+00 -0.00000000000E+00 -0.17684605000E+03  0.17684605000E+03  0.00000000000E+00 0. -1.
         -6    2    1    2    0  503  0.12184937559E+03  0.92551411150E+02  0.20900853619E+03  0.31120796706E+03  0.17248998964E+03 0.  0.
        -24    2    3    3    0    0  0.96416899579E+02  0.13182046942E+03  0.18102850102E+03  0.25649195348E+03  0.79648912964E+02 0.  0.
          6    2    1    2  501    0 -0.12184937559E+03 -0.92551411150E+02 -0.19804892360E+02  0.23168777676E+03  0.17284084616E+03 0.  0.
         24    2    5    5    0    0 -0.94775992862E+02  0.72553143109E+00  0.27834364778E+02  0.12340506858E+03  0.73966505062E+02 0.  0.
          5    1    5    5  501    0 -0.27073382727E+02 -0.93276942581E+02 -0.47639257138E+02  0.10828270818E+03  0.47000000000E+01 0. -1.
        -11    1    6    6    0    0 -0.40333384529E+02  0.35829599710E+02  0.30125307488E+01  0.54033484659E+02  0.00000000000E+00 0.  1.
         12    1    6    6    0    0 -0.54442608333E+02 -0.35104068279E+02  0.24821834029E+02  0.69371583926E+02  0.00000000000E+00 0. -1.
         -5    1    3    3    0  503  0.25432476009E+02 -0.39269058274E+02  0.27980035172E+02  0.54716013579E+02  0.47000000000E+01 0.  1.
         11    1    4    4    0    0  0.71570870129E+02  0.11149856971E+03  0.90525832665E+02  0.16046571870E+03  0.00000000000E+00 0. -1.
        -12    1    4    4    0    0  0.24846029450E+02  0.20321899718E+02  0.90502668357E+02  0.96026234786E+02  0.00000000000E+00 0.  1.
</event>
<event>
12    1  0.8494789E-002  0.2380619E+03  0.7818608E-02  0.1121282E+00
         21   -1    0    0  503  502  0.00000000000E+00  0.00000000000E+00  0.28849637578E+03  0.28849637578E+03  0.00000000000E+00 0.  1.
         21   -1    0    0  501  503 -0.00000000000E+00 -0.00000000000E+00 -0.20611473420E+03  0.20611473420E+03  0.00000000000E+00 0. -1.
          6    2    1    2  501    0 -0.13789429762E+03 -0.87025392784E+02  0.97384944252E+02  0.25721056437E+03  0.17345083094E+03 0.  0.
         24    2    3    3    0    0 -0.37912195608E+02  0.46018435203E+01  0.84749239029E+02  0.12092512053E+03  0.77343000464E+02 0.  0.
         -6    2    1    2    0  502  0.13789429762E+03  0.87025392784E+02 -0.15003302672E+02  0.23740054560E+03  0.17188852102E+03 0.  0.
        -24    2    5    5    0    0  0.14060688100E+03  0.11597428664E+03  0.90028372368E+01  0.19940342312E+03  0.80376264682E+02 0.  0.
          5    1    3    3  501    0 -0.99982102009E+02 -0.91627236304E+02  0.12635705223E+02  0.13628544384E+03  0.47000000000E+01 0. -1.
        -13    1    4    4    0    0 -0.61506762832E+02  0.92139293772E+01  0.59836168204E+02  0.86303797100E+02  0.00000000000E+00 0.  1.
         14    1    4    4    0    0  0.23594567224E+02 -0.46120858569E+01  0.24913070825E+02  0.34621323435E+02  0.00000000000E+00 0. -1.
         -5    1    5    5    0  502 -0.27125833870E+01 -0.28948893857E+02 -0.24006139909E+02  0.37997122489E+02  0.47000000000E+01 0.  1.
         11    1    6    6    0    0  0.10639354274E+03  0.40727415707E+02 -0.10712583950E+02  0.11442494388E+03  0.00000000000E+00 0. -1.
        -12    1    6    6    0    0  0.34213338262E+02  0.75246870933E+02  0.19715421187E+02  0.84978479234E+02  0.00000000000E+00 0.  1.
</event>
<event>
12    1  0.8494789E-002  0.1826671E+03  0.7818608E-02  0.1165616E+00
         21   -1    0    0  503  502  0.00000000000E+00  0.00000000000E+00  0.11286088026E+03  0.11286088026E+03  0.00000000000E+00 0.  1.
         21   -1    0    0  501  503 -0.00000000000E+00 -0.00000000000E+00 -0.30344987205E+03  0.30344987205E+03  0.00000000000E+00 0.  1.
          6    2    1    2  501    0  0.34487562032E+02  0.50746136218E+02 -0.13325753181E+03  0.22485794882E+03  0.17040823069E+03 0.  0.
         24    2    3    3    0    0 -0.37566311036E+02  0.25663028871E+02 -0.22324383256E+02  0.90139069867E+02  0.74544316034E+02 0.  0.
         -6    2    1    2    0  502 -0.34487562032E+02 -0.50746136218E+02 -0.57331459975E+02  0.19145280350E+03  0.17205440241E+03 0.  0.
        -24    2    5    5    0    0 -0.56736564909E+02  0.60111027231E+01 -0.82031039389E+02  0.12550917966E+03  0.75949269925E+02 0.  0.
          5    1    3    3  501    0  0.72053873068E+02  0.25083107347E+02 -0.11093314856E+03  0.13471887896E+03  0.47000000000E+01 0. -1.
        -13    1    4    4    0    0  0.15277749462E+02 -0.56292217288E+01  0.11587442433E+02  0.19984158427E+02  0.00000000000E+00 0.  1.
         14    1    4    4    0    0 -0.52844060498E+02  0.31292250600E+02 -0.33911825689E+02  0.70154911440E+02  0.00000000000E+00 0. -1.
         -5    1    5    5    0  502  0.22249002877E+02 -0.56757238941E+02  0.24699579415E+02  0.65943623835E+02  0.47000000000E+01 0.  1.
         13    1    6    6    0    0 -0.18035357657E+02  0.39400842751E+02 -0.30982941642E+02  0.53269533582E+02  0.00000000000E+00 0. -1.
        -14    1    6    6    0    0 -0.38701207252E+02 -0.33389740028E+02 -0.51048097748E+02  0.72239646079E+02  0.00000000000E+00 0.  1.
</event>
<event>
12    1  0.8494789E-002  0.2075002E+03  0.7818608E-02  0.1143748E+00
         21   -1    0    0  501  502  0.00000000000E+00  0.00000000000E+00  0.78534260629E+02  0.78534260629E+02  0.00000000000E+00 0. -1.
         21   -1    0    0  502  503 -0.00000000000E+00 -0.00000000000E+00 -0.54802359157E+03  0.54802359157E+03  0.00000000000E+00 0.  1.
         -6    2    1    2    0  503 -0.18521309092E+02  0.11313880611E+03 -0.25523398423E+03  0.32893877660E+03  0.17295347267E+03 0.  0.
        -24    2    3    3    0    0 -0.62463878767E+02  0.11958387466E+03 -0.15372360313E+03  0.21803820938E+03  0.75549158572E+02 0.  0.
          6    2    1    2  501    0  0.18521309092E+02 -0.11313880611E+03 -0.21425534671E+03  0.29761907559E+03  0.17183809888E+03 0.  0.
         24    2    5    5    0    0 -0.30512846191E+02 -0.85627155060E+02 -0.20756990086E+03  0.24080336901E+03  0.81473648010E+02 0.  0.
          5    1    5    5  501    0  0.49034155283E+02 -0.27511651049E+02 -0.66854458474E+01  0.56815706578E+02  0.47000000000E+01 0. -1.
        -13    1    6    6    0    0  0.17785872523E+02 -0.74499638808E+01 -0.87524602925E+02  0.89623631596E+02  0.00000000000E+00 0.  1.
         14    1    6    6    0    0 -0.48298718714E+02 -0.78177191179E+02 -0.12004529793E+03  0.15117973742E+03  0.00000000000E+00 0. -1.
         -5    1    3    3    0  503  0.43942569675E+02 -0.64450685557E+01 -0.10151038111E+03  0.11090056722E+03  0.47000000000E+01 0.  1.
         13    1    4    4    0    0  0.75429737690E+01  0.65967201176E+02 -0.68799781391E+02  0.95613691508E+02  0.00000000000E+00 0. -1.
        -14    1    4    4    0    0 -0.70006852536E+02  0.53616673488E+02 -0.84923821736E+02  0.12242451787E+03  0.00000000000E+00 0.  1.
</event>
<event>
12    1  0.8494789E-002  0.2956096E+03  0.7818608E-02  0.1088535E+00
         21   -1    0    0  501  502  0.00000000000E+00  0.00000000000E+00  0.17803144557E+04  0.17803144557E+04  0.00000000000E+00 0.  1.
         21   -1    0    0  502  503 -0.00000000000E+00 -0.00000000000E+00 -0.49104989171E+02  0.49104989171E+02  0.00000000000E+00 0.  1.
         -6    2    1    2    0  503  0.23003865305E+03 -0.67189313493E+01  0.72342430989E+03  0.78149073894E+03  0.18553198368E+03 0.  0.
        -24    2    3    3    0    0  0.23921685792E+03  0.61169550695E+01  0.52579586155E+03  0.58317762031E+03  0.79829359023E+02 0.  0.
          6    2    1    2  501    0 -0.23003865305E+03  0.67189313493E+01  0.10077851566E+04  0.10479287059E+04  0.17193232633E+03 0.  0.
         24    2    5    5    0    0 -0.13194759110E+03 -0.41465698278E+02  0.76362604245E+03  0.78038547950E+03  0.82141298838E+02 0.  0.
          5    1    5    5  501    0 -0.98091061955E+02  0.48184629627E+02  0.24415911415E+03  0.26754322639E+03  0.47000000000E+01 0. -1.
        -13    1    6    6    0    0 -0.10278816828E+03 -0.24588269805E+02  0.35567114439E+03  0.37104171397E+03  0.00000000000E+00 0.  1.
         14    1    6    6    0    0 -0.29159422820E+02 -0.16877428473E+02  0.40795489806E+03  0.40934376553E+03  0.00000000000E+00 0. -1.
         -5    1    3    3    0  503 -0.91782048626E+01 -0.12835886419E+02  0.19762844835E+03  0.19831311863E+03  0.47000000000E+01 0.  1.
         11    1    4    4    0    0  0.82800201985E+02 -0.11073032034E+02  0.10668559808E+03  0.13550019308E+03  0.00000000000E+00 0. -1.
        -12    1    4    4    0    0  0.15641665593E+03  0.17189987103E+02  0.41911026346E+03  0.44767742723E+03  0.00000000000E+00 0.  1.
</event>
<event>
12    1  0.8494789E-002  0.1895971E+03  0.7818608E-02  0.1159331E+00
         21   -1    0    0  503  502  0.00000000000E+00  0.00000000000E+00  0.68265945001E+03  0.68265945001E+03  0.00000000000E+00 0. -1.
         21   -1    0    0  501  503 -0.00000000000E+00 -0.00000000000E+00 -0.67354655861E+02  0.67354655861E+02  0.00000000000E+00 0. -1.
          6    2    1    2  501    0 -0.38825589650E+02  0.70473337554E+02  0.13024923957E+03  0.23002595728E+03  0.17167748511E+03 0.  0.
         24    2    3    3    0    0  0.38965376402E+02  0.42506552509E+02  0.10358579498E+03  0.14303972421E+03  0.80032732158E+02 0.  0.
         -6    2    1    2    0  502  0.38825589650E+02 -0.70473337554E+02  0.48505555457E+03  0.51998814859E+03  0.16921839716E+03 0.  0.
        -24    2    5    5    0    0  0.40875967302E+02  0.17651817271E+02  0.32098335261E+03  0.33367651605E+03  0.79544159803E+02 0.  0.
          5    1    3    3  501    0 -0.77790966052E+02  0.27966785045E+02  0.26663444595E+02  0.86986233064E+02  0.47000000000E+01 0. -1.
        -13    1    4    4    0    0 -0.22907335189E+01 -0.15647350273E+02 -0.16752976213E+01  0.15902630372E+02  0.00000000000E+00 0.  1.
         14    1    4    4    0    0  0.41256109921E+02  0.58153902782E+02  0.10526109260E+03  0.12713709384E+03  0.00000000000E+00 0. -1.
         -5    1    5    5    0  502 -0.20503776527E+01 -0.88125154825E+02  0.16407220196E+03  0.18631163254E+03  0.47000000000E+01 0.  1.
         13    1    6    6    0    0  0.23569382549E+02 -0.10886172868E+02  0.25762374630E+02  0.36574916268E+02  0.00000000000E+00 0. -1.
        -14    1    6    6    0    0  0.17306584753E+02  0.28537990138E+02  0.29522097798E+03  0.29710159979E+03  0.00000000000E+00 0.  1.
</event>
<event>
12    1  0.8494789E-002  0.2178158E+03  0.7818608E-02  0.1136334E+00
         21   -1    0    0  503  502  0.00000000000E+00  0.00000000000E+00  0.15091016138E+03  0.15091016138E+03  0.00000000000E+00 0.  1.
         21   -1    0    0  501  503 -0.00000000000E+00 -0.00000000000E+00 -0.38345669538E+03  0.38345669538E+03  0.00000000000E+00 0. -1.
          6    2    1    2  501    0 -0.12124264473E+03  0.42750870793E+02 -0.23365557460E+03  0.31654825857E+03  0.17052992878E+03 0.  0.
         24    2    3    3    0    0 -0.16233548410E+02  0.59525071405E+02 -0.63458161448E+02  0.11580580277E+03  0.74681212376E+02 0.  0.
         -6    2    1    2    0  502  0.12124264473E+03 -0.42750870793E+02  0.11090406007E+01  0.21781859819E+03  0.17583030425E+03 0.  0.
        -24    2    5    5    0    0  0.79447382765E+02 -0.94185764379E+02 -0.20943749477E+02  0.14781282878E+03  0.78912273245E+02 0.  0.
          5    1    3    3  501    0 -0.10500909632E+03 -0.16774200612E+02 -0.17019741315E+03  0.20074245580E+03  0.47000000000E+01 0. -1.
        -13    1    4    4    0    0  0.11453109170E+02  0.66890295321E+02 -0.49073458477E+02  0.83747773968E+02  0.00000000000E+00 0.  1.
         14    1    4    4    0    0 -0.27686657580E+02 -0.73652239160E+01 -0.14384702971E+02  0.32058028805E+02  0.00000000000E+00 0. -1.
         -5    1    5    5    0  502  0.41795261962E+02  0.51434893586E+02  0.22052790078E+02  0.70005769412E+02  0.47000000000E+01 0.  1.
         11    1    6    6    0    0  0.78990761116E+02 -0.34113297321E+02 -0.16177870726E+02  0.87549876625E+02  0.00000000000E+00 0. -1.
        -12    1    6    6    0    0  0.45662164970E+00 -0.60072467057E+02 -0.47658787509E+01  0.60262952151E+02  0.00000000000E+00 0.  1.
</event>
<event>
12    1  0.8494789E-002  0.1972024E+03  0.7818608E-02  0.1152597E+00
         21   -1    0    0  501  502  0.00000000000E+00  0.00000000000E+00  0.38098783062E+02  0.38098783062E+02  0.00000000000E+00 0.  1.
         21   -1    0    0  502  503 -0.00000000000E+00 -0.00000000000E+00 -0.13310707836E+04  0.13310707836E+04  0.00000000000E+00 0. -1.
         -6    2    1    2    0  503  0.12692841662E+02 -0.95843477126E+02 -0.98578880021E+03  0.10053200218E+04  0.17187701224E+03 0.  0.
        -24    2    3    3    0    0 -0.18107556720E+02 -0.73867556984E+02 -0.31365653758E+03  0.33210722184E+03  0.78297405094E+02 0.  0.
          6    2    1    2  501    0 -0.12692841662E+02  0.95843477126E+02 -0.30718320035E+03  0.36384954485E+03  0.16934548230E+03 0.  0.
         24    2    5    5    0    0 -0.44595087485E+02  0.60495762371E+02 -0.96283501207E+02  0.14759047030E+03  0.82849111202E+02 0.  0.
          5    1    5    5  501    0  0.31902245823E+02  0.35347714755E+02 -0.21089969914E+03  0.21625907455E+03  0.47000000000E+01 0. -1.
        -11    1    6    6    0    0 -0.44749527052E+02 -0.58392667909E+01 -0.45130157940E+02  0.63822788749E+02  0.00000000000E+00 0.  1.
         12    1    6    6    0    0  0.15443956728E+00  0.66335029162E+02 -0.51153343266E+02  0.83767681553E+02  0.00000000000E+00 0. -1.
         -5    1    3    3    0  503  0.30800398382E+02 -0.21975920142E+02 -0.67213226263E+03  0.67321279999E+03  0.47000000000E+01 0.  1.
         13    1    4    4    0    0  0.13430075147E+01 -0.47987177890E+02 -0.28455309481E+03  0.28857414416E+03  0.00000000000E+00 0. -1.
        -14    1    4    4    0    0 -0.19450564235E+02 -0.25880379094E+02 -0.29103442771E+02  0.43533077679E+02  0.00000000000E+00 0.  1.
</event>
<event>
12    1  0.8494789E-002  0.1929278E+03  0.7818608E-02  0.1155849E+00
         21   -1    0    0  501  502  0.00000000000E+00  0.00000000000E+00  0.46414559844E+03  0.46414559844E+03  0.00000000000E+00 0. -1.
         21   -1    0    0  502  503 -0.00000000000E+00 -0.00000000000E+00 -0.94586472222E+02  0.94586472222E+02  0.00000000000E+00 0. -1.
         -6    2    1    2    0  503 -0.65527917375E+02 -0.58503561325E+02  0.29376963375E+03  0.35145163142E+03  0.17175877524E+03 0.  0.
        -24    2    3    3    0    0 -0.10376762007E+03 -0.56136537322E+02  0.16725733505E+03  0.21918172030E+03  0.78400131314E+02 0.  0.
          6    2    1    2  501    0  0.65527917375E+02  0.58503561325E+02  0.75789492466E+02  0.20728043924E+03  0.17176891069E+03 0.  0.
         24    2    5    5    0    0  0.14470547542E+02  0.52410346159E+02  0.10921388347E+03  0.14577221052E+03  0.79784860011E+02 0.  0.
          5    1    5    5  501    0  0.51057369833E+02  0.60932151664E+01 -0.33424391007E+02  0.61508228714E+02  0.47000000000E+01 0. -1.
        -11    1    6    6    0    0  0.94901526104E+01  0.69159620749E+02  0.55179262154E+02  0.88982397757E+02  0.00000000000E+00 0.  1.
         12    1    6    6    0    0  0.49803949321E+01 -0.16749274590E+02  0.54034621319E+02  0.56789812767E+02  0.00000000000E+00 0. -1.
         -5    1    3    3    0  503  0.38239702695E+02 -0.23670240029E+01  0.12651229870E+03  0.13226991112E+03  0.47000000000E+01 0.  1.
         11    1    4    4    0    0 -0.92554089204E+02 -0.59492415257E+02  0.17385501225E+03  0.20574540624E+03  0.00000000000E+00 0. -1.
        -12    1    4    4    0    0 -0.11213530866E+02  0.33558779354E+01 -0.65976772051E+01  0.13436314067E+02  0.00000000000E+00 0.  1.
</event>
<event>
12    1  0.8494789E-002  0.2320576E+03  0.7818608E-02  0.1125497E+00
         21   -1    0    0  503  502  0.00000000000E+00  0.00000000000E+00  0.13157571335E+03  0.13157571335E+03  0.00000000000E+00 0. -1.
         21   -1    0    0  501  503 -0.00000000000E+00 -0.00000000000E+00 -0.50853480635E+03  0.50853480635E+03  0.00000000000E+00 0. -1.
          6    2    1    2  501    0  0.96949678516E+02  0.11886690485E+03 -0.33144247279E+03  0.40363115728E+03  0.17185871268E+03 0.  0.
         24    2    3    3    0    0  0.59205049377E+02 -0.28479923455E+00 -0.99490473348E+02  0.14010581569E+03  0.78904792754E+02 0.  0.
         -6    2    1    2    0  502 -0.96949678516E+02 -0.11886690485E+03 -0.45516620204E+02  0.23647936241E+03  0.17413254979E+03 0.  0.
        -24    2    5    5    0    0 -0.10856043477E+02 -0.10357753281E+03  0.78968831647E+01  0.13390757665E+03  0.83801666684E+02 0.  0.
          5    1    3    3  501    0  0.37744629139E+02  0.11915170409E+03 -0.23195199945E+03  0.26352534160E+03  0.47000000000E+01 0. -1.
        -13    1    4    4    0    0 -0.16218857654E+02 -0.14444251811E+02 -0.18468874321E+02  0.28509420770E+02  0.00000000000E+00 0.  1.
         14    1    4    4    0    0  0.75423907032E+02  0.14159452577E+02 -0.81021599027E+02  0.11159639492E+03  0.00000000000E+00 0. -1.
         -5    1    5    5    0  502 -0.86093635039E+02 -0.15289372047E+02 -0.53413503368E+02  0.10257178576E+03  0.47000000000E+01 0.  1.
         11    1    6    6    0    0 -0.31438477893E+02 -0.81332287331E+02  0.34311987841E+02  0.93705023154E+02  0.00000000000E+00 0. -1.
        -12    1    6    6    0    0  0.20582434415E+02 -0.22245245475E+02 -0.26415104676E+02  0.40202553498E+02  0.00000000000E+00 0.  1.
</event>
<event>
12    1  0.8494789E-002  0.2547619E+03  0.7818608E-02  0.1110668E+00
         21   -1    0    0  501  502  0.00000000000E+00  0.00000000000E+00  0.19659432511E+04  0.19659432511E+04  0.00000000000E+00 0. -1.
         21   -1    0    0  502  503 -0.00000000000E+00 -0.00000000000E+00 -0.50766708836E+02  0.50766708836E+02  0.00000000000E+00 0.  1.
         -6    2    1    2    0  503  0.64045567202E+02  0.17634900970E+03  0.35925258694E+03  0.44041577439E+03  0.17234507597E+03 0.  0.
        -24    2    3    3    0    0 -0.10826829791E+02  0.15140079734E+03  0.21147489845E+03  0.27281916242E+03  0.81665421247E+02 0.  0.
          6    2    1    2  501    0 -0.64045567202E+02 -0.17634900970E+03  0.15559239553E+04  0.15762941855E+04  0.16912479630E+03 0.  0.
         24    2    5    5    0    0  0.12016013055E+02 -0.37999147930E+02  0.40724737231E+03  0.41680894174E+03  0.79315520824E+02 0.  0.
          5    1    5    5  501    0 -0.76061580257E+02 -0.13834986177E+03  0.11486765830E+04  0.11594852438E+04  0.47000000000E+01 0. -1.
        -13    1    6    6    0    0 -0.20034211494E+02  0.89423207894E+01  0.22087345077E+03  0.22196039283E+03  0.00000000000E+00 0.  1.
         14    1    6    6    0    0  0.32050224548E+02 -0.46941468720E+02  0.18637392154E+03  0.19484854890E+03  0.00000000000E+00 0. -1.
         -5    1    3    3    0  503  0.74872396993E+02  0.24948212361E+02  0.14777768849E+03  0.16759661198E+03  0.47000000000E+01 0.  1.
         13    1    4    4    0    0 -0.28569685901E+02  0.72472077642E+02  0.15707541279E+03  0.17533144126E+03  0.00000000000E+00 0. -1.
        -14    1    4    4    0    0  0.17742856110E+02  0.78928719697E+02  0.54399485657E+02  0.97487721154E+02  0.00000000000E+00 0.  1.
</event>
<event>
12    1  0.8494789E-002  0.3106596E+03  0.7818608E-02  0.1080387E+00
         21   -1    0    0  503  502  0.00000000000E+00  0.00000000000E+00  0.25174977492E+04  0.25174977492E+04  0.00000000000E+00 0. -1.
         21   -1    0    0  501  503 -0.00000000000E+00 -0.00000000000E+00 -0.57816788098E+02  0.57816788098E+02  0.00000000000E+00 0.  1.
          6    2    1    2  501    0  0.10330337857E+03 -0.23605974348E+03  0.47929404060E+03  0.57116739333E+03  0.17353277306E+03 0.  0.
         24    2    3    3    0    0  0.13969308953E+03 -0.21242654242E+03  0.40067023956E+03  0.48124225031E+03  0.80114090073E+02 0.  0.
         -6    2    1    2    0  502 -0.10330337857E+03  0.23605974348E+03  0.19803869205E+04  0.20041471440E+04  0.16815953523E+03 0.  0.
        -24    2    5    5    0    0 -0.11274614404E+03  0.24162187872E+03  0.19647419885E+04  0.19844759197E+04  0.82708942162E+02 0.  0.
          5    1    3    3  501    0 -0.36389710958E+02 -0.23633201063E+02  0.78623801045E+02  0.89925143018E+02  0.47000000000E+01 0. -1.
        -13    1    4    4    0    0  0.41451534023E+02 -0.13132317773E+03  0.18289380182E+03  0.22894136678E+03  0.00000000000E+00 0.  1.
         14    1    4    4    0    0  0.98241555505E+02 -0.81103364691E+02  0.21777643774E+03  0.25230088353E+03  0.00000000000E+00 0. -1.
         -5    1    5    5    0  502  0.94427654719E+01 -0.55621352361E+01  0.15644931995E+02  0.19671224295E+02  0.47000000000E+01 0.  1.
         11    1    6    6    0    0 -0.31995673279E+02  0.95052584267E+02  0.10301468032E+04  0.10350174651E+04  0.00000000000E+00 0. -1.
        -12    1    6    6    0    0 -0.80750470762E+02  0.14656929445E+03  0.93459518529E+03  0.94945845458E+03  0.00000000000E+00 0.  1.
</event>
<event>
12    1  0.8494789E-002  0.3191281E+03  0.7818608E-02  0.1076173E+00
         21   -1    0    0  501  502  0.00000000000E+00  0.00000000000E+00  0.10300028524E+04  0.10300028524E+04  0.00000000000E+00 0. -1.
         21   -1    0    0  502  503 -0.00000000000E+00 -0.00000000000E+00 -0.10284956247E+03  0.10284956247E+03  0.00000000000E+00 0.  1.
         -6    2    1    2    0  503 -0.87349080789E+00  0.26735640477E+03  0.34704893714E+03  0.47076192211E+03  0.17231834606E+03 0.  0.
        -24    2    3    3    0    0 -0.44692744220E+02  0.62573336411E+02  0.12343329435E+03  0.16435977174E+03  0.76586504011E+02 0.  0.
          6    2    1    2  501    0  0.87349080789E+00 -0.26735640477E+03  0.58010435276E+03  0.66209049273E+03  0.17424853031E+03 0.  0.
         24    2    5    5    0    0  0.24077286324E+02 -0.25055135530E+03  0.39568733552E+03  0.47540211050E+03  0.77993601112E+02 0.  0.
          5    1    5    5  501    0 -0.23203795516E+02 -0.16805049472E+02  0.18441701724E+03  0.18668838223E+03  0.47000000000E+01 0. -1.
        -13    1    6    6    0    0 -0.66695082281E+01 -0.21688108803E+03  0.31089274518E+03  0.37912555663E+03  0.00000000000E+00 0.  1.
         14    1    6    6    0    0  0.30746794552E+02 -0.33670267267E+02  0.84794590342E+02  0.96276553866E+02  0.00000000000E+00 0. -1.
         -5    1    3    3    0  503  0.43819253412E+02  0.20478306836E+03  0.22361564279E+03  0.30640215038E+03  0.47000000000E+01 0.  1.
         11    1    4    4    0    0  0.20983218774E+02  0.15987871557E+02  0.19101412520E+02  0.32569486752E+02  0.00000000000E+00 0. -1.
        -12    1    4    4    0    0 -0.65675962994E+02  0.46585464854E+02  0.10433188183E+03  0.13179028499E+03  0.00000000000E+00 0.  1.
</event>
<event>
12    1  0.8494789E-002  0.1830746E+03  0.7818608E-02  0.1165398E+00
         21   -1    0    0  503  502  0.00000000000E+00  0.00000000000E+00  0.39993175671E+03  0.39993175671E+03  0.00000000000E+00 0. -1.
         21   -1    0    0  501  503 -0.00000000000E+00 -0.00000000000E+00 -0.85454122133E+02  0.85454122133E+02  0.00000000000E+00 0. -1.
          6    2    1    2  501    0 -0.59691915370E+01 -0.58419990982E+02  0.11332792407E+03  0.21339779728E+03  0.17101717726E+03 0.  0.
         24    2    3    3    0    0 -0.22416869768E+02 -0.89113018062E+02  0.33893927733E+02  0.12653907403E+03  0.80122985974E+02 0.  0.
         -6    2    1    2    0  502  0.59691915370E+01  0.58419990982E+02  0.20114971051E+03  0.27198808156E+03  0.17340064556E+03 0.  0.
        -24    2    5    5    0    0 -0.32391960686E+02  0.47549785162E+02  0.45037394162E+02  0.11079600766E+03  0.83289658749E+02 0.  0.
          5    1    3    3  501    0  0.16447678231E+02  0.30693027079E+02  0.79433996338E+02  0.86858723251E+02  0.47000000000E+01 0. -1.
        -11    1    4    4    0    0 -0.30206785441E+02 -0.22380819233E+02  0.44789424269E+02  0.58476007752E+02  0.00000000000E+00 0.  1.
         12    1    4    4    0    0  0.77899156727E+01 -0.66732198828E+02 -0.10895496536E+02  0.68063066280E+02  0.00000000000E+00 0. -1.
         -5    1    5    5    0  502  0.38361152223E+02  0.10870205820E+02  0.15611231634E+03  0.16119207390E+03  0.47000000000E+01 0.  1.
         11    1    6    6    0    0  0.18085831895E+02  0.34482852001E+02  0.43847182639E+02  0.58640769289E+02  0.00000000000E+00 0. -1.
        -12    1    6    6    0    0 -0.50477792581E+02  0.13066933161E+02  0.11902115236E+01  0.52155238371E+02  0.00000000000E+00 0.  1.
</event>
<event>
12    1  0.8494789E-002  0.2806725E+03  0.7818608E-02  0.1095385E+00
         21   -1    0    0  501  502  0.00000000000E+00  0.00000000000E+00  0.14814933999E+03  0.14814933999E+03  0.00000000000E+00 0. -1.
         21   -1    0    0  502  503 -0.00000000000E+00 -0.00000000000E+00 -0.54031144057E+03  0.54031144057E+03  0.00000000000E+00 0.  1.
         -6    2    1    2    0  503  0.37843232348E+02 -0.21853072482E+03 -0.24142104575E+03  0.36987024129E+03  0.17126612663E+03 0.  0.
        -24    2    3    3    0    0  0.76620563156E+02 -0.19974454935E+03 -0.17396008324E+03  0.28968499802E+03  0.88807048298E+02 0.  0.
          6    2    1    2  501    0 -0.37843232348E+02  0.21853072482E+03 -0.15074105483E+03  0.31859053927E+03  0.17201534284E+03 0.  0.
         24    2    5    5    0    0 -0.69014976878E+02  0.13193737424E+03 -0.38505476060E+02  0.17337001329E+03  0.80024696621E+02 0.  0.
          5    1    5    5  501    0  0.31171744530E+02  0.86593350589E+02 -0.11223557877E+03  0.14522052597E+03  0.47000000000E+01 0. -1.
        -13    1    6    6    0    0 -0.23514644409E+02  0.11876226364E+02 -0.36433164491E+02  0.44959523231E+02  0.00000000000E+00 0.  1.
         14    1    6    6    0    0 -0.45500332469E+02  0.12006114787E+03 -0.20723115696E+01  0.12841049006E+03  0.00000000000E+00 0. -1.
         -5    1    3    3    0  503 -0.38777330808E+02 -0.18786175477E+02 -0.67460962518E+02  0.80185243265E+02  0.47000000000E+01 0.  1.
         11    1    4    4    0    0  0.52156820542E+02 -0.36357745940E+02 -0.28934334278E+02  0.69852811819E+02  0.00000000000E+00 0. -1.
        -12    1    4    4    0    0  0.24463742614E+02 -0.16338680341E+03 -0.14502574896E+03  0.21983218620E+03  0.00000000000E+00 0.  1.
</event>
<event>
12    1  0.8494789E-002  0.1749212E+03  0.7818608E-02  0.1173031E+00
         21   -1    0    0  503  502  0.00000000000E+00  0.00000000000E+00  0.45044217508E+03  0.45044217508E+03  0.00000000000E+00 0. -1.
         21   -1    0    0  501  503 -0.00000000000E+00 -0.00000000000E+00 -0.31641977451E+03  0.31641977451E+03  0.00000000000E+00 0. -1.
          6    2    1    2  501    0 -0.68518525436E+01 -0.21286546788E+02 -0.27304711434E+03  0.32380099220E+03  0.17260443489E+03 0.  0.
         24    2    3    3    0    0  0.60957604542E+01  0.41974907484E+02 -0.82215460963E+02  0.12228557788E+03  0.79970803307E+02 0.  0.
         -6    2    1    2    0  502  0.68518525436E+01  0.21286546788E+02  0.40706951491E+03  0.44306095738E+03  0.17348589866E+03 0.  0.
        -24    2    5    5    0    0  0.46683015886E+02 -0.27473808879E+02  0.32934091656E+03  0.34292146039E+03  0.78711971946E+02 0.  0.
          5    1    3    3  501    0 -0.12947612998E+02 -0.63261454272E+02 -0.19083165338E+03  0.20151541432E+03  0.47000000000E+01 0. -1.
        -11    1    4    4    0    0  0.26706430902E+01 -0.23870102738E+02 -0.16122619529E+02  0.28928411635E+02  0.00000000000E+00 0.  1.
         12    1    4    4    0    0  0.34251173640E+01  0.65845010221E+02 -0.66092841433E+02  0.93357166242E+02  0.00000000000E+00 0. -1.
         -5    1    5    5    0  502 -0.39831163343E+02  0.48760355667E+02  0.77728598350E+02  0.10013949700E+03  0.47000000000E+01 0.  1.
         13    1    6    6    0    0  0.17180058037E+02 -0.51459791194E+02  0.14782485420E+03  0.15746571697E+03  0.00000000000E+00 0. -1.
        -14    1    6    6    0    0  0.29502957849E+02  0.23985982315E+02  0.18151606236E+03  0.18545574341E+03  0.00000000000E+00 0.  1.
</event>
<event>
12    1  0.8494789E-002  0.2092951E+03  0.7818608E-02  0.1142772E+00
         21   -1    0    0  501  502  0.00000000000E+00  0.00000000000E+00  0.57773800140E+02  0.57773800140E+02  0.00000000000E+00 0. -1.
         21   -1    0    0  502  503 -0.00000000000E+00 -0.00000000000E+00 -0.85885913601E+03  0.85885913601E+03  0.00000000000E+00 0. -1.
         -6    2    1    2    0  503  0.10133398336E+03 -0.53927441135E+02 -0.56895699629E+03  0.60623140359E+03  0.17500773118E+03 0.  0.
        -24    2    3    3    0    0 -0.85130923423E+01  0.10532519598E+02 -0.21072363834E+03  0.22600161080E+03  0.80553520194E+02 0.  0.
          6    2    1    2  501    0 -0.10133398336E+03  0.53927441135E+02 -0.23212833958E+03  0.31040153256E+03  0.17113970987E+03 0.  0.
         24    2    5    5    0    0 -0.13574354942E+03  0.33091067159E+02 -0.16690780581E+03  0.23362926712E+03  0.84871013190E+02 0.  0.
          5    1    5    5  501    0  0.34409566061E+02  0.20836373976E+02 -0.65220533761E+02  0.76772265441E+02  0.47000000000E+01 0. -1.
        -11    1    6    6    0    0  0.48475048824E+00  0.21427601603E+02 -0.47458989975E+02  0.52074300984E+02  0.00000000000E+00 0.  1.
         12    1    6    6    0    0 -0.13622829991E+03  0.11663465557E+02 -0.11944881584E+03  0.18155496614E+03  0.00000000000E+00 0. -1.
         -5    1    3    3    0  503  0.10984707570E+03 -0.64459960732E+02 -0.35823335795E+03  0.38022979279E+03  0.47000000000E+01 0.  1.
         13    1    4    4    0    0  0.22804244674E+02 -0.37469624119E+00 -0.17785076965E+03  0.17930719516E+03  0.00000000000E+00 0. -1.
        -14    1    4    4    0    0 -0.31317337017E+02  0.10907215839E+02 -0.32872868694E+02  0.46694415633E+02  0.00000000000E+00 0.  1.
</event>
<event>
12    1  0.8494789E-002  0.2295264E+03  0.7818608E-02  0.1127585E+00
         21   -1    0    0  501  502  0.00000000000E+00  0.00000000000E+00  0.39555002176E+02  0.39555002176E+02  0.00000000000E+00 0.  1.
         21   -1    0    0  502  503 -0.00000000000E+00 -0.00000000000E+00 -0.13285476805E+04  0.13285476805E+04  0.00000000000E+00 0. -1.
         -6    2    1    2    0  503  0.12518885546E+03 -0.78500774885E+02 -0.56339093799E+03  0.60706375579E+03  0.17112110738E+03 0.  0.
        -24    2    3    3    0    0  0.13933411856E+03 -0.94854503410E+02 -0.39103300010E+03  0.43329125606E+03  0.80144444619E+02 0.  0.
          6    2    1    2  501    0 -0.12518885546E+03  0.78500774885E+02 -0.72560174035E+03  0.76103892690E+03  0.17563525124E+03 0.  0.
         24    2    5    5    0    0 -0.14059367768E+03  0.68377630699E+02 -0.71973620639E+03  0.74113211690E+03  0.82550138280E+02 0.  0.
          5    1    5    5  501    0  0.15404822220E+02  0.10123144186E+02 -0.58655339565E+01  0.19906810002E+02  0.47000000000E+01 0. -1.
        -13    1    6    6    0    0  0.34487371097E+01  0.20639235712E+02 -0.46272865485E+02  0.50784347181E+02  0.00000000000E+00 0.  1.
         14    1    6    6    0    0 -0.14404241479E+03  0.47738394987E+02 -0.67346334091E+03  0.69034776972E+03  0.00000000000E+00 0. -1.
         -5    1    3    3    0  503 -0.14145263105E+02  0.16353728525E+02 -0.17235793790E+03  0.17377249973E+03  0.47000000000E+01 0.  1.
         13    1    4    4    0    0  0.97389532296E+02 -0.43660728705E+02 -0.31447205291E+03  0.33208982564E+03  0.00000000000E+00 0. -1.
        -14    1    4    4    0    0  0.41944586267E+02 -0.51193774706E+02 -0.76560947187E+02  0.10120143042E+03  0.00000000000E+00 0.  1.
</event>
<event>
12    1  0.8494789E-002  0.3641090E+03  0.7818608E-02  0.1057218E+00
         21   -1    0    0  503  502  0.00000000000E+00  0.00000000000E+00  0.72447270690E+03  0.72447270690E+03  0.00000000000E+00 0.  1.
         21   -1    0    0  501  503 -0.00000000000E+00 -0.00000000000E+00 -0.24943265574E+03  0.24943265574E+03  0.00000000000E+00 0.  1.
          6    2    1    2  501    0  0.16012274489E+03  0.27527034974E+03 -0.16806923005E+02  0.36195044734E+03  0.17120921351E+03 0.  0.
         24    2    3    3    0    0  0.13547495764E+03  0.27283115964E+03  0.22206564533E+02  0.31550041747E+03  0.79101682034E+02 0.  0.
         -6    2    1    2    0  502 -0.16012274489E+03 -0.27527034974E+03  0.49184697417E+03  0.61195491529E+03  0.17652850612E+03 0.  0.
        -24    2    5    5    0    0 -0.54116800657E+02 -0.57040303929E+02  0.52827556755E+02  0.11033578490E+03  0.56577471589E+02 0.  0.
          5    1    3    3  501    0  0.24647787255E+02  0.24391901061E+01 -0.39013487538E+02  0.46450029869E+02  0.47000000000E+01 0. -1.
        -13    1    4    4    0    0  0.89248852025E+02  0.10879656984E+03 -0.13535248234E+02  0.14136921214E+03  0.00000000000E+00 0.  1.
         14    1    4    4    0    0  0.46226105612E+02  0.16403458979E+03  0.35741812768E+02  0.17413120533E+03  0.00000000000E+00 0. -1.
         -5    1    5    5    0  502 -0.10600594424E+03 -0.21823004582E+03  0.43901941741E+03  0.50161913039E+03  0.47000000000E+01 0.  1.
         11    1    6    6    0    0 -0.21146696585E+02 -0.15329610410E+02 -0.10056435923E+02  0.27987705073E+02  0.00000000000E+00 0. -1.
        -12    1    6    6    0    0 -0.32970104072E+02 -0.41710693519E+02  0.62883992678E+02  0.82348079829E+02  0.00000000000E+00 0.  1.
</event>
<event>
12    1  0.8494789E-002  0.2736989E+03  0.7818608E-02  0.1099194E+00
         21   -1    0    0  501  502  0.00000000000E+00  0.00000000000E+00  0.50955255512E+03  0.50955255512E+03  0.00000000000E+00 0.  1.
         21   -1    0    0  502  503 -0.00000000000E+00 -0.00000000000E+00 -0.14696303886E+03  0.14696303886E+03  0.00000000000E+00 0.  1.
         -6    2    1    2    0  503 -0.19481412052E+03 -0.86529095803E+02  0.18063643515E+03  0.32785466655E+03  0.17152065386E+03 0.  0.
        -24    2    3    3    0    0 -0.70636331740E+02  0.30860522846E+01  0.13676673473E+03  0.16848830057E+03  0.68440869503E+02 0.  0.
          6    2    1    2  501    0  0.19481412052E+03  0.86529095803E+02  0.18195308110E+03  0.32866092743E+03  0.17167194158E+03 0.  0.
         24    2    5    5    0    0  0.10430830498E+03  0.11862503375E+03  0.12073884382E+03  0.21468406696E+03  0.80989252847E+02 0.  0.
          5    1    5    5  501    0  0.90505815537E+02 -0.32095937949E+02  0.61214237280E+02  0.11397686048E+03  0.47000000000E+01 0. -1.
        -13    1    6    6    0    0  0.15819599542E+02  0.77090763014E+02  0.65605575725E+02  0.10245651291E+03  0.00000000000E+00 0.  1.
         14    1    6    6    0    0  0.88488705436E+02  0.41534270737E+02  0.55133268099E+02  0.11222755404E+03  0.00000000000E+00 0. -1.
         -5    1    3    3    0  503 -0.12417778878E+03 -0.89615148087E+02  0.43869700420E+02  0.15936636598E+03  0.47000000000E+01 0.  1.
         11    1    4    4    0    0 -0.65684080991E+01  0.24434842912E+02  0.65934579698E+02  0.70622760729E+02  0.00000000000E+00 0. -1.
        -12    1    4    4    0    0 -0.64067923641E+02 -0.21348790627E+02  0.70832155032E+02  0.97865539836E+02  0.00000000000E+00 0.  1.
</event>
<event>
12    1  0.8494789E-002  0.2568803E+03  0.7818608E-02  0.1109302E+00
         21   -1    0    0  503  502  0.00000000000E+00  0.00000000000E+00  0.11198811973E+04  0.11198811973E+04  0.00000000000E+00 0. -1.
         21   -1    0    0  501  503 -0.00000000000E+00 -0.00000000000E+00 -0.58547725533E+02  0.58547725533E+02  0.00000000000E+00 0. -1.
          6    2    1    2  501    0  0.21572098207E+02 -0.18671138717E+03  0.51621134374E+03  0.57581328539E+03  0.17251171179E+03 0.  0.
         24    2    3    3    0    0 -0.26150904178E+02 -0.29257265601E+02  0.21263797875E+03  0.23049001180E+03  0.79817780917E+02 0.  0.
         -6    2    1    2    0  502 -0.21572098207E+02  0.18671138717E+03  0.54512212805E+03  0.60261563747E+03  0.17510275415E+03 0.  0.
        -24    2    5    5    0    0 -0.91938301496E+00  0.20746688061E+03  0.44506279015E+03  0.49825431199E+03  0.84457802673E+02 0.  0.
          5    1    3    3  501    0  0.47723002384E+02 -0.15745412157E+03  0.30357336499E+03  0.34532327360E+03  0.47000000000E+01 0. -1.
        -11    1    4    4    0    0  0.84826562983E+01 -0.36719404537E+02  0.42936413595E+02  0.57129727286E+02  0.00000000000E+00 0.  1.
         12    1    4    4    0    0 -0.34633560476E+02  0.74621389360E+01  0.16970156516E+03  0.17336028451E+03  0.00000000000E+00 0. -1.
         -5    1    5    5    0  502 -0.20652715192E+02 -0.20755493441E+02  0.10005933790E+03  0.10436132547E+03  0.47000000000E+01 0.  1.
         13    1    6    6    0    0 -0.37863885344E+02  0.89546229741E+02  0.15502152077E+03  0.18298599120E+03  0.00000000000E+00 0. -1.
        -14    1    6    6    0    0  0.36944502329E+02  0.11792065087E+03  0.29004126938E+03  0.31526832079E+03  0.00000000000E+00 0.  1.
</event>
<event>
12    1  0.8494789E-002  0.1759293E+03  0.7818608E-02  0.1172010E+00
         21   -1    0    0  501  502  0.00000000000E+00  0.00000000000E+00  0.58353608382E+03  0.58353608382E+03  0.00000000000E+00 0. -1.
         21   -1    0    0  502  503 -0.00000000000E+00 -0.00000000000E+00 -0.11546510498E+03  0.11546510498E+03  0.00000000000E+00 0. -1.
         -6    2    1    2    0  503 -0.32731473003E+02 -0.10310596510E+02 -0.23714224580E+02  0.17669495127E+03  0.17170056386E+03 0.  0.
        -24    2    3    3    0    0  0.39534858698E+01 -0.40368447525E+02 -0.67360602674E+02  0.11207021192E+03  0.79856371073E+02 0.  0.
          6    2    1    2  501    0  0.32731473003E+02  0.10310596510E+02  0.49178520342E+03  0.52230623752E+03  0.17254988185E+03 0.  0.
         24    2    5    5    0    0  0.87764172815E+02  0.16282590052E+01  0.28052935559E+03  0.30377682468E+03  0.76670976320E+02 0.  0.
          5    1    5    5  501    0 -0.55032699812E+02  0.86823375043E+01  0.21125584783E+03  0.21852941284E+03  0.47000000000E+01 0. -1.
        -13    1    6    6    0    0  0.50398275308E+02 -0.22162114583E+02  0.23037136977E+03  0.23685884718E+03  0.00000000000E+00 0.  1.
         14    1    6    6    0    0  0.37365897507E+02  0.23790373588E+02  0.50157985821E+02  0.66917977507E+02  0.00000000000E+00 0. -1.
         -5    1    3    3    0  503 -0.36684958873E+02  0.30057851016E+02  0.43646378094E+02  0.64624739349E+02  0.47000000000E+01 0.  1.
         11    1    4    4    0    0 -0.61274111877E+01  0.11585932452E+02 -0.56556512874E+02  0.58055302489E+02  0.00000000000E+00 0. -1.
        -12    1    4    4    0    0  0.10080897058E+02 -0.51954379978E+02 -0.10804089799E+02  0.54014909430E+02  0.00000000000E+00 0.  1.
</event>
<event>
12    1  0.8494789E-002  0.2156756E+03  0.7818608E-02  0.1137156E+00
         21   -1    0    0  501  502  0.00000000000E+00  0.00000000000E+00  0.99897892917E+02  0.99897892917E+02  0.00000000000E+00 0. -1.
         21   -1    0    0  502  503 -0.00000000000E+00 -0.00000000000E+00 -0.61340292190E+03  0.61340292190E+03  0.00000000000E+00 0. -1.
         -6    2    1    2    0  503 -0.12836718353E+03 -0.11945152098E+02 -0.43183271085E+03  0.48267921079E+03  0.17285517030E+03 0.  0.
        -24    2    3    3    0    0 -0.12761390815E+03 -0.90973440316E+00 -0.19968556157E+03  0.25022117847E+03  0.80312997001E+02 0.  0.
          6    2    1    2  501    0  0.12836718353E+03  0.11945152098E+02 -0.81672318129E+02  0.23062160403E+03  0.17290210013E+03 0.  0.
         24    2    5    5    0    0  0.64201892127E+02  0.52698222062E+02  0.65153293980E+01  0.11410058228E+03  0.77958372217E+02 0.  0.
          5    1    5    5  501    0  0.64165291402E+02 -0.40753069964E+02 -0.88187647527E+02  0.11652102175E+03  0.47000000000E+01 0. -1.
        -13    1    6    6    0    0 -0.10859140633E+02 -0.93175858812E+01 -0.67754031217E+01  0.15831753832E+02  0.00000000000E+00 0.  1.
         14    1    6    6    0    0  0.75061032760E+02  0.62015807943E+02  0.13290732520E+02  0.98268828449E+02  0.00000000000E+00 0. -1.
         -5    1    3    3    0  503 -0.75327537874E+00 -0.11035417695E+02 -0.23214714928E+03  0.23245803231E+03  0.47000000000E+01 0.  1.
         11    1    4    4    0    0 -0.12844011294E+02  0.28853649485E+02 -0.33113272561E+02  0.45760141328E+02  0.00000000000E+00 0. -1.
        -12    1    4    4    0    0 -0.11476989686E+03 -0.29763383888E+02 -0.16657228901E+03  0.20446103715E+03  0.00000000000E+00 0.  1.
</event>
<event>
12    1  0.8494789E-002  0.1794467E+03  0.7818608E-02  0.1168419E+00
         21   -1    0    0  501  502  0.00000000000E+00  0.00000000000E+00  0.13655670243E+03  0.13655670243E+03  0.00000000000E+00 0. -1.
         21   -1    0    0  502  503 -0.00000000000E+00 -0.00000000000E+00 -0.85156555598E+03  0.85156555598E+03  0.00000000000E+00 0.  1.
         -6    2    1    2    0  503 -0.48429395895E+02 -0.18220591878E+02 -0.77786268570E+03  0.79829284579E+03  0.17182465915E+03 0.  0.
        -24    2    3    3    0    0 -0.90064138614E+02 -0.17671458937E+02 -0.69267378075E+03  0.70335606222E+03  0.80554045246E+02 0.  0.
          6    2    1    2  501    0  0.48429395895E+02  0.18220591878E+02  0.62853832146E+02  0.18982941262E+03  0.17148529186E+03 0.  0.
         24    2    5    5    0    0  0.22845859894E+02  0.70132313612E+02  0.67188758549E+02  0.13160376745E+03  0.85818107680E+02 0.  0.
          5    1    5    5  501    0  0.25583536001E+02 -0.51911721733E+02 -0.43349264034E+01  0.58225645162E+02  0.47000000000E+01 0. -1.
        -11    1    6    6    0    0  0.47686307495E+02  0.47273074504E+02  0.13975586704E+02  0.68586037350E+02  0.00000000000E+00 0.  1.
         12    1    6    6    0    0 -0.24840447601E+02  0.22859239107E+02  0.53213171845E+02  0.63017730104E+02  0.00000000000E+00 0. -1.
         -5    1    3    3    0  503  0.41634742720E+02 -0.54913294140E+00 -0.85188904948E+02  0.94936783569E+02  0.47000000000E+01 0.  1.
         13    1    4    4    0    0 -0.43563003033E+02  0.29473646359E+02 -0.22803112393E+03  0.23401842778E+03  0.00000000000E+00 0. -1.
        -14    1    4    4    0    0 -0.46501135581E+02 -0.47145105296E+02 -0.46464265682E+03  0.46933763444E+03  0.00000000000E+00 0.  1.
</event>
<event>
12    1  0.8494789E-002  0.1960002E+03  0.7818608E-02  0.1154054E+00
         21   -1    0    0  501  502  0.00000000000E+00  0.00000000000E+00  0.42813176267E+03  0.42813176267E+03  0.00000000000E+00 0. -1.
         21   -1    0    0  502  503 -0.00000000000E+00 -0.00000000000E+00 -0.88055936976E+02  0.88055936976E+02  0.00000000000E+00 0.  1.
         -6    2    1    2    0  503 -0.77135329961E+02 -0.55805924068E+02  0.15630775536E+03  0.24751172920E+03  0.16663067370E+03 0.  0.
        -24    2    3    3    0    0 -0.98871751311E+02 -0.86583889281E+02  0.13614496177E+03  0.20451889955E+03  0.77589539045E+02 0.  0.
          6    2    1    2  501    0  0.77135329961E+02  0.55805924068E+02  0.18376807034E+03  0.26867597045E+03  0.17132400045E+03 0.  0.
         24    2    5    5    0    0  0.10526007177E+03  0.74800672096E+02  0.11416408949E+03  0.19109629719E+03  0.82519889811E+02 0.  0.
          5    1    5    5  501    0 -0.28124741804E+02 -0.18994748027E+02  0.69603980843E+02  0.77579673262E+02  0.47000000000E+01 0. -1.
        -13    1    6    6    0    0  0.24291460710E+02  0.21853077974E+02 -0.95548263297E+01  0.34043013770E+02  0.00000000000E+00 0.  1.
         14    1    6    6    0    0  0.80968611056E+02  0.52947594122E+02  0.12371891582E+03  0.15705328342E+03  0.00000000000E+00 0. -1.
         -5    1    3    3    0  503  0.21736421350E+02  0.30777965212E+02  0.20162793589E+02  0.42992829646E+02  0.47000000000E+01 0.  1.
         13    1    4    4    0    0 -0.10847013836E+03 -0.64068250498E+02  0.12551898970E+03  0.17783567812E+03  0.00000000000E+00 0. -1.
        -14    1    4    4    0    0  0.95983870448E+01 -0.22515638783E+02  0.10625972066E+02  0.26683221432E+02  0.00000000000E+00 0.  1.
</event>
<event>
12    1  0.8494789E-002  0.1951199E+03  0.7818608E-02  0.1154225E+00
         21   -1    0    0  501  502  0.00000000000E+00  0.00000000000E+00  0.12516851518E+03  0.12516851518E+03  0.00000000000E+00 0.  1.
         21   -1    0    0  502  503 -0.00000000000E+00 -0.00000000000E+00 -0.30878042140E+03  0.30878042140E+03  0.00000000000E+00 0. -1.
         -6    2    1    2    0  503  0.78767015487E+02  0.44523020237E+02 -0.12424553591E+03  0.23131957292E+03  0.17287350741E+03 0.  0.
        -24    2    3    3    0    0  0.10157294413E+03  0.80356795743E+02 -0.98332243669E+02  0.18134199232E+03  0.80258397894E+02 0.  0.
          6    2    1    2  501    0 -0.78767015487E+02 -0.44523020237E+02 -0.59366370313E+02  0.20262936367E+03  0.17131185317E+03 0.  0.
         24    2    5    5    0    0 -0.64843968981E+02 -0.21660223112E+02  0.29589984773E+02  0.10961387126E+03  0.80409750628E+02 0.  0.
          5    1    5    5  501    0 -0.13923046506E+02 -0.22862797126E+02 -0.88956355086E+02  0.93015492401E+02  0.47000000000E+01 0. -1.
        -11    1    6    6    0    0 -0.51128601053E+02 -0.39201337163E+02  0.48306621397E+02  0.80525824130E+02  0.00000000000E+00 0.  1.
         12    1    6    6    0    0 -0.13715367928E+02  0.17541114051E+02 -0.18716636624E+02  0.29088047134E+02  0.00000000000E+00 0. -1.
         -5    1    3    3    0  503 -0.22805928641E+02 -0.35833775506E+02 -0.25913292238E+02  0.49977580602E+02  0.47000000000E+01 0.  1.
         13    1    4    4    0    0  0.48873503315E+01  0.12836935984E+02 -0.53409235262E+02  0.55147253150E+02  0.00000000000E+00 0. -1.
        -14    1    4    4    0    0  0.96685593797E+02  0.67519859759E+02 -0.44923008407E+02  0.12619473917E+03  0.00000000000E+00 0.  1.
</event>
<event>
12    1  0.8494789E-002  0.1734005E+03  0.7818608E-02  0.1174462E+00
         21   -1    0    0  501  502  0.00000000000E+00  0.00000000000E+00  0.21482827502E+02  0.21482827502E+02  0.00000000000E+00 0.  1.
         21   -1    0    0  502  503 -0.00000000000E+00 -0.00000000000E+00 -0.25229886818E+04  0.25229886818E+04  0.00000000000E+00 0.  1.
         -6    2    1    2    0  503 -0.54545936602E+01 -0.13038955141E+02 -0.21019488606E+04  0.21090890818E+04  0.17282353883E+03 0.  0.
        -24    2    3    3    0    0 -0.48634541640E+02 -0.33732153580E+02 -0.47122060246E+03  0.47765123187E+03  0.50977115485E+02 0.  0.
          6    2    1    2  501    0  0.54545936602E+01  0.13038955141E+02 -0.39955699371E+03  0.43538242748E+03  0.17237256161E+03 0.  0.
         24    2    5    5    0    0  0.26718354748E+02  0.57019003252E+02 -0.35165216579E+03  0.36680141914E+03  0.83180515545E+02 0.  0.
          5    1    5    5  501    0 -0.21263761088E+02 -0.43980048111E+02 -0.47904827920E+02  0.68581008344E+02  0.47000000000E+01 0. -1.
        -11    1    6    6    0    0 -0.25806980699E+02  0.39375784731E+02 -0.19619959353E+03  0.20176900946E+03  0.00000000000E+00 0.  1.
         12    1    6    6    0    0  0.52525335447E+02  0.17643218521E+02 -0.15545257225E+03  0.16503240968E+03  0.00000000000E+00 0. -1.
         -5    1    3    3    0  503  0.43179947979E+02  0.20693198440E+02 -0.16307282581E+04  0.16314378499E+04  0.47000000000E+01 0.  1.
         11    1    4    4    0    0  0.90730380963E+01 -0.35232184716E+01 -0.27422666016E+02  0.29098723341E+02  0.00000000000E+00 0. -1.
        -12    1    4    4    0    0 -0.57707579736E+02 -0.30208935109E+02 -0.44379793644E+03  0.44855250853E+03  0.00000000000E+00 0.  1.
</event>
<event>
12    1  0.8494789E-002  0.3478072E+03  0.7818608E-02  0.1063607E+00
         21   -1    0    0  501  502  0.00000000000E+00  0.00000000000E+00  0.95067966170E+03  0.95067966170E+03  0.00000000000E+00 0. -1.
         21   -1    0    0  502  503 -0.00000000000E+00 -0.00000000000E+00 -0.12710086466E+03  0.12710086466E+03  0.00000000000E+00 0.  1.
         -6    2    1    2    0  503 -0.24656479756E+03 -0.17447222931E+03  0.43192667112E+03  0.55455434157E+03  0.17243871471E+03 0.  0.
        -24    2    3    3    0    0 -0.59142511866E+02 -0.10165884089E+03  0.22483385194E+03  0.26587038208E+03  0.79400519207E+02 0.  0.
          6    2    1    2  501    0  0.24656479756E+03  0.17447222931E+03  0.39165212592E+03  0.52322618479E+03  0.17070294231E+03 0.  0.
         24    2    5    5    0    0  0.67129110398E+02  0.13982767307E+02  0.13375908485E+03  0.17040194544E+03  0.80271383348E+02 0.  0.
          5    1    5    5  501    0  0.17943568716E+03  0.16048946200E+03  0.25789304107E+03  0.35282423935E+03  0.47000000000E+01 0. -1.
        -13    1    6    6    0    0  0.57044012355E+02  0.40011543755E+02  0.61492535234E+02  0.92931560133E+02  0.00000000000E+00 0.  1.
         14    1    6    6    0    0  0.10085098043E+02 -0.26028776447E+02  0.72266549616E+02  0.77470385305E+02  0.00000000000E+00 0. -1.
         -5    1    3    3    0  503 -0.18742228570E+03 -0.72813388419E+02  0.20709281919E+03  0.28868395949E+03  0.47000000000E+01 0.  1.
         11    1    4    4    0    0 -0.53443875921E+02 -0.92235647133E+02  0.23015234572E+03  0.25364101544E+03  0.00000000000E+00 0. -1.
        -12    1    4    4    0    0 -0.56986359443E+01 -0.94231937560E+01 -0.53184937832E+01  0.12229366636E+02  0.00000000000E+00 0.  1.
</event>
<event>
12    1  0.8494789E-002  0.1992479E+03  0.7818608E-02  0.1150849E+00
         21   -1    0    0  503  502  0.00000000000E+00  0.00000000000E+00  0.53933614253E+03  0.53933614253E+03  0.00000000000E+00 0.  1.
         21   -1    0    0  501  503 -0.00000000000E+00 -0.00000000000E+00 -0.75793644824E+02  0.75793644824E+02  0.00000000000E+00 0. -1.
          6    2    1    2  501    0 -0.79843828924E+01  0.97359522554E+02  0.29424783209E+03  0.35536110699E+03  0.17365800491E+03 0.  0.
         24    2    3    3    0    0  0.43742614124E+01  0.11633404285E+03  0.30004025230E+03  0.33151974291E+03  0.79551513172E+02 0.  0.
         -6    2    1    2    0  502  0.79843828924E+01 -0.97359522554E+02  0.16929466562E+03  0.25976868037E+03  0.17110364254E+03 0.  0.
        -24    2    5    5    0    0  0.80974044135E+01 -0.92878749990E+02  0.19619016739E+03  0.23210014025E+03  0.81779356611E+02 0.  0.
          5    1    3    3  501    0 -0.12358644305E+02 -0.18974520297E+02 -0.57924202090E+01  0.23841364085E+02  0.47000000000E+01 0. -1.
        -11    1    4    4    0    0 -0.34724549273E+01 -0.11648269538E+02  0.18234563611E+02  0.21914365985E+02  0.00000000000E+00 0.  1.
         12    1    4    4    0    0  0.78467163397E+01  0.12798231239E+03  0.28180568869E+03  0.30960537692E+03  0.00000000000E+00 0. -1.
         -5    1    5    5    0  502 -0.11302152114E+00 -0.44807725647E+01 -0.26895501769E+02  0.27668540114E+02  0.47000000000E+01 0.  1.
         13    1    6    6    0    0  0.48473908934E+01 -0.81259997668E+01 -0.70979645585E+01  0.11828363013E+02  0.00000000000E+00 0. -1.
        -14    1    6    6    0    0  0.32500135201E+01 -0.84752750223E+02  0.20328813195E+03  0.22027177724E+03  0.00000000000E+00 0.  1.
</event>
<event>
12    1  0.8494789E-002  0.2004678E+03  0.7818608E-02  0.1149952E+00
         21   -1    0    0  501  502  0.00000000000E+00  0.00000000000E+00  0.36995543796E+03  0.36995543796E+03  0.00000000000E+00 0. -1.
         21   -1    0    0  502  503 -0.00000000000E+00 -0.00000000000E+00 -0.14966144508E+03  0.14966144508E+03  0.00000000000E+00 0.  1.
         -6    2    1    2    0  503  0.84611551697E+02  0.50727925286E+02 -0.28999903727E+02  0.19971880870E+03  0.17121381676E+03 0.  0.
        -24    2    3    3    0    0 -0.19612675733E+02  0.84614188322E+01  0.30249878652E+01  0.82685348388E+02  0.79821448423E+02 0.  0.
          6    2    1    2  501    0 -0.84611551697E+02 -0.50727925286E+02  0.24929389660E+03  0.31989807434E+03  0.17451330608E+03 0.  0.
         24    2    5    5    0    0 -0.38118654837E+02  0.91608008655E+01  0.22229239939E+03  0.23927909500E+03  0.79395354753E+02 0.  0.
          5    1    5    5  501    0 -0.46492896860E+02 -0.59888726151E+02  0.27001497208E+02  0.80618979341E+02  0.47000000000E+01 0. -1.
        -13    1    6    6    0    0 -0.28638169027E+02  0.43733511094E+02  0.12020118970E+03  0.13107665972E+03  0.00000000000E+00 0.  1.
         14    1    6    6    0    0 -0.94804858102E+01 -0.34572710229E+02  0.10209120970E+03  0.10820243528E+03  0.00000000000E+00 0. -1.
         -5    1    3    3    0  503  0.10422422743E+03  0.42266506454E+02 -0.32024891592E+02  0.11703346031E+03  0.47000000000E+01 0.  1.
         11    1    4    4    0    0 -0.29390656319E+02  0.12921856020E+02  0.35862271950E+02  0.48134058537E+02  0.00000000000E+00 0. -1.
        -12    1    4    4    0    0  0.97779805862E+01 -0.44604371874E+01 -0.32837284085E+02  0.34551289850E+02  0.00000000000E+00 0.  1.
</event>
<event>
12    1  0.8494789E-002  0.1951741E+03  0.7818608E-02  0.1153974E+00
         21   -1    0    0  501  502  0.00000000000E+00  0.00000000000E+00  0.53304213530E+03  0.53304213530E+03  0.00000000000E+00 0. -1.
         21   -1    0    0  502  503 -0.00000000000E+00 -0.00000000000E+00 -0.77475565608E+02  0.77475565608E+02  0.00000000000E+00 0. -1.
         -6    2    1    2    0  503  0.92495400514E+02 -0.15857278318E+02  0.31421870408E+03  0.36990044936E+03  0.17113180900E+03 0.  0.
        -24    2    3    3    0    0 -0.16661920976E+02 -0.65116273944E+01  0.98863386728E+02  0.12823401657E+03  0.79686717010E+02 0.  0.
          6    2    1    2  501    0 -0.92495400514E+02  0.15857278318E+02  0.14134786561E+03  0.24061725155E+03  0.17061825880E+03 0.  0.
         24    2    5    5    0    0 -0.89420716686E+02  0.45516040059E+02  0.41461883794E+02  0.13626977821E+03  0.82356482260E+02 0.  0.
          5    1    5    5  501    0 -0.30746838277E+01 -0.29658761741E+02  0.99885981814E+02  0.10434747334E+03  0.47000000000E+01 0. -1.
        -13    1    6    6    0    0 -0.94248699072E+01  0.22046180998E+02 -0.21179196861E+02  0.31990946360E+02  0.00000000000E+00 0.  1.
         14    1    6    6    0    0 -0.79995846779E+02  0.23469859062E+02  0.62641080655E+02  0.10427883185E+03  0.00000000000E+00 0. -1.
         -5    1    3    3    0  503  0.10915732149E+03 -0.93456509240E+01  0.21535531735E+03  0.24166643279E+03  0.47000000000E+01 0.  1.
         11    1    4    4    0    0  0.30503250598E+02 -0.14424755303E+02  0.37737886884E+02  0.50622820636E+02  0.00000000000E+00 0. -1.
        -12    1    4    4    0    0 -0.47165171574E+02  0.79131279089E+01  0.61125499843E+02  0.77611195932E+02  0.00000000000E+00 0.  1.
</event>
<event>
12    1  0.8494789E-002  0.1905358E+03  0.7818608E-02  0.1158858E+00
         21   -1    0    0  503  502  0.00000000000E+00  0.00000000000E+00  0.50019183661E+02  0.50019183661E+02  0.00000000000E+00 0. -1.
         21   -1    0    0  501  503 -0.00000000000E+00 -0.00000000000E+00 -0.75792030625E+03  0.75792030625E+03  0.00000000000E+00 0. -1.
          6    2    1    2  501    0 -0.41706602853E+01  0.81785747434E+02 -0.45091442145E+03  0.48802377328E+03  0.16774112474E+03 0.  0.
         24    2    3    3    0    0  0.23540679958E+02  0.38743167680E+01 -0.11146313256E+03  0.13861373202E+03  0.78870544829E+02 0.  0.
         -6    2    1    2    0  502  0.41706602853E+01 -0.81785747434E+02 -0.25698670114E+03  0.31991571663E+03  0.17203952538E+03 0.  0.
        -24    2    5    5    0    0  0.19954480832E+02 -0.11312963547E+03 -0.13403375695E+03  0.19196617660E+03  0.75428570381E+02 0.  0.
          5    1    3    3  501    0 -0.27711340243E+02  0.77911430666E+02 -0.33945128889E+03  0.34941004127E+03  0.47000000000E+01 0. -1.
        -11    1    4    4    0    0  0.14052534457E+02 -0.34595886665E+02 -0.79036402535E+02  0.87413397283E+02  0.00000000000E+00 0.  1.
         12    1    4    4    0    0  0.94881455002E+01  0.38470203433E+02 -0.32426730021E+02  0.51200334736E+02  0.00000000000E+00 0. -1.
         -5    1    5    5    0  502 -0.15783820546E+02  0.31343888033E+02 -0.12295294419E+03  0.12794954003E+03  0.47000000000E+01 0.  1.
         11    1    6    6    0    0 -0.13588421918E+02 -0.10011656038E+03 -0.10519640464E+03  0.14585696563E+03  0.00000000000E+00 0. -1.
        -12    1    6    6    0    0  0.33542902749E+02 -0.13013075082E+02 -0.28837352306E+02  0.46109210966E+02  0.00000000000E+00 0.  1.
</event>
<event>
12    1  0.8494789E-002  0.2861033E+03  0.7818608E-02  0.1092430E+00
         21   -1    0    0  501  502  0.00000000000E+00  0.00000000000E+00  0.65440311545E+03  0.65440311545E+03  0.00000000000E+00 0. -1.
         21   -1    0    0  502  503 -0.00000000000E+00 -0.00000000000E+00 -0.12555511290E+03  0.12555511290E+03  0.00000000000E+00 0.  1.
         -6    2    1    2    0  503 -0.17888839686E+03  0.14086174445E+03  0.23811785055E+03  0.37206226370E+03  0.17287893954E+03 0.  0.
        -24    2    3    3    0    0 -0.14605008003E+03  0.10030138037E+03  0.88615533719E+02  0.21364341720E+03  0.79998775726E+02 0.  0.
          6    2    1    2  501    0  0.17888839686E+03 -0.14086174445E+03  0.29073015199E+03  0.40789596466E+03  0.17323973887E+03 0.  0.
         24    2    5    5    0    0  0.18376783376E+03 -0.65804872013E+02  0.22112264185E+03  0.30530630400E+03  0.78840463111E+02 0.  0.
          5    1    5    5  501    0 -0.48794368959E+01 -0.75056872433E+02  0.69607510149E+02  0.10258966065E+03  0.47000000000E+01 0. -1.
        -11    1    6    6    0    0  0.60320272264E+02 -0.57397767068E+01  0.12121626618E+03  0.13551702280E+03  0.00000000000E+00 0.  1.
         12    1    6    6    0    0  0.12344756149E+03 -0.60065095306E+02  0.99906375669E+02  0.16978928120E+03  0.00000000000E+00 0. -1.
         -5    1    3    3    0  503 -0.32838316833E+02  0.40560364079E+02  0.14950231683E+03  0.15841884650E+03  0.47000000000E+01 0.  1.
         13    1    4    4    0    0 -0.16825425189E+01  0.29583914541E+02  0.30971705407E+02  0.42863568269E+02  0.00000000000E+00 0. -1.
        -14    1    4    4    0    0 -0.14436753751E+03  0.70717465826E+02  0.57643828313E+02  0.17077984893E+03  0.00000000000E+00 0.  1.
</event>
<event>
12    1  0.8494789E-002  0.3805494E+03  0.7818608E-02  0.1050927E+00
         21   -1    0    0  503  502  0.00000000000E+00  0.00000000000E+00  0.28009496547E+03  0.28009496547E+03  0.00000000000E+00 0. -1.
         21   -1    0    0  501  503 -0.00000000000E+00 -0.00000000000E+00 -0.65994375902E+03  0.65994375902E+03  0.00000000000E+00 0. -1.
          6    2    1    2  501    0  0.25880788013E+03 -0.21950545003E+03 -0.41042502636E+03  0.55826296514E+03  0.16746544294E+03 0.  0.
         24    2    3    3    0    0  0.13309636341E+03 -0.91208481681E+02 -0.13344281152E+03  0.22810431410E+03  0.90503950635E+02 0.  0.
         -6    2    1    2    0  502 -0.25880788013E+03  0.21950545003E+03  0.30576232808E+02  0.38177575936E+03  0.17220238968E+03 0.  0.
        -24    2    5    5    0    0 -0.69302060059E+02  0.12082187301E+03 -0.21883738955E+02  0.16171885115E+03  0.79204723716E+02 0.  0.
          5    1    3    3  501    0  0.12571151672E+03 -0.12829696835E+03 -0.27698221483E+03  0.33015865104E+03  0.47000000000E+01 0. -1.
        -11    1    4    4    0    0  0.31027612615E+02  0.14930881495E+02 -0.97327676700E+01  0.35782268421E+02  0.00000000000E+00 0.  1.
         12    1    4    4    0    0  0.10206875079E+03 -0.10613936318E+03 -0.12371004385E+03  0.19232204568E+03  0.00000000000E+00 0. -1.
         -5    1    5    5    0  502 -0.18950582007E+03  0.98683577015E+02  0.52459971762E+02  0.22005690821E+03  0.47000000000E+01 0.  1.
         11    1    6    6    0    0  0.11223809071E+02  0.21341291271E+02  0.15154891613E+02  0.28479735655E+02  0.00000000000E+00 0. -1.
        -12    1    6    6    0    0 -0.80525869130E+02  0.99480581742E+02 -0.37038630567E+02  0.13323911549E+03  0.00000000000E+00 0.  1.
</event>
<event>
12    1  0.8494789E-002  0.2237076E+03  0.7818608E-02  0.1131282E+00
         21   -1    0    0  501  502  0.00000000000E+00  0.00000000000E+00  0.13106311069E+04  0.13106311069E+04  0.00000000000E+00 0. -1.
         21   -1    0    0  502  503 -0.00000000000E+00 -0.00000000000E+00 -0.42627949831E+02  0.42627949831E+02  0.00000000000E+00 0.  1.
         -6    2    1    2    0  503 -0.14143961223E+03  0.10585848659E+02  0.41157929025E+03  0.46809979637E+03  0.17205430279E+03 0.  0.
        -24    2    3    3    0    0 -0.20765233157E+02 -0.29975904491E+02  0.11238674834E+03  0.14291395918E+03  0.80398188826E+02 0.  0.
          6    2    1    2  501    0  0.14143961223E+03 -0.10585848659E+02  0.85642386682E+03  0.88515926036E+03  0.17299668331E+03 0.  0.
         24    2    5    5    0    0  0.22354538814E+02 -0.50703545719E+02  0.35168154489E+03  0.36498853274E+03  0.80412343934E+02 0.  0.
          5    1    5    5  501    0  0.11908507341E+03  0.40117697060E+02  0.50474232193E+03  0.52017072762E+03  0.47000000000E+01 0. -1.
        -13    1    6    6    0    0  0.32640319141E+02 -0.64724016752E+02  0.20822251987E+03  0.22047949238E+03  0.00000000000E+00 0.  1.
         14    1    6    6    0    0 -0.10285780327E+02  0.14020471033E+02  0.14345902502E+03  0.14450904036E+03  0.00000000000E+00 0. -1.
         -5    1    3    3    0  503 -0.12067437907E+03  0.40561753150E+02  0.29919254190E+03  0.32518583720E+03  0.47000000000E+01 0.  1.
         13    1    4    4    0    0  0.13721760532E+02  0.16074972053E+02  0.60054058313E+01  0.21971716769E+02  0.00000000000E+00 0. -1.
        -14    1    4    4    0    0 -0.34486993689E+02 -0.46050876544E+02  0.10638134251E+03  0.12094224241E+03  0.00000000000E+00 0.  1.
</event>
<event>
12    1  0.8494789E-002  0.2089157E+03  0.7818608E-02  0.1142579E+00
         21   -1    0    0  503  502  0.00000000000E+00  0.00000000000E+00  0.10671263282E+03  0.10671263282E+03  0.00000000000E+00 0. -1.
         21   -1    0    0  501  503 -0.00000000000E+00 -0.00000000000E+00 -0.42613426020E+03  0.42613426020E+03  0.00000000000E+00 0.  1.
          6    2    1    2  501    0 -0.76785645455E+02 -0.88473226277E+02 -0.10375412106E+03  0.23258329970E+03  0.17206547168E+03 0.  0.
         24    2    3    3    0    0 -0.29644054184E+02 -0.12090111567E+03 -0.96553040947E+02  0.17472275016E+03  0.75562556783E+02 0.  0.
         -6    2    1    2    0  502  0.76785645455E+02  0.88473226277E+02 -0.21566750632E+03  0.30026359332E+03  0.17298036039E+03 0.  0.
        -24    2    5    5    0    0  0.62702705562E+02  0.10567512809E+03 -0.88838033630E+02  0.17141469048E+03  0.79949596072E+02 0.  0.
          5    1    3    3  501    0 -0.47141591271E+02  0.32427889395E+02 -0.72010801144E+01  0.57860549539E+02  0.47000000000E+01 0. -1.
        -13    1    4    4    0    0 -0.23865569296E+02 -0.10291933590E+03 -0.10923872210E+03  0.15197056789E+03  0.00000000000E+00 0.  1.
         14    1    4    4    0    0 -0.57784848882E+01 -0.17981779776E+02  0.12685681154E+02  0.22752182266E+02  0.00000000000E+00 0. -1.
         -5    1    5    5    0  502  0.14082939893E+02 -0.17201901813E+02 -0.12682947269E+03  0.12884890284E+03  0.47000000000E+01 0.  1.
         11    1    6    6    0    0  0.27115996724E+02  0.81127002964E+02 -0.16459840063E+02  0.87107945809E+02  0.00000000000E+00 0. -1.
        -12    1    6    6    0    0  0.35586708838E+02  0.24548125126E+02 -0.72378193568E+02  0.84306744672E+02  0.00000000000E+00 0.  1.
</event>
<event>
12    1  0.8494789E-002  0.2363130E+03  0.7818608E-02  0.1122367E+00
         21   -1    0    0  501  502  0.00000000000E+00  0.00000000000E+00  0.11224092629E+03  0.11224092629E+03  0.00000000000E+00 0. -1.
         21   -1    0    0  502  503 -0.00000000000E+00 -0.00000000000E+00 -0.74898205407E+03  0.74898205407E+03  0.00000000000E+00 0. -1.
         -6    2    1    2    0  503 -0.58997013876E+02  0.15058792689E+03 -0.56819871878E+03  0.61517036303E+03  0.17154422217E+03 0.  0.
        -24    2    3    3    0    0  0.82728223500E+01  0.12661827051E+03 -0.47308189513E+03  0.49613643747E+03  0.79020624355E+02 0.  0.
          6    2    1    2  501    0  0.58997013876E+02 -0.15058792689E+03 -0.68542409001E+02  0.24605261733E+03  0.17229758353E+03 0.  0.
         24    2    5    5    0    0  0.51650089596E+02 -0.17568112797E+03 -0.34086264579E+02  0.20254443505E+03  0.79566225619E+02 0.  0.
          5    1    5    5  501    0  0.73469242801E+01  0.25093201072E+02 -0.34456144422E+02  0.43508182275E+02  0.47000000000E+01 0. -1.
        -13    1    6    6    0    0  0.64640019147E+01 -0.13432148874E+03 -0.41753040036E+02  0.14080966589E+03  0.00000000000E+00 0.  1.
         14    1    6    6    0    0  0.45186087681E+02 -0.41359639230E+02  0.76667754567E+01  0.61734769159E+02  0.00000000000E+00 0. -1.
         -5    1    3    3    0  503 -0.67269836226E+02  0.23969656390E+02 -0.95116823650E+02  0.11903392556E+03  0.47000000000E+01 0.  1.
         13    1    4    4    0    0  0.37555320654E+01  0.13478106112E+03 -0.46370007663E+03  0.48290558034E+03  0.00000000000E+00 0. -1.
        -14    1    4    4    0    0  0.45172902846E+01 -0.81627906116E+01 -0.93818184961E+01  0.13230857129E+02  0.00000000000E+00 0.  1.
</event>
<event>
12    1  0.8494789E-002  0.2094950E+03  0.7818608E-02  0.1141997E+00
         21   -1    0    0  503  502  0.00000000000E+00  0.00000000000E+00  0.15094614770E+03  0.15094614770E+03  0.00000000000E+00 0. -1.
         21   -1    0    0  501  503 -0.00000000000E+00 -0.00000000000E+00 -0.66855616103E+03  0.66855616103E+03  0.00000000000E+00 0. -1.
          6    2    1    2  501    0  0.23588286795E+02 -0.11959590326E+03 -0.56695512057E+03  0.60442224644E+03  0.17037768602E+03 0.  0.
         24    2    3    3    0    0  0.54066055082E+02 -0.21015415549E+02 -0.32793222318E+03  0.34403591347E+03  0.86350337319E+02 0.  0.
         -6    2    1    2    0  502 -0.23588286795E+02  0.11959590326E+03  0.49345107246E+02  0.21508006229E+03  0.17019079362E+03 0.  0.
        -24    2    5    5    0    0 -0.71685525625E+02  0.36493900439E+02  0.32837532917E+02  0.11754095595E+03  0.79164091629E+02 0.  0.
          5    1    3    3  501    0 -0.30477768286E+02 -0.98580487710E+02 -0.23902289739E+03  0.26038633296E+03  0.47000000000E+01 0. -1.
        -11    1    4    4    0    0 -0.37783121944E+00 -0.18012424586E+01  0.54184374319E+01  0.57224728071E+01  0.00000000000E+00 0.  1.
         12    1    4    4    0    0  0.54443886301E+02 -0.19214173091E+02 -0.33335066062E+03  0.33831344067E+03  0.00000000000E+00 0. -1.
         -5    1    5    5    0  502  0.48097238829E+02  0.83102002821E+02  0.16507574329E+02  0.97539106343E+02  0.47000000000E+01 0.  1.
         13    1    6    6    0    0 -0.44713311120E+02  0.53467817830E+02 -0.27698205660E+01  0.69754997246E+02  0.00000000000E+00 0. -1.
        -14    1    6    6    0    0 -0.26972214505E+02 -0.16973917391E+02  0.35607353483E+02  0.47785958701E+02  0.00000000000E+00 0.  1.
</event>
<event>
12    1  0.8494789E-002  0.1868715E+03  0.7818608E-02  0.1161463E+00
         21   -1    0    0  501  502  0.00000000000E+00  0.00000000000E+00  0.34868708513E+03  0.34868708513E+03  0.00000000000E+00 0. -1.
         21   -1    0    0  502  503 -0.00000000000E+00 -0.00000000000E+00 -0.15479616602E+03  0.15479616602E+03  0.00000000000E+00 0. -1.
         -6    2    1    2    0  503  0.65932207097E+01 -0.71016807656E+02 -0.53210148022E+02  0.19367705829E+03  0.17202507238E+03 0.  0.
        -24    2    3    3    0    0  0.75366954443E+01  0.11549766112E+02 -0.72874253364E+02  0.10866590439E+03  0.79419286692E+02 0.  0.
          6    2    1    2  501    0 -0.65932207097E+01  0.71016807656E+02  0.24710106713E+03  0.30980619286E+03  0.17272545334E+03 0.  0.
         24    2    5    5    0    0  0.15200283014E+02  0.85716231243E+02  0.84706989286E+02  0.14523111463E+03  0.79614582328E+02 0.  0.
          5    1    5    5  501    0 -0.21793503724E+02 -0.14699423587E+02  0.16239407784E+03  0.16457507824E+03  0.47000000000E+01 0. -1.
        -11    1    6    6    0    0  0.24872370259E+02  0.31685541528E+01  0.48452308593E+02  0.54555483186E+02  0.00000000000E+00 0.  1.
         12    1    6    6    0    0 -0.96720872450E+01  0.82547677091E+02  0.36254680694E+02  0.90675631439E+02  0.00000000000E+00 0. -1.
         -5    1    3    3    0  503 -0.94347473467E+00 -0.82566573768E+02  0.19664105342E+02  0.85011153899E+02  0.47000000000E+01 0.  1.
         13    1    4    4    0    0  0.65394822513E+01  0.34277892539E+02 -0.28196061215E+01  0.35009840384E+02  0.00000000000E+00 0. -1.
        -14    1    4    4    0    0  0.99721319300E+00 -0.22728126427E+02 -0.70054647242E+02  0.73656064009E+02  0.00000000000E+00 0.  1.
</event>
<event>
12    1  0.8494789E-002  0.2037780E+03  0.7818608E-02  0.1146685E+00
         21   -1    0    0  503  502  0.00000000000E+00  0.00000000000E+00  0.52807082770E+03  0.52807082770E+03  0.00000000000E+00 0. -1.
         21   -1    0    0  501  503 -0.00000000000E+00 -0.00000000000E+00 -0.10413344303E+04  0.10413344303E+04  0.00000000000E+00 0.  1.
          6    2    1    2  501    0  0.13060339088E+01  0.10917299889E+03 -0.10111722656E+04  0.10314103448E+04  0.17151530280E+03 0.  0.
         24    2    3    3    0    0  0.98683424282E+01  0.90650689363E+02 -0.10001642984E+04  0.10077533285E+04  0.83205862600E+02 0.  0.
         -6    2    1    2    0  502 -0.13060339088E+01 -0.10917299889E+03  0.49790866305E+03  0.53799491322E+03  0.17206115337E+03 0.  0.
        -24    2    5    5    0    0  0.21717192343E+02 -0.12124912194E+03  0.48829731157E+03  0.50988139739E+03  0.79823485911E+02 0.  0.
          5    1    3    3  501    0 -0.85623085194E+01  0.18522309529E+02 -0.11007967222E+02  0.23657016292E+02  0.47000000000E+01 0. -1.
        -11    1    4    4    0    0  0.32927855418E+02  0.68154361504E+02 -0.42501089728E+03  0.43169841726E+03  0.00000000000E+00 0.  1.
         12    1    4    4    0    0 -0.23059512990E+02  0.22496327859E+02 -0.57515340113E+03  0.57605491122E+03  0.00000000000E+00 0. -1.
         -5    1    5    5    0  502 -0.23023226252E+02  0.12076123052E+02  0.96113514789E+01  0.28113515828E+02  0.47000000000E+01 0.  1.
         11    1    6    6    0    0 -0.12749314396E+02 -0.90232473137E+02  0.39887515677E+03  0.40915258146E+03  0.00000000000E+00 0. -1.
        -12    1    6    6    0    0  0.34466506739E+02 -0.31016648807E+02  0.89422154803E+02  0.10072881593E+03  0.00000000000E+00 0.  1.
</event>
<event>
12    1  0.8494789E-002  0.2224330E+03  0.7818608E-02  0.1132142E+00
         21   -1    0    0  503  502  0.00000000000E+00  0.00000000000E+00  0.51505899106E+03  0.51505899106E+03  0.00000000000E+00 0.  1.
         21   -1    0    0  501  503 -0.00000000000E+00 -0.00000000000E+00 -0.38227320771E+03  0.38227320771E+03  0.00000000000E+00 0.  1.
          6    2    1    2  501    0  0.92827615257E+02  0.10490042199E+03 -0.32193827513E+03  0.39112036627E+03  0.17236537711E+03 0.  0.
         24    2    3    3    0    0  0.11374118285E+03  0.54889483208E+02 -0.30124737011E+03  0.33290804061E+03  0.64248528867E+02 0.  0.
         -6    2    1    2    0  502 -0.92827615257E+02 -0.10490042199E+03  0.45472405848E+03  0.50621183250E+03  0.17278710981E+03 0.  0.
        -24    2    5    5    0    0 -0.12047681060E+02 -0.66095819816E+02  0.36365103940E+03  0.37835417835E+03  0.79975007400E+02 0.  0.
          5    1    3    3  501    0 -0.20913567594E+02  0.50010938784E+02 -0.20690905017E+02  0.58212325653E+02  0.47000000000E+01 0. -1.
        -11    1    4    4    0    0  0.69533936014E+02  0.56337154228E+02 -0.24819386157E+03  0.26383524428E+03  0.00000000000E+00 0.  1.
         12    1    4    4    0    0  0.44207246837E+02 -0.14476710201E+01 -0.53053508542E+02  0.69072796331E+02  0.00000000000E+00 0. -1.
         -5    1    5    5    0  502 -0.80779934197E+02 -0.38804602176E+02  0.91073019087E+02  0.12785765415E+03  0.47000000000E+01 0.  1.
         13    1    6    6    0    0  0.25362064526E+02 -0.84157213553E+01  0.44703798456E+02  0.52081554118E+02  0.00000000000E+00 0. -1.
        -14    1    6    6    0    0 -0.37409745586E+02 -0.57680098461E+02  0.31894724094E+03  0.32627262424E+03  0.00000000000E+00 0.  1.
</event>
<event>
12    1  0.8494789E-002  0.2448116E+03  0.7818608E-02  0.1116762E+00
         21   -1    0    0  503  502  0.00000000000E+00  0.00000000000E+00  0.16315437484E+03  0.16315437484E+03  0.00000000000E+00 0.  1.
         21   -1    0    0  501  503 -0.00000000000E+00 -0.00000000000E+00 -0.51826045727E+03  0.51826045727E+03  0.00000000000E+00 0.  1.
          6    2    1    2  501    0 -0.54815529652E+01 -0.17309489564E+03 -0.36237162495E+03  0.43731672910E+03  0.17303420662E+03 0.  0.
         24    2    3    3    0    0 -0.61826701963E+02 -0.92936208923E+02 -0.14341885412E+03  0.19739466524E+03  0.77045481010E+02 0.  0.
         -6    2    1    2    0  502  0.54815529652E+01  0.17309489564E+03  0.72655425189E+01  0.24409810302E+03  0.17186973401E+03 0.  0.
        -24    2    5    5    0    0 -0.47115731830E+02  0.14991670907E+03 -0.29748609356E+02  0.17557190263E+03  0.72426524074E+02 0.  0.
          5    1    3    3  501    0  0.56345148998E+02 -0.80158686713E+02 -0.21895277083E+03  0.23992206385E+03  0.47000000000E+01 0. -1.
        -13    1    4    4    0    0 -0.42304750762E+02 -0.87869971967E+02 -0.14749253286E+03  0.17681875228E+03  0.00000000000E+00 0.  1.
         14    1    4    4    0    0 -0.19521951201E+02 -0.50662369561E+01  0.40736787367E+01  0.20575912958E+02  0.00000000000E+00 0. -1.
         -5    1    5    5    0  502  0.52597284796E+02  0.23178186564E+02  0.37014151875E+02  0.68526200386E+02  0.47000000000E+01 0.  1.
         11    1    6    6    0    0 -0.31092452331E+02  0.27741917634E+02  0.15277669871E+02  0.44381998407E+02  0.00000000000E+00 0. -1.
        -12    1    6    6    0    0 -0.16023279500E+02  0.12217479144E+03 -0.45026279227E+02  0.13118990422E+03  0.00000000000E+00 0.  1.
</event>
<event>
12    1  0.8494789E-002  0.1808597E+03  0.7818608E-02  0.1167203E+00
         21   -1    0    0  503  502  0.00000000000E+00  0.00000000000E+00  0.12916602659E+04  0.12916602659E+04  0.00000000000E+00 0.  1.
         21   -1    0    0  501  503 -0.00000000000E+00 -0.00000000000E+00 -0.26096522402E+02  0.26096522402E+02  0.00000000000E+00 0.  1.
          6    2    1    2  501    0  0.50562806495E+02 -0.20707647526E+02  0.50846273188E+03  0.53935317167E+03  0.17141204744E+03 0.  0.
         24    2    3    3    0    0  0.24988269762E+02 -0.88242818576E+01  0.50307974293E+03  0.51026128485E+03  0.81086802182E+02 0.  0.
         -6    2    1    2    0  502 -0.50562806495E+02  0.20707647526E+02  0.75710101165E+03  0.77840361667E+03  0.17240894563E+03 0.  0.
        -24    2    5    5    0    0 -0.51535326995E+01  0.62269598661E+01  0.16216465295E+03  0.18154261663E+03  0.81209685743E+02 0.  0.
          5    1    3    3  501    0  0.25574536733E+02 -0.11883365668E+02  0.53829889485E+01  0.29091886820E+02  0.47000000000E+01 0. -1.
        -13    1    4    4    0    0  0.28952447950E+02 -0.41658766029E+02  0.25604583236E+03  0.26102330413E+03  0.00000000000E+00 0.  1.
         14    1    4    4    0    0 -0.39641781883E+01  0.32834484171E+02  0.24703391057E+03  0.24923798072E+03  0.00000000000E+00 0. -1.
         -5    1    5    5    0  502 -0.45409273796E+02  0.14480687660E+02  0.59493635870E+03  0.59686100004E+03  0.47000000000E+01 0.  1.
         13    1    6    6    0    0  0.30219452629E+02 -0.19875176100E+02  0.90613806115E+02  0.97565874161E+02  0.00000000000E+00 0. -1.
        -14    1    6    6    0    0 -0.35372985329E+02  0.26102135966E+02  0.71550846832E+02  0.83976742468E+02  0.00000000000E+00 0.  1.
</event>
<event>
12    1  0.8494789E-002  0.2265173E+03  0.7818608E-02  0.1129704E+00
         21   -1    0    0  503  502  0.00000000000E+00  0.00000000000E+00  0.75983036002E+03  0.75983036002E+03  0.00000000000E+00 0. -1.
         21   -1    0    0  501  503 -0.00000000000E+00 -0.00000000000E+00 -0.95922403713E+02  0.95922403713E+02  0.00000000000E+00 0.  1.
          6    2    1    2  501    0  0.14555190314E+03 -0.22709691591E+02  0.96899447477E+02  0.24637290838E+03  0.17207271853E+03 0.  0.
         24    2    3    3    0    0  0.13689361777E+03 -0.34349957535E+02  0.14839523100E+02  0.16290804820E+03  0.79993990732E+02 0.  0.
         -6    2    1    2    0  502 -0.14555190314E+03  0.22709691591E+02  0.56700850883E+03  0.60937985535E+03  0.16776195164E+03 0.  0.
        -24    2    5    5    0    0 -0.33969187415E+02 -0.34609101471E+02  0.17321769529E+03  0.19606467136E+03  0.78008267482E+02 0.  0.
          5    1    3    3  501    0  0.86582853711E+01  0.11640265944E+02  0.82059924377E+02  0.83464860184E+02  0.47000000000E+01 0. -1.
        -13    1    4    4    0    0  0.21948768493E+02  0.12228108368E+02 -0.22140800481E+02  0.33488656566E+02  0.00000000000E+00 0.  1.
         14    1    4    4    0    0  0.11494484928E+03 -0.46578065903E+02  0.36980323581E+02  0.12941939164E+03  0.00000000000E+00 0. -1.
         -5    1    5    5    0  502 -0.11158271573E+03  0.57318793062E+02  0.39379081354E+03  0.41331518399E+03  0.47000000000E+01 0.  1.
         13    1    6    6    0    0 -0.15147543477E+02  0.18805037820E+02  0.10331647434E+03  0.10610076055E+03  0.00000000000E+00 0. -1.
        -14    1    6    6    0    0 -0.18821643937E+02 -0.53414139291E+02  0.69901220957E+02  0.89963910809E+02  0.00000000000E+00 0.  1.
</event>
<event>
12    1  0.8494789E-002  0.2129554E+03  0.7818608E-02  0.1141241E+00
         21   -1    0    0  503  502  0.00000000000E+00  0.00000000000E+00  0.94558212764E+02  0.94558212764E+02  0.00000000000E+00 0.  1.
         21   -1    0    0  501  503 -0.00000000000E+00 -0.00000000000E+00 -0.49195297867E+03  0.49195297867E+03  0.00000000000E+00 0.  1.
          6    2    1    2  501    0  0.36349551244E+02 -0.10136651178E+03 -0.27200879632E+03  0.33938438689E+03  0.17203638336E+03 0.  0.
         24    2    3    3    0    0  0.69043609658E+02 -0.75349172578E+02 -0.26670387716E+03  0.29700472712E+03  0.81463685146E+02 0.  0.
         -6    2    1    2    0  502 -0.36349551244E+02  0.10136651178E+03 -0.12538596958E+03  0.24712680454E+03  0.18372141021E+03 0.  0.
        -24    2    5    5    0    0  0.10143455514E+02  0.76380316448E+01 -0.11414703233E+03  0.14179384970E+03  0.83154805056E+02 0.  0.
          5    1    3    3  501    0 -0.32694058414E+02 -0.26017339206E+02 -0.53049191666E+01  0.42379659771E+02  0.47000000000E+01 0. -1.
        -11    1    4    4    0    0  0.38257130708E+01 -0.28548616017E+02 -0.16471702014E+03  0.16721649524E+03  0.00000000000E+00 0.  1.
         12    1    4    4    0    0  0.65217896587E+02 -0.46800556561E+02 -0.10198685702E+03  0.12978823188E+03  0.00000000000E+00 0. -1.
         -5    1    5    5    0  502 -0.46493006757E+02  0.93728480140E+02 -0.11238937251E+02  0.10533295485E+03  0.47000000000E+01 0.  1.
         13    1    6    6    0    0 -0.17553697511E+02 -0.21453694093E+02 -0.91660039529E+02  0.95759887912E+02  0.00000000000E+00 0. -1.
        -14    1    6    6    0    0  0.27697153025E+02  0.29091725738E+02 -0.22486992803E+02  0.46033961783E+02  0.00000000000E+00 0.  1.
</event>
<event>
12    1  0.8494789E-002  0.1852920E+03  0.7818608E-02  0.1163038E+00
         21   -1    0    0  503  502  0.00000000000E+00  0.00000000000E+00  0.65220125151E+02  0.65220125151E+02  0.00000000000E+00 0.  1.
         21   -1    0    0  501  503 -0.00000000000E+00 -0.00000000000E+00 -0.67214483200E+03  0.67214483200E+03  0.00000000000E+00 0.  1.
          6    2    1    2  501    0  0.64537070572E+02 -0.22118642336E+01 -0.12922786597E+03  0.22499068618E+03  0.17248490283E+03 0.  0.
         24    2    3    3    0    0  0.10664684369E+03  0.50389326176E+01 -0.12284659400E+03  0.18153245705E+03  0.80397805914E+02 0.  0.
         -6    2    1    2    0  502 -0.64537070572E+02  0.22118642336E+01 -0.47769684088E+03  0.51237427098E+03  0.17367554793E+03 0.  0.
        -24    2    5    5    0    0 -0.25000893581E+02  0.25062567358E+01 -0.90268906502E+02  0.12290579947E+03  0.79536369416E+02 0.  0.
          5    1    3    3  501    0 -0.42109773115E+02 -0.72507968513E+01 -0.63812719681E+01  0.43458229125E+02  0.47000000000E+01 0. -1.
        -13    1    4    4    0    0 -0.12421896588E+02  0.67150393030E+01 -0.87397711435E+01  0.16606591081E+02  0.00000000000E+00 0.  1.
         14    1    4    4    0    0  0.11906874027E+03 -0.16761066854E+01 -0.11410682286E+03  0.16492586597E+03  0.00000000000E+00 0. -1.
         -5    1    5    5    0  502 -0.39536176991E+02 -0.29439250220E+00 -0.38742793438E+03  0.38946847151E+03  0.47000000000E+01 0.  1.
         13    1    6    6    0    0 -0.19579732905E+02  0.40519653834E+02 -0.49678011060E+02  0.67030687527E+02  0.00000000000E+00 0. -1.
        -14    1    6    6    0    0 -0.54211606756E+01 -0.38013397098E+02 -0.40590895442E+02  0.55875111944E+02  0.00000000000E+00 0.  1.
</event>
<event>
12    1  0.8494789E-002  0.1815637E+03  0.7818608E-02  0.1166593E+00
         21   -1    0    0  501  502  0.00000000000E+00  0.00000000000E+00  0.58299507490E+02  0.58299507490E+02  0.00000000000E+00 0. -1.
         21   -1    0    0  502  503 -0.00000000000E+00 -0.00000000000E+00 -0.10702340468E+04  0.10702340468E+04  0.00000000000E+00 0. -1.
         -6    2    1    2    0  503 -0.52239191381E+02 -0.13108289580E+02 -0.89405222079E+03  0.91205813597E+03  0.17210435651E+03 0.  0.
        -24    2    3    3    0    0 -0.76036564867E+02  0.43056217918E+02 -0.54337657764E+03  0.55608585674E+03  0.79611417765E+02 0.  0.
          6    2    1    2  501    0  0.52239191381E+02  0.13108289580E+02 -0.11788231850E+03  0.21647541829E+03  0.17339148000E+03 0.  0.
         24    2    5    5    0    0  0.36803518491E+02  0.20512116983E+02 -0.15270951216E+03  0.17738449766E+03  0.79811145760E+02 0.  0.
          5    1    5    5  501    0  0.15435672891E+02 -0.74038274026E+01  0.34827193663E+02  0.39090920636E+02  0.47000000000E+01 0. -1.
        -11    1    6    6    0    0  0.46725063659E+02 -0.15972127782E+02 -0.63096651739E+02  0.80121956420E+02  0.00000000000E+00 0.  1.
         12    1    6    6    0    0 -0.99215451682E+01  0.36484244765E+02 -0.89612860423E+02  0.97262541237E+02  0.00000000000E+00 0. -1.
         -5    1    3    3    0  503  0.23797373486E+02 -0.56164507498E+02 -0.35067564315E+03  0.35597227924E+03  0.47000000000E+01 0.  1.
         13    1    4    4    0    0 -0.68583049155E+02  0.40719999972E+01 -0.44036889513E+03  0.44569606192E+03  0.00000000000E+00 0. -1.
        -14    1    4    4    0    0 -0.74535157121E+01  0.38984217921E+02 -0.10300768251E+03  0.11038979481E+03  0.00000000000E+00 0.  1.
</event>
<event>
12    1  0.8494789E-002  0.1922519E+03  0.7818608E-02  0.1157097E+00
         21   -1    0    0  503  502  0.00000000000E+00  0.00000000000E+00  0.86037159486E+03  0.86037159486E+03  0.00000000000E+00 0. -1.
         21   -1    0    0  501  503 -0.00000000000E+00 -0.00000000000E+00 -0.42315838083E+02  0.42315838083E+02  0.00000000000E+00 0. -1.
          6    2    1    2  501    0  0.67731904242E+02  0.32577219082E+02  0.40757772990E+03  0.45064440989E+03  0.17695166628E+03 0.  0.
         24    2    3    3    0    0  0.18163330791E+02 -0.33819432884E+02  0.97541844160E+02  0.12969285698E+03  0.76368613740E+02 0.  0.
         -6    2    1    2    0  502 -0.67731904242E+02 -0.32577219082E+02  0.41047802687E+03  0.45204302305E+03  0.17378664530E+03 0.  0.
        -24    2    5    5    0    0  0.15905855583E+02 -0.48792292796E+02  0.28188946337E+03  0.29772091787E+03  0.80885049900E+02 0.  0.
          5    1    3    3  501    0  0.49568573451E+02  0.66396651966E+02  0.31003588574E+03  0.32095155291E+03  0.47000000000E+01 0. -1.
        -11    1    4    4    0    0 -0.23347791220E+02 -0.83157935041E+01  0.68797443295E+02  0.73125645162E+02  0.00000000000E+00 0.  1.
         12    1    4    4    0    0  0.41511122011E+02 -0.25503639380E+02  0.28744400865E+02  0.56567211821E+02  0.00000000000E+00 0. -1.
         -5    1    5    5    0  502 -0.83637759825E+02  0.16215073713E+02  0.12858856350E+03  0.15432210518E+03  0.47000000000E+01 0.  1.
         11    1    6    6    0    0 -0.52889198073E+01 -0.52852725088E+02  0.26512672056E+03  0.27039519444E+03  0.00000000000E+00 0. -1.
        -12    1    6    6    0    0  0.21194775391E+02  0.40604322920E+01  0.16762742817E+02  0.27325723430E+02  0.00000000000E+00 0.  1.
</event>
<event>
12    1  0.8494789E-002  0.1930093E+03  0.7818608E-02  0.1155862E+00
         21   -1    0    0  501  502  0.00000000000E+00  0.00000000000E+00  0.18515580503E+03  0.18515580503E+03  0.00000000000E+00 0. -1.
         21   -1    0    0  502  503 -0.00000000000E+00 -0.00000000000E+00 -0.33920899873E+03  0.33920899873E+03  0.00000000000E+00 0.  1.
         -6    2    1    2    0  503  0.51913183970E+02  0.69836700399E+02 -0.24446415926E+03  0.31122934942E+03  0.17183957455E+03 0.  0.
        -24    2    3    3    0    0  0.99660435585E+02  0.40275246353E+02 -0.19269836098E+03  0.23470832306E+03  0.80006504123E+02 0.  0.
          6    2    1    2  501    0 -0.51913183970E+02 -0.69836700399E+02  0.90410965569E+02  0.21313545434E+03  0.17228010857E+03 0.  0.
         24    2    5    5    0    0 -0.60369808769E+02 -0.25470972661E+02 -0.93044128428E+01  0.10356776297E+03  0.79664453612E+02 0.  0.
          5    1    5    5  501    0  0.84566247996E+01 -0.44365727738E+02  0.99715378412E+02  0.10956769137E+03  0.47000000000E+01 0. -1.
        -13    1    6    6    0    0 -0.36322518934E+00  0.20459699944E+02  0.13641963156E+02  0.24593381489E+02  0.00000000000E+00 0.  1.
         14    1    6    6    0    0 -0.60006583580E+02 -0.45930672605E+02 -0.22946375999E+02  0.78974381481E+02  0.00000000000E+00 0. -1.
         -5    1    3    3    0  503 -0.47747251616E+02  0.29561454047E+02 -0.51765798288E+02  0.76521026356E+02  0.47000000000E+01 0.  1.
         11    1    4    4    0    0  0.27070774447E+02 -0.50877982344E+01 -0.44358555369E+01  0.27899629646E+02  0.00000000000E+00 0. -1.
        -12    1    4    4    0    0  0.72589661139E+02  0.45363044587E+02 -0.18826250544E+03  0.20680869342E+03  0.00000000000E+00 0.  1.
</event>
<event>
12    1  0.8494789E-002  0.2114033E+03  0.7818608E-02  0.1140537E+00
         21   -1    0    0  501  502  0.00000000000E+00  0.00000000000E+00  0.70345450003E+03  0.70345450003E+03  0.00000000000E+00 0.  1.
         21   -1    0    0  502  503 -0.00000000000E+00 -0.00000000000E+00 -0.69359472711E+02  0.69359472711E+02  0.00000000000E+00 0.  1.
         -6    2    1    2    0  503 -0.11649030146E+03  0.40360009913E+02  0.20362744160E+03  0.29323738174E+03  0.17124574839E+03 0.  0.
        -24    2    3    3    0    0 -0.12721132076E+03  0.90298303846E+01  0.94165313686E+02  0.17877966967E+03  0.82648690373E+02 0.  0.
          6    2    1    2  501    0  0.11649030146E+03 -0.40360009913E+02  0.43046758571E+03  0.47957659100E+03  0.17173364128E+03 0.  0.
         24    2    5    5    0    0  0.32407270266E+02  0.36971765133E+02  0.15187167668E+03  0.17843222346E+03  0.79723958814E+02 0.  0.
          5    1    5    5  501    0  0.84083031196E+02 -0.77331775046E+02  0.27859590904E+03  0.30114436754E+03  0.47000000000E+01 0. -1.
        -11    1    6    6    0    0 -0.61871037685E+01 -0.65316482472E+01  0.10030327218E+03  0.10070595361E+03  0.00000000000E+00 0.  1.
         12    1    6    6    0    0  0.38594374035E+02  0.43503413380E+02  0.51568404497E+02  0.77726269852E+02  0.00000000000E+00 0. -1.
         -5    1    3    3    0  503  0.10721019299E+02  0.31330179529E+02  0.10946212791E+03  0.11445771207E+03  0.47000000000E+01 0.  1.
         11    1    4    4    0    0 -0.24867338926E+02 -0.30848218793E+02  0.11342946971E+02  0.41214798240E+02  0.00000000000E+00 0. -1.
        -12    1    4    4    0    0 -0.10234398183E+03  0.39878049178E+02  0.82822366715E+02  0.13756487143E+03  0.00000000000E+00 0.  1.
</event>
<event>
12    1  0.8494789E-002  0.1737210E+03  0.7818608E-02  0.1174143E+00
         21   -1    0    0  501  502  0.00000000000E+00  0.00000000000E+00  0.56219493834E+03  0.56219493834E+03  0.00000000000E+00 0.  1.
         21   -1    0    0  502  503 -0.00000000000E+00 -0.00000000000E+00 -0.56898372739E+02  0.56898372739E+02  0.00000000000E+00 0.  1.
         -6    2    1    2    0  503  0.14592356871E+02  0.21506561313E+02  0.17704560527E+03  0.24770714200E+03  0.17128401208E+03 0.  0.
        -24    2    3    3    0    0 -0.18241807937E+02  0.65518639497E+02  0.15844475361E+03  0.18954162741E+03  0.78713613159E+02 0.  0.
          6    2    1    2  501    0 -0.14592356871E+02 -0.21506561313E+02  0.32825096034E+03  0.37138616909E+03  0.17176590048E+03 0.  0.
         24    2    5    5    0    0 -0.71556308506E+02 -0.26417866320E+02  0.18003832091E+03  0.21245823199E+03  0.83105321115E+02 0.  0.
          5    1    5    5  501    0  0.56963951635E+02  0.49113050076E+01  0.14821263943E+03  0.15892793709E+03  0.47000000000E+01 0. -1.
        -11    1    6    6    0    0 -0.17891192590E+02  0.16661306815E+02  0.58058090845E+01  0.25127700576E+02  0.00000000000E+00 0.  1.
         12    1    6    6    0    0 -0.53665115916E+02 -0.43079173135E+02  0.17423251182E+03  0.18733053142E+03  0.00000000000E+00 0. -1.
         -5    1    3    3    0  503  0.32834164807E+02 -0.44012078184E+02  0.18600851658E+02  0.58165514586E+02  0.47000000000E+01 0.  1.
         13    1    4    4    0    0 -0.37735112948E+02  0.49843135302E+01  0.40733089019E+02  0.55749140546E+02  0.00000000000E+00 0. -1.
        -14    1    4    4    0    0  0.19493305012E+02  0.60534325967E+02  0.11771166459E+03  0.13379248686E+03  0.00000000000E+00 0.  1.
</event>
<event>
12    1  0.8494789E-002  0.2172686E+03  0.7818608E-02  0.1136069E+00
         21   -1    0    0  501  502  0.00000000000E+00  0.00000000000E+00  0.66213458473E+02  0.66213458473E+02  0.00000000000E+00 0.  1.
         21   -1    0    0  502  503 -0.00000000000E+00 -0.00000000000E+00 -0.12850089074E+04  0.12850089074E+04  0.00000000000E+00 0. -1.
         -6    2    1    2    0  503  0.67564421225E+02  0.11515997075E+03 -0.10616302420E+04  0.10836348216E+04  0.17140270074E+03 0.  0.
        -24    2    3    3    0    0  0.81681165326E+02  0.14480851794E+02 -0.50292724950E+03  0.51573809563E+03  0.78539526075E+02 0.  0.
          6    2    1    2  501    0 -0.67564421225E+02 -0.11515997075E+03 -0.15716520691E+03  0.26758754433E+03  0.17051516571E+03 0.  0.
         24    2    5    5    0    0 -0.10342751721E+03 -0.12267165002E+03 -0.12084647422E+03  0.21578284065E+03  0.78821183411E+02 0.  0.
          5    1    5    5  501    0  0.35863095983E+02  0.75116792685E+01 -0.36318732693E+02  0.51804703680E+02  0.47000000000E+01 0. -1.
        -11    1    6    6    0    0 -0.45983115041E+02 -0.10935316748E+03 -0.92087851019E+02  0.15017567850E+03  0.00000000000E+00 0.  1.
         12    1    6    6    0    0 -0.57444402167E+02 -0.13318482537E+02 -0.28758623203E+02  0.65607162155E+02  0.00000000000E+00 0. -1.
         -5    1    3    3    0  503 -0.14116744101E+02  0.10067911896E+03 -0.55870299254E+03  0.56789672594E+03  0.47000000000E+01 0.  1.
         11    1    4    4    0    0  0.19326494688E+02 -0.31183014798E+02 -0.17864098529E+03  0.18236911864E+03  0.00000000000E+00 0. -1.
        -12    1    4    4    0    0  0.62354670638E+02  0.45663866592E+02 -0.32428626421E+03  0.33336897699E+03  0.00000000000E+00 0.  1.
</event>
<event>
12    1  0.8494789E-002  0.1805376E+03  0.7818608E-02  0.1170802E+00
         21   -1    0    0  503  502  0.00000000000E+00  0.00000000000E+00  0.43217098071E+03  0.43217098071E+03  0.00000000000E+00 0.  1.
         21   -1    0    0  501  503 -0.00000000000E+00 -0.00000000000E+00 -0.13036435209E+03  0.13036435209E+03  0.00000000000E+00 0.  1.
          6    2    1    2  501    0  0.20059656908E+02  0.32742800516E+02 -0.44147422693E+02  0.17230715400E+03  0.16206874951E+03 0.  0.
         24    2    3    3    0    0 -0.10646030797E+02  0.55893563825E+02  0.18992786368E+02  0.98228998657E+02  0.77786771334E+02 0.  0.
         -6    2    1    2    0  502 -0.20059656908E+02 -0.32742800516E+02  0.34595405132E+03  0.39022817880E+03  0.17640676033E+03 0.  0.
        -24    2    5    5    0    0  0.50696288385E+02  0.17907714790E+02  0.18480847911E+03  0.20702920518E+03  0.76263477112E+02 0.  0.
          5    1    3    3  501    0  0.30705687705E+02 -0.23150763309E+02 -0.63140209060E+02  0.74078155345E+02  0.47000000000E+01 0. -1.
        -11    1    4    4    0    0  0.16300293428E+02  0.34779648376E+02 -0.22439167262E+02  0.44484151496E+02  0.00000000000E+00 0.  1.
         12    1    4    4    0    0 -0.26946324225E+02  0.21113915449E+02  0.41431953629E+02  0.53744847161E+02  0.00000000000E+00 0. -1.
         -5    1    5    5    0  502 -0.70755945292E+02 -0.50650515306E+02  0.16114557221E+03  0.18319897362E+03  0.47000000000E+01 0.  1.
         11    1    6    6    0    0  0.13136130014E+02 -0.29807921893E+02  0.66087282925E+02  0.73679027435E+02  0.00000000000E+00 0. -1.
        -12    1    6    6    0    0  0.37560158371E+02  0.47715636683E+02  0.11872119618E+03  0.13335017774E+03  0.00000000000E+00 0.  1.
</event>
<event>
12    1  0.8494789E-002  0.1830548E+03  0.7818608E-02  0.1164914E+00
         21   -1    0    0  503  502  0.00000000000E+00  0.00000000000E+00  0.46888717405E+03  0.46888717405E+03  0.00000000000E+00 0. -1.
         21   -1    0    0  501  503 -0.00000000000E+00 -0.00000000000E+00 -0.16453949367E+03  0.16453949367E+03  0.00000000000E+00 0. -1.
          6    2    1    2  501    0 -0.13862270006E+02 -0.61988005685E+02 -0.86076109038E+02  0.20228237907E+03  0.17168106756E+03 0.  0.
         24    2    3    3    0    0 -0.63131100685E+02 -0.24483926879E+02 -0.91322508822E+02  0.13996393626E+03  0.81640089955E+02 0.  0.
         -6    2    1    2    0  502  0.13862270006E+02  0.61988005685E+02  0.39042378942E+03  0.43114428865E+03  0.17152255512E+03 0.  0.
        -24    2    5    5    0    0  0.52832045258E+02  0.32921252990E+02  0.36170901122E+03  0.37448612082E+03  0.74373462876E+02 0.  0.
          5    1    3    3  501    0  0.49268830679E+02 -0.37504078805E+02  0.52463997840E+01  0.62318442810E+02  0.47000000000E+01 0. -1.
        -11    1    4    4    0    0 -0.47294056809E+02  0.22937689982E+01 -0.42963214686E+01  0.47544164351E+02  0.00000000000E+00 0.  1.
         12    1    4    4    0    0 -0.15837043876E+02 -0.26777695877E+02 -0.87026187354E+02  0.92419771914E+02  0.00000000000E+00 0. -1.
         -5    1    5    5    0  502 -0.38969775253E+02  0.29066752694E+02  0.28714778194E+02  0.56658167833E+02  0.47000000000E+01 0.  1.
         11    1    6    6    0    0  0.17176825948E+02  0.11498834629E+02  0.29598093669E+03  0.29670183928E+03  0.00000000000E+00 0. -1.
        -12    1    6    6    0    0  0.35655219310E+02  0.21422418362E+02  0.65728074529E+02  0.77784281534E+02  0.00000000000E+00 0.  1.
</event>
<event>
12    1  0.8494789E-002  0.1746397E+03  0.7818608E-02  0.1173105E+00
         21   -1    0    0  503  502  0.00000000000E+00  0.00000000000E+00  0.22912556634E+03  0.22912556634E+03  0.00000000000E+00 0.  1.
         21   -1    0    0  501  503 -0.00000000000E+00 -0.00000000000E+00 -0.20477029111E+03  0.20477029111E+03  0.00000000000E+00 0.  1.
          6    2    1    2  501    0 -0.28461052362E+01 -0.28053008832E+02 -0.11619187458E+03  0.20976075822E+03  0.17234834595E+03 0.  0.
         24    2    3    3    0    0 -0.64824503253E+02 -0.23149351191E+02 -0.94072422305E+02  0.14360391543E+03  0.83871062980E+02 0.  0.
         -6    2    1    2    0  502  0.28461052362E+01  0.28053008832E+02  0.14054714981E+03  0.22413509924E+03  0.17230197263E+03 0.  0.
        -24    2    5    5    0    0  0.29805543497E+02 -0.13067696063E+02  0.15101811686E+03  0.17364297279E+03  0.79286034553E+02 0.  0.
          5    1    3    3  501    0  0.61978398017E+02 -0.49036576410E+01 -0.22119452278E+02  0.66156842791E+02  0.47000000000E+01 0. -1.
        -11    1    4    4    0    0 -0.46738292927E+02 -0.16576898932E+02 -0.10866984059E+03  0.11945039078E+03  0.00000000000E+00 0.  1.
         12    1    4    4    0    0 -0.18086210326E+02 -0.65724522591E+01  0.14597418280E+02  0.24153524652E+02  0.00000000000E+00 0. -1.
         -5    1    5    5    0  502 -0.26959438261E+02  0.41120704895E+02 -0.10470967049E+02  0.50492126449E+02  0.47000000000E+01 0.  1.
         11    1    6    6    0    0  0.37943444635E+02  0.22074568794E+02  0.50844806563E+02  0.67172806497E+02  0.00000000000E+00 0. -1.
        -12    1    6    6    0    0 -0.81379011378E+01 -0.35142264858E+02  0.10017331030E+03  0.10647016629E+03  0.00000000000E+00 0.  1.
</event>
<event>
12    1  0.8494789E-002  0.1789865E+03  0.7818608E-02  0.1169450E+00
         21   -1    0    0  501  502  0.00000000000E+00  0.00000000000E+00  0.32915171304E+03  0.32915171304E+03  0.00000000000E+00 0. -1.
         21   -1    0    0  502  503 -0.00000000000E+00 -0.00000000000E+00 -0.10289329838E+03  0.10289329838E+03  0.00000000000E+00 0. -1.
         -6    2    1    2    0  503  0.15689967667E+02  0.44044188778E+02  0.55892711126E+02  0.18494047819E+03  0.16997917421E+03 0.  0.
        -24    2    3    3    0    0 -0.47932114557E+02  0.54978075726E+02  0.14676401925E+02  0.10820591379E+03  0.78568737985E+02 0.  0.
          6    2    1    2  501    0 -0.15689967667E+02 -0.44044188778E+02  0.17036570353E+03  0.24710453323E+03  0.17277184884E+03 0.  0.
         24    2    5    5    0    0 -0.25131440715E+02 -0.41674739678E+02  0.14961777966E+02  0.91325119368E+02  0.75815891396E+02 0.  0.
          5    1    5    5  501    0  0.94414730480E+01 -0.23694491006E+01  0.15540392556E+03  0.15577941386E+03  0.47000000000E+01 0. -1.
        -13    1    6    6    0    0  0.18502667516E+02  0.75645876302E+01  0.15877580882E+02  0.25527813574E+02  0.00000000000E+00 0.  1.
         14    1    6    6    0    0 -0.43634108230E+02 -0.49239327308E+02 -0.91580291635E+00  0.65797305794E+02  0.00000000000E+00 0. -1.
         -5    1    3    3    0  503  0.63622082224E+02 -0.10933886948E+02  0.41216309201E+02  0.76734564405E+02  0.47000000000E+01 0.  1.
         11    1    4    4    0    0 -0.31769285538E+02  0.63272857658E+02  0.36626075240E+02  0.79713307592E+02  0.00000000000E+00 0. -1.
        -12    1    4    4    0    0 -0.16162829019E+02 -0.82947819314E+01 -0.21949673315E+02  0.28492606196E+02  0.00000000000E+00 0.  1.
</event>
<event>
12    1  0.8494789E-002  0.2369553E+03  0.7818608E-02  0.1123159E+00
         21   -1    0    0  501  502  0.00000000000E+00  0.00000000000E+00  0.75455325635E+03  0.75455325635E+03  0.00000000000E+00 0. -1.
         21   -1    0    0  502  503 -0.00000000000E+00 -0.00000000000E+00 -0.15556822844E+03  0.15556822844E+03  0.00000000000E+00 0. -1.
         -6    2    1    2    0  503 -0.14231624182E+03 -0.74983325241E+02 -0.36243528964E+02  0.23213686271E+03  0.16339375107E+03 0.  0.
        -24    2    3    3    0    0 -0.13730483953E+03 -0.85712898715E+02 -0.71379071032E+02  0.19476261736E+03  0.81475059819E+02 0.  0.
          6    2    1    2  501    0  0.14231624182E+03  0.74983325241E+02  0.63522855687E+03  0.67798462208E+03  0.17398682870E+03 0.  0.
         24    2    5    5    0    0  0.15336827666E+03  0.84466511060E+02  0.63405623414E+03  0.66263722399E+03  0.80027262802E+02 0.  0.
          5    1    5    5  501    0 -0.11052034844E+02 -0.94831858181E+01  0.11723227322E+01  0.15347398087E+02  0.47000000000E+01 0. -1.
        -11    1    6    6    0    0  0.15753035554E+01 -0.12252691112E+02  0.48059219733E+02  0.49621554007E+02  0.00000000000E+00 0.  1.
         12    1    6    6    0    0  0.15179297310E+03  0.96719202171E+02  0.58599701441E+03  0.61301566998E+03  0.00000000000E+00 0. -1.
         -5    1    3    3    0  503 -0.50114022822E+01  0.10729573473E+02  0.35135542067E+02  0.37374245359E+02  0.47000000000E+01 0.  1.
         13    1    4    4    0    0 -0.13492157631E+03 -0.47676116184E+02 -0.55947511710E+02  0.15364559178E+03  0.00000000000E+00 0. -1.
        -14    1    4    4    0    0 -0.23832632263E+01 -0.38036782531E+02 -0.15431559321E+02  0.41117025574E+02  0.00000000000E+00 0.  1.
</event>
<event>
12    1  0.8494789E-002  0.1891428E+03  0.7818608E-02  0.1161791E+00
         21   -1    0    0  501  502  0.00000000000E+00  0.00000000000E+00  0.40911522997E+02  0.40911522997E+02  0.00000000000E+00 0. -1.
         21   -1    0    0  502  503 -0.00000000000E+00 -0.00000000000E+00 -0.89654497533E+03  0.89654497533E+03  0.00000000000E+00 0. -1.
         -6    2    1    2    0  503 -0.44737238611E+02 -0.24933037240E+01 -0.54873148686E+03  0.57695157539E+03  0.17250866235E+03 0.  0.
        -24    2    3    3    0    0 -0.75478328721E+02 -0.12469514225E+02 -0.22185900019E+03  0.24845157243E+03  0.81573898941E+02 0.  0.
          6    2    1    2  501    0  0.44737238611E+02  0.24933037240E+01 -0.30690196548E+03  0.36050492295E+03  0.18375893440E+03 0.  0.
         24    2    5    5    0    0  0.26966465100E+02 -0.72675543028E+02 -0.17790217257E+03  0.21007489774E+03  0.80457161651E+02 0.  0.
          5    1    5    5  501    0  0.17770773511E+02  0.75168846752E+02 -0.12899979291E+03  0.15043002521E+03  0.47000000000E+01 0. -1.
        -11    1    6    6    0    0 -0.95381362746E+01  0.24529016322E+01 -0.83278341988E+02  0.83858660937E+02  0.00000000000E+00 0.  1.
         12    1    6    6    0    0  0.36504601374E+02 -0.75128444660E+02 -0.94623830582E+02  0.12621623680E+03  0.00000000000E+00 0. -1.
         -5    1    3    3    0  503  0.30741090110E+02  0.99762105008E+01 -0.32687248667E+03  0.32850000295E+03  0.47000000000E+01 0.  1.
         11    1    4    4    0    0 -0.43502977915E+02 -0.31394197544E+02 -0.19593219927E+03  0.20314411495E+03  0.00000000000E+00 0. -1.
        -12    1    4    4    0    0 -0.31975350806E+02  0.18924683319E+02 -0.25926800916E+02  0.45307457484E+02  0.00000000000E+00 0.  1.
</event>
<event>
12    1  0.8494789E-002  0.2335253E+03  0.7818608E-02  0.1124360E+00
         21   -1    0    0  503  502  0.00000000000E+00  0.00000000000E+00  0.27847347995E+02  0.27847347995E+02  0.00000000000E+00 0.  1.
         21   -1    0    0  501  503 -0.00000000000E+00 -0.00000000000E+00 -0.25809559598E+04  0.25809559598E+04  0.00000000000E+00 0.  1.
          6    2    1    2  501    0  0.15574175062E+03 -0.17214676113E+02 -0.19195050170E+04  0.19335347864E+04  0.17177142385E+03 0.  0.
         24    2    3    3    0    0  0.10909891054E+03  0.45131549071E+02 -0.92924299785E+03  0.94020525253E+03  0.80956400807E+02 0.  0.
         -6    2    1    2    0  502 -0.15574175062E+03  0.17214676113E+02 -0.63360359480E+03  0.67526852137E+03  0.17315375436E+03 0.  0.
        -24    2    5    5    0    0 -0.69681260046E+02 -0.14474772937E+02 -0.15408407245E+03  0.18703528660E+03  0.78583077041E+02 0.  0.
          5    1    3    3  501    0  0.46642840072E+02 -0.62346225184E+02 -0.99026201912E+03  0.99332953386E+03  0.47000000000E+01 0. -1.
        -11    1    4    4    0    0  0.42123649276E+02  0.81272027630E+01 -0.62560537550E+03  0.62707458816E+03  0.00000000000E+00 0.  1.
         12    1    4    4    0    0  0.66975261269E+02  0.37004346308E+02 -0.30363762234E+03  0.31313066437E+03  0.00000000000E+00 0. -1.
         -5    1    5    5    0  502 -0.86060490571E+02  0.31689449050E+02 -0.47951952235E+03  0.48823323477E+03  0.47000000000E+01 0.  1.
         13    1    6    6    0    0  0.32264397317E+00 -0.82080485535E+01 -0.94606625306E+02  0.94962570058E+02  0.00000000000E+00 0. -1.
        -14    1    6    6    0    0 -0.70003904019E+02 -0.62667243835E+01 -0.59477447141E+02  0.92072716539E+02  0.00000000000E+00 0.  1.
</event>
<event>
12    1  0.8494789E-002  0.2302155E+03  0.7818608E-02  0.1126562E+00
         21   -1    0    0  501  502  0.00000000000E+00  0.00000000000E+00  0.19508928966E+03  0.19508928966E+03  0.00000000000E+00 0.  1.
         21   -1    0    0  502  503 -0.00000000000E+00 -0.00000000000E+00 -0.36415230756E+03  0.36415230756E+03  0.00000000000E+00 0.  1.
         -6    2    1    2    0  503  0.68564347214E+02  0.13770745190E+03 -0.22576676846E+03  0.32214568023E+03  0.17071260508E+03 0.  0.
        -24    2    3    3    0    0  0.10608930784E+03  0.87166959453E+02 -0.18296915973E+03  0.24588173488E+03  0.90150396995E+02 0.  0.
          6    2    1    2  501    0 -0.68564347214E+02 -0.13770745190E+03  0.56703750559E+02  0.23709591699E+03  0.17127389324E+03 0.  0.
         24    2    5    5    0    0  0.53390959729E+01 -0.40306585951E+02  0.70640616904E+02  0.11394976867E+03  0.79632444427E+02 0.  0.
          5    1    5    5  501    0 -0.73903443187E+02 -0.97400865952E+02 -0.13936866346E+02  0.12314614832E+03  0.47000000000E+01 0. -1.
        -11    1    6    6    0    0  0.33963702136E+02 -0.47858287252E+02  0.38153485561E+02  0.69997408394E+02  0.00000000000E+00 0.  1.
         12    1    6    6    0    0 -0.28624606163E+02  0.75517013006E+01  0.32487131343E+02  0.43952360271E+02  0.00000000000E+00 0. -1.
         -5    1    3    3    0  503 -0.37524960628E+02  0.50540492451E+02 -0.42797608725E+02  0.76263945347E+02  0.47000000000E+01 0.  1.
         13    1    4    4    0    0  0.39662017468E+02  0.68660986569E+02 -0.43849865168E+02  0.90610249870E+02  0.00000000000E+00 0. -1.
        -14    1    4    4    0    0  0.66427290375E+02  0.18505972884E+02 -0.13911929456E+03  0.15527148502E+03  0.00000000000E+00 0.  1.
</event>
<event>
12    1  0.8494789E-002  0.2122966E+03  0.7818608E-02  0.1140593E+00
         21   -1    0    0  501  502  0.00000000000E+00  0.00000000000E+00  0.20234912355E+03  0.20234912355E+03  0.00000000000E+00 0.  1.
         21   -1    0    0  502  503 -0.00000000000E+00 -0.00000000000E+00 -0.21857908736E+03  0.21857908736E+03  0.00000000000E+00 0. -1.
         -6    2    1    2    0  503  0.10895779395E+03 -0.41552878020E+02 -0.15163500367E+02  0.20862896394E+03  0.17233012017E+03 0.  0.
        -24    2    3    3    0    0  0.14105807270E+03 -0.49824471681E+02 -0.18647229003E+02  0.17496780646E+03  0.88804033114E+02 0.  0.
          6    2    1    2  501    0 -0.10895779395E+03  0.41552878020E+02 -0.10664634461E+01  0.21229924697E+03  0.17740177672E+03 0.  0.
         24    2    5    5    0    0 -0.93239798874E+02  0.50536619716E+02  0.62036298477E+02  0.14648274792E+03  0.79756398388E+02 0.  0.
          5    1    5    5  501    0 -0.15717995077E+02 -0.89837416960E+01 -0.63102761924E+02  0.65816499045E+02  0.47000000000E+01 0. -1.
        -13    1    6    6    0    0 -0.43763327122E+00  0.34685243866E+02  0.33209418028E+02  0.48022110644E+02  0.00000000000E+00 0.  1.
         14    1    6    6    0    0 -0.92802165602E+02  0.15851375849E+02  0.28826880449E+02  0.98460637278E+02  0.00000000000E+00 0. -1.
         -5    1    3    3    0  503 -0.32100278748E+02  0.82715936613E+01  0.34837286361E+01  0.33661157476E+02  0.47000000000E+01 0.  1.
         11    1    4    4    0    0  0.29420062649E+02 -0.16070238471E+02 -0.44296368733E+02  0.55551426028E+02  0.00000000000E+00 0. -1.
        -12    1    4    4    0    0  0.11163801005E+03 -0.33754233210E+02  0.25649139730E+02  0.11941638044E+03  0.00000000000E+00 0.  1.
</event>
<event>
12    1  0.8494789E-002  0.2113483E+03  0.7818608E-02  0.1141108E+00
         21   -1    0    0  503  502  0.00000000000E+00  0.00000000000E+00  0.16043787469E+03  0.16043787469E+03  0.00000000000E+00 0.  1.
         21   -1    0    0  501  503 -0.00000000000E+00 -0.00000000000E+00 -0.46386892584E+03  0.46386892584E+03  0.00000000000E+00 0. -1.
          6    2    1    2  501    0  0.12119195464E+02 -0.12768885856E+03 -0.35055650111E+03  0.40776836099E+03  0.16411537482E+03 0.  0.
         24    2    3    3    0    0 -0.39126402473E+02 -0.12297016911E+03 -0.24474281485E+03  0.29001011908E+03  0.86915394983E+02 0.  0.
         -6    2    1    2    0  502 -0.12119195464E+02  0.12768885856E+03  0.47125449961E+02  0.21653843954E+03  0.16797847561E+03 0.  0.
        -24    2    5    5    0    0 -0.36028287063E+02  0.14827630173E+03  0.60900980022E+02  0.18179160219E+03  0.77816181717E+02 0.  0.
          5    1    3    3  501    0  0.51245597937E+02 -0.47186894530E+01 -0.10581368626E+03  0.11775824191E+03  0.47000000000E+01 0. -1.
        -13    1    4    4    0    0 -0.15869526835E+02 -0.12712598297E+02  0.26116332752E+00  0.20335197164E+02  0.00000000000E+00 0.  1.
         14    1    4    4    0    0 -0.23256875638E+02 -0.11025757081E+03 -0.24500397818E+03  0.26967492191E+03  0.00000000000E+00 0. -1.
         -5    1    5    5    0  502  0.23909091600E+02 -0.20587443169E+02 -0.13775530061E+02  0.34746837350E+02  0.47000000000E+01 0.  1.
         11    1    6    6    0    0 -0.34366360209E+01  0.94101602221E+02  0.22663326515E+00  0.94164607843E+02  0.00000000000E+00 0. -1.
        -12    1    6    6    0    0 -0.32591651043E+02  0.54174699511E+02  0.60674346757E+02  0.87626994352E+02  0.00000000000E+00 0.  1.
</event>
<event>
12    1  0.8494789E-002  0.1845708E+03  0.7818608E-02  0.1163837E+00
         21   -1    0    0  503  502  0.00000000000E+00  0.00000000000E+00  0.48830181402E+02  0.48830181402E+02  0.00000000000E+00 0. -1.
         21   -1    0    0  501  503 -0.00000000000E+00 -0.00000000000E+00 -0.10182560967E+04  0.10182560967E+04  0.00000000000E+00 0.  1.
          6    2    1    2  501    0  0.58101487749E+02  0.25743117039E+02 -0.78843606272E+03  0.80975170009E+03  0.17328560198E+03 0.  0.
         24    2    3    3    0    0  0.43771264352E+02  0.25353001589E+02 -0.78887214645E+03  0.79465906409E+03  0.81271559714E+02 0.  0.
         -6    2    1    2    0  502 -0.58101487749E+02 -0.25743117039E+02 -0.18098985253E+03  0.25733457796E+03  0.17153794724E+03 0.  0.
        -24    2    5    5    0    0  0.17219490160E+02  0.31911753474E+01 -0.28995839813E+02  0.85187219891E+02  0.78162710193E+02 0.  0.
          5    1    3    3  501    0  0.14330223397E+02  0.39011545049E+00  0.43608372712E+00  0.15092636009E+02  0.47000000000E+01 0. -1.
        -13    1    4    4    0    0 -0.17036209153E+02 -0.31733730293E+01 -0.37262350856E+03  0.37302624820E+03  0.00000000000E+00 0.  1.
         14    1    4    4    0    0  0.60807473504E+02  0.28526374618E+02 -0.41624863789E+03  0.42163281588E+03  0.00000000000E+00 0. -1.
         -5    1    5    5    0  502 -0.75320977909E+02 -0.28934292387E+02 -0.15199401272E+03  0.17214735807E+03  0.47000000000E+01 0.  1.
         13    1    6    6    0    0  0.98397216902E+01 -0.37386583980E+02 -0.11044099462E+02  0.40206329322E+02  0.00000000000E+00 0. -1.
        -14    1    6    6    0    0  0.73797684694E+01  0.40577759328E+02 -0.17951740350E+02  0.44980890568E+02  0.00000000000E+00 0.  1.
</event>
<event>
12    1  0.8494789E-002  0.2525023E+03  0.7818608E-02  0.1111792E+00
         21   -1    0    0  503  502  0.00000000000E+00  0.00000000000E+00  0.30516196603E+03  0.30516196603E+03  0.00000000000E+00 0.  1.
         21   -1    0    0  501  503 -0.00000000000E+00 -0.00000000000E+00 -0.45378721170E+03  0.45378721170E+03  0.00000000000E+00 0. -1.
          6    2    1    2  501    0  0.17113365854E+03 -0.65940148344E+02 -0.35326165853E+03  0.43422483077E+03  0.17355855502E+03 0.  0.
         24    2    3    3    0    0  0.12966819440E+02 -0.22399764139E+02 -0.85689147312E+02  0.12033049695E+03  0.80417104450E+02 0.  0.
         -6    2    1    2    0  502 -0.17113365854E+03  0.65940148344E+02  0.20463641286E+03  0.32472434696E+03  0.17301736269E+03 0.  0.
        -24    2    5    5    0    0 -0.14307987535E+03  0.62362104146E+02  0.22801723736E+03  0.28773015679E+03  0.80224060159E+02 0.  0.
          5    1    3    3  501    0  0.15816683910E+03 -0.43540384205E+02 -0.26757251121E+03  0.31389433382E+03  0.47000000000E+01 0. -1.
        -11    1    4    4    0    0  0.13893015711E+02  0.10147225200E+02  0.95516159803E+01  0.19677790339E+02  0.00000000000E+00 0.  1.
         12    1    4    4    0    0 -0.92619627009E+00 -0.32546989339E+02 -0.95240763293E+02  0.10065270661E+03  0.00000000000E+00 0. -1.
         -5    1    5    5    0  502 -0.28053783193E+02  0.35780441982E+01 -0.23380824505E+02  0.36994190169E+02  0.47000000000E+01 0.  1.
         13    1    6    6    0    0 -0.20122552006E+02 -0.16554920181E+02  0.57840555485E+02  0.63439044289E+02  0.00000000000E+00 0. -1.
        -14    1    6    6    0    0 -0.12295732334E+03  0.78917024326E+02  0.17017668188E+03  0.22429111250E+03  0.00000000000E+00 0.  1.
</event>
<event>
12    1  0.8494789E-002  0.2015021E+03  0.7818608E-02  0.1148635E+00
         21   -1    0    0  501  502  0.00000000000E+00  0.00000000000E+00  0.20014443948E+03  0.20014443948E+03  0.00000000000E+00 0. -1.
         21   -1    0    0  502  503 -0.00000000000E+00 -0.00000000000E+00 -0.56828619992E+03  0.56828619992E+03  0.00000000000E+00 0. -1.
         -6    2    1    2    0  503 -0.46287781665E+02  0.94698239440E+02 -0.49236248280E+03  0.53171587210E+03  0.17085268183E+03 0.  0.
        -24    2    3    3    0    0  0.21747100398E+02  0.94038148016E+01 -0.27937318340E+03  0.29236170833E+03  0.82853031270E+02 0.  0.
          6    2    1    2  501    0  0.46287781665E+02 -0.94698239440E+02  0.12422072236E+03  0.23671476729E+03  0.17173461476E+03 0.  0.
         24    2    5    5    0    0 -0.39460799511E+02 -0.62726767637E+02  0.77656687163E+02  0.13392715346E+03  0.80088196994E+02 0.  0.
          5    1    5    5  501    0  0.85748581176E+02 -0.31971471802E+02  0.46564035196E+02  0.10278761383E+03  0.47000000000E+01 0. -1.
        -13    1    6    6    0    0 -0.27501806102E+02 -0.16525609297E+01  0.64751300758E+02  0.70369107187E+02  0.00000000000E+00 0.  1.
         14    1    6    6    0    0 -0.11958993409E+02 -0.61074206708E+02  0.12905386405E+02  0.63558046277E+02  0.00000000000E+00 0. -1.
         -5    1    3    3    0  503 -0.68034882062E+02  0.85294424638E+02 -0.21298929941E+03  0.23935416377E+03  0.47000000000E+01 0.  1.
         13    1    4    4    0    0  0.43038329674E+01  0.45595783513E+02 -0.13885767360E+03  0.14621543000E+03  0.00000000000E+00 0. -1.
        -14    1    4    4    0    0  0.17443267430E+02 -0.36191968711E+02 -0.14051550980E+03  0.14614627833E+03  0.00000000000E+00 0.  1.
</event>
<event>
12    1  0.8494789E-002  0.2126548E+03  0.7818608E-02  0.1139777E+00
         21   -1    0    0  501  502  0.00000000000E+00  0.00000000000E+00  0.97561950079E+03  0.97561950079E+03  0.00000000000E+00 0.  1.
         21   -1    0    0  502  503 -0.00000000000E+00 -0.00000000000E+00 -0.49607050952E+02  0.49607050952E+02  0.00000000000E+00 0.  1.
         -6    2    1    2    0  503 -0.72466298677E+02  0.99033271897E+02  0.32366380034E+03  0.38644180097E+03  0.17181401717E+03 0.  0.
        -24    2    3    3    0    0 -0.56016070135E+02  0.65835741089E+02  0.32779027292E+03  0.34886782265E+03  0.82402364911E+02 0.  0.
          6    2    1    2  501    0  0.72466298677E+02 -0.99033271897E+02  0.60234864950E+03  0.63878475078E+03  0.17367529728E+03 0.  0.
         24    2    5    5    0    0  0.84902326646E+02 -0.13370155857E+03  0.48003194076E+03  0.51095669388E+03  0.74575914604E+02 0.  0.
          5    1    5    5  501    0 -0.12436027970E+02  0.34668286675E+02  0.12231670874E+03  0.12782805689E+03  0.47000000000E+01 0. -1.
        -13    1    6    6    0    0  0.24804680999E+01 -0.54252122079E+02  0.96832013232E+02  0.11102199898E+03  0.00000000000E+00 0.  1.
         14    1    6    6    0    0  0.82421858546E+02 -0.79449436493E+02  0.38319992753E+03  0.39993469490E+03  0.00000000000E+00 0. -1.
         -5    1    3    3    0  503 -0.16450228541E+02  0.33197530808E+02 -0.41264725754E+01  0.37573978319E+02  0.47000000000E+01 0.  1.
         11    1    4    4    0    0 -0.36709370196E+02 -0.44594934578E+01  0.53365181082E+02  0.64925399452E+02  0.00000000000E+00 0. -1.
        -12    1    4    4    0    0 -0.19306699939E+02  0.70295234547E+02  0.27442509184E+03  0.28394242320E+03  0.00000000000E+00 0.  1.
</event>
<event>
12    1  0.8494789E-002  0.2723743E+03  0.7818608E-02  0.1099956E+00
         21   -1    0    0  501  502  0.00000000000E+00  0.00000000000E+00  0.73470855097E+02  0.73470855097E+02  0.00000000000E+00 0.  1.
         21   -1    0    0  502  503 -0.00000000000E+00 -0.00000000000E+00 -0.11549915233E+04  0.11549915233E+04  0.00000000000E+00 0. -1.
         -6    2    1    2    0  503 -0.94215893963E+02  0.18952230526E+03 -0.75928847398E+03  0.80666396414E+03  0.17144219273E+03 0.  0.
        -24    2    3    3    0    0  0.12891501600E+02  0.11696150999E+03 -0.40432711696E+03  0.42883236385E+03  0.81059195312E+02 0.  0.
          6    2    1    2  501    0  0.94215893963E+02 -0.18952230526E+03 -0.32223219420E+03  0.42179841424E+03  0.17112853769E+03 0.  0.
         24    2    5    5    0    0  0.43192420404E+02 -0.86996913501E+02 -0.24212849993E+03  0.28196443180E+03  0.10697514750E+03 0.  0.
          5    1    5    5  501    0  0.51023473559E+02 -0.10252539176E+03 -0.80103694268E+02  0.13983398244E+03  0.47000000000E+01 0. -1.
        -11    1    6    6    0    0  0.15014761825E+01 -0.69174693587E+02 -0.52130313306E+02  0.86631185084E+02  0.00000000000E+00 0.  1.
         12    1    6    6    0    0  0.41690944221E+02 -0.17822219914E+02 -0.18999818662E+03  0.19533324672E+03  0.00000000000E+00 0. -1.
         -5    1    3    3    0  503 -0.10710739556E+03  0.72560795268E+02 -0.35496135703E+03  0.37783160029E+03  0.47000000000E+01 0.  1.
         13    1    4    4    0    0  0.76931527624E+01 -0.88676152270E+01 -0.80972652333E+02  0.81819249722E+02  0.00000000000E+00 0. -1.
        -14    1    4    4    0    0  0.51983488372E+01  0.12582912522E+03 -0.32335446463E+03  0.34701311413E+03  0.00000000000E+00 0.  1.
</event>
<event>
12    1  0.8494789E-002  0.1741092E+03  0.7818608E-02  0.1173958E+00
         21   -1    0    0  501  502  0.00000000000E+00  0.00000000000E+00  0.25129442368E+03  0.25129442368E+03  0.00000000000E+00 0.  1.
         21   -1    0    0  502  503 -0.00000000000E+00 -0.00000000000E+00 -0.12825283084E+03  0.12825283084E+03  0.00000000000E+00 0.  1.
         -6    2    1    2    0  503 -0.15630923542E+02  0.19902005761E+02  0.12829039216E+02  0.17458120436E+03  0.17226025968E+03 0.  0.
        -24    2    3    3    0    0  0.35842246381E+02  0.11886339173E+02  0.57049078755E+02  0.10608857681E+03  0.81081669060E+02 0.  0.
          6    2    1    2  501    0  0.15630923542E+02 -0.19902005761E+02  0.11021255362E+03  0.20496605016E+03  0.17094987318E+03 0.  0.
         24    2    5    5    0    0 -0.17367620956E+02  0.31977434416E+02  0.99934758170E+01  0.87295604390E+02  0.78717611863E+02 0.  0.
          5    1    5    5  501    0  0.32998544498E+02 -0.51879440178E+02  0.10021907780E+03  0.11767044577E+03  0.47000000000E+01 0. -1.
        -11    1    6    6    0    0  0.97556001111E+01  0.51358725322E+02 -0.71417000423E+00  0.52281932242E+02  0.00000000000E+00 0.  1.
         12    1    6    6    0    0 -0.27123221067E+02 -0.19381290906E+02  0.10707645821E+02  0.35013672147E+02  0.00000000000E+00 0. -1.
         -5    1    3    3    0  503 -0.51473169923E+02  0.80156665885E+01 -0.44220039539E+02  0.68492627556E+02  0.47000000000E+01 0.  1.
         13    1    4    4    0    0  0.19327436526E+02  0.63023633546E+01 -0.19145390671E+02  0.27925178073E+02  0.00000000000E+00 0. -1.
        -14    1    4    4    0    0  0.16514809855E+02  0.55839758184E+01  0.76194469425E+02  0.78163398733E+02  0.00000000000E+00 0.  1.
</event>
<event>
12    1  0.8494789E-002  0.1880857E+03  0.7818608E-02  0.1160279E+00
         21   -1    0    0  501  502  0.00000000000E+00  0.00000000000E+00  0.85510614306E+03  0.85510614306E+03  0.00000000000E+00 0.  1.
         21   -1    0    0  502  503 -0.00000000000E+00 -0.00000000000E+00 -0.47133345234E+02  0.47133345234E+02  0.00000000000E+00 0.  1.
         -6    2    1    2    0  503 -0.25878027880E+02 -0.70858503854E+02  0.24552936838E+03  0.30929093551E+03  0.17229513097E+03 0.  0.
        -24    2    3    3    0    0 -0.45809636337E+02 -0.13400259123E+02  0.22690186376E+03  0.24551168472E+03  0.80705897130E+02 0.  0.
          6    2    1    2  501    0  0.25878027880E+02  0.70858503854E+02  0.56244342944E+03  0.59294855278E+03  0.17191502269E+03 0.  0.
         24    2    5    5    0    0  0.65274457158E+02  0.47259644619E+02  0.51278710182E+03  0.52514865846E+03  0.79600709305E+02 0.  0.
          5    1    5    5  501    0 -0.39396429277E+02  0.23598859236E+02  0.49656327618E+02  0.67799894318E+02  0.47000000000E+01 0. -1.
        -11    1    6    6    0    0  0.18995427836E+01  0.48054014062E+02  0.17613586594E+03  0.18258324075E+03  0.00000000000E+00 0.  1.
         12    1    6    6    0    0  0.63374914374E+02 -0.79436944314E+00  0.33665123588E+03  0.34256541771E+03  0.00000000000E+00 0. -1.
         -5    1    3    3    0  503  0.19931608457E+02 -0.57458244731E+02  0.18627504629E+02  0.63779250795E+02  0.47000000000E+01 0.  1.
         11    1    4    4    0    0  0.22148934357E+02  0.21306346594E+01  0.36477087336E+02  0.42728126541E+02  0.00000000000E+00 0. -1.
        -12    1    4    4    0    0 -0.67958570695E+02 -0.15530893782E+02  0.19042477642E+03  0.20278355818E+03  0.00000000000E+00 0.  1.
</event>
<event>
12    1  0.8494789E-002  0.2144448E+03  0.7818608E-02  0.1140004E+00
         21   -1    0    0  501  502  0.00000000000E+00  0.00000000000E+00  0.68828789265E+03  0.68828789265E+03  0.00000000000E+00 0. -1.
         21   -1    0    0  502  503 -0.00000000000E+00 -0.00000000000E+00 -0.72069048235E+02  0.72069048235E+02  0.00000000000E+00 0.  1.
         -6    2    1    2    0  503 -0.10687070302E+03  0.25514127895E+01  0.44288821269E+03  0.49207373531E+03  0.18589979873E+03 0.  0.
        -24    2    3    3    0    0 -0.61570514363E+02  0.66589055954E+01  0.89184110544E+02  0.13542592519E+03  0.80938905210E+02 0.  0.
          6    2    1    2  501    0  0.10687070302E+03 -0.25514127895E+01  0.17333063172E+03  0.26828320557E+03  0.17465541397E+03 0.  0.
         24    2    5    5    0    0  0.26604574709E+01  0.39811082720E+02  0.94852844628E+02  0.13104177826E+03  0.81134981204E+02 0.  0.
          5    1    5    5  501    0  0.10421024555E+03 -0.42362495510E+02  0.78477787091E+02  0.13724142731E+03  0.47000000000E+01 0. -1.
        -11    1    6    6    0    0 -0.71805206258E+00 -0.19041777557E+02 -0.35819119434E+00  0.19058677610E+02  0.00000000000E+00 0.  1.
         12    1    6    6    0    0  0.33785095334E+01  0.58852860278E+02  0.95211035822E+02  0.11198310065E+03  0.00000000000E+00 0. -1.
         -5    1    3    3    0  503 -0.45300188657E+02 -0.41074928059E+01  0.35370410215E+03  0.35664781012E+03  0.47000000000E+01 0.  1.
         11    1    4    4    0    0  0.42518999701E+01 -0.17642718232E+02  0.53930795997E+02  0.56902327869E+02  0.00000000000E+00 0. -1.
        -12    1    4    4    0    0 -0.65822414333E+02  0.24301623828E+02  0.35253314547E+02  0.78523597318E+02  0.00000000000E+00 0.  1.
</event>
<event>
12    1  0.8494789E-002  0.2197004E+03  0.7818608E-02  0.1134195E+00
         21   -1    0    0  503  502  0.00000000000E+00  0.00000000000E+00  0.26239736716E+03  0.26239736716E+03  0.00000000000E+00 0.  1.
         21   -1    0    0  501  503 -0.00000000000E+00 -0.00000000000E+00 -0.26603125582E+03  0.26603125582E+03  0.00000000000E+00 0. -1.
          6    2    1    2  501    0 -0.11469190326E+03  0.71846116364E+02 -0.14893076917E+03  0.26542166342E+03  0.17306700522E+03 0.  0.
         24    2    3    3    0    0 -0.74162958929E+02  0.62093902201E+02 -0.17674121242E+02  0.12762435345E+03  0.81362177113E+02 0.  0.
         -6    2    1    2    0  502  0.11469190326E+03 -0.71846116364E+02  0.14529688051E+03  0.26300695957E+03  0.17246849041E+03 0.  0.
        -24    2    5    5    0    0  0.34863003545E+01 -0.68754163745E+02  0.51208792976E+02  0.11723005981E+03  0.79882771118E+02 0.  0.
          5    1    3    3  501    0 -0.40528944329E+02  0.97522141633E+01 -0.13125664792E+03  0.13779730997E+03  0.47000000000E+01 0. -1.
        -13    1    4    4    0    0  0.14154420764E+02  0.25058939029E+02  0.49933171067E+01  0.29210122700E+02  0.00000000000E+00 0.  1.
         14    1    4    4    0    0 -0.88317379693E+02  0.37034963171E+02 -0.22667438349E+02  0.98414230751E+02  0.00000000000E+00 0. -1.
         -5    1    5    5    0  502  0.11120560290E+03 -0.30919526194E+01  0.94088087535E+02  0.14577689976E+03  0.47000000000E+01 0.  1.
         11    1    6    6    0    0  0.22960644093E+02  0.25770547992E+01 -0.58483971936E+01  0.23833508729E+02  0.00000000000E+00 0. -1.
        -12    1    6    6    0    0 -0.19474343738E+02 -0.71331218544E+02  0.57057190170E+02  0.93396551077E+02  0.00000000000E+00 0.  1.
</event>
<event>
12    1  0.8494789E-002  0.1735312E+03  0.7818608E-02  0.1174540E+00
         21   -1    0    0  503  502  0.00000000000E+00  0.00000000000E+00  0.27888417070E+03  0.27888417070E+03  0.00000000000E+00 0. -1.
         21   -1    0    0  501  503 -0.00000000000E+00 -0.00000000000E+00 -0.41012607087E+03  0.41012607087E+03  0.00000000000E+00 0. -1.
          6    2    1    2  501    0  0.26388185754E+01 -0.14468895232E+02 -0.36176877010E+03  0.40123524977E+03  0.17290682561E+03 0.  0.
         24    2    3    3    0    0  0.55385505443E+02 -0.30114792468E+02 -0.11967480657E+03  0.15292378355E+03  0.71338413981E+02 0.  0.
         -6    2    1    2    0  502 -0.26388185754E+01  0.14468895232E+02  0.23052686993E+03  0.28777499181E+03  0.17162603491E+03 0.  0.
        -24    2    5    5    0    0 -0.21334587170E+02  0.70211410182E+02  0.15584129911E+03  0.19260785344E+03  0.86176957298E+02 0.  0.
          5    1    3    3  501    0 -0.52746686868E+02  0.15645897236E+02 -0.24209396353E+03  0.24831146622E+03  0.47000000000E+01 0. -1.
        -13    1    4    4    0    0  0.13728413829E+02 -0.21952190172E+00  0.76111143342E+01  0.15698617695E+02  0.00000000000E+00 0.  1.
         14    1    4    4    0    0  0.41657091615E+02 -0.29895270566E+02 -0.12728592090E+03  0.13722516585E+03  0.00000000000E+00 0. -1.
         -5    1    5    5    0  502  0.18695768595E+02 -0.55742514950E+02  0.74685570818E+02  0.95167138365E+02  0.47000000000E+01 0.  1.
         11    1    6    6    0    0  0.11273130722E+02 -0.11940383662E+02  0.39782176509E+01  0.16896226027E+02  0.00000000000E+00 0. -1.
        -12    1    6    6    0    0 -0.32607717892E+02  0.82151793844E+02  0.15186308146E+03  0.17571162741E+03  0.00000000000E+00 0.  1.
</event>
<event>
12    1  0.8494789E-002  0.1969220E+03  0.7818608E-02  0.1155746E+00
         21   -1    0    0  501  502  0.00000000000E+00  0.00000000000E+00  0.93769211243E+02  0.93769211243E+02  0.00000000000E+00 0.  1.
         21   -1    0    0  502  503 -0.00000000000E+00 -0.00000000000E+00 -0.43783800688E+03  0.43783800688E+03  0.00000000000E+00 0. -1.
         -6    2    1    2    0  503  0.70128758679E+02 -0.63049429839E+02 -0.26047781441E+03  0.31767799286E+03  0.15549064908E+03 0.  0.
        -24    2    3    3    0    0  0.85588726728E+02 -0.90333183416E+02 -0.23305576821E+03  0.27575577394E+03  0.78998364524E+02 0.  0.
          6    2    1    2  501    0 -0.70128758679E+02  0.63049429839E+02 -0.83590981229E+02  0.21392922526E+03  0.17287275055E+03 0.  0.
         24    2    5    5    0    0 -0.17524909243E+02 -0.76117046333E+01  0.92744055979E+01  0.85842414971E+02  0.83173584253E+02 0.  0.
          5    1    5    5  501    0 -0.52603849436E+02  0.70661134473E+02 -0.92865386827E+02  0.12808681029E+03  0.47000000000E+01 0. -1.
        -11    1    6    6    0    0 -0.66494100589E+01 -0.44755558890E+02  0.12678997763E+02  0.46989697700E+02  0.00000000000E+00 0.  1.
         12    1    6    6    0    0 -0.10875499185E+02  0.37143854256E+02 -0.34045921650E+01  0.38852717271E+02  0.00000000000E+00 0. -1.
         -5    1    3    3    0  503 -0.15459968049E+02  0.27283753577E+02 -0.27422046199E+02  0.41922218919E+02  0.47000000000E+01 0.  1.
         13    1    4    4    0    0  0.42380098435E+01 -0.54829161758E+02 -0.12015363868E+03  0.13214043512E+03  0.00000000000E+00 0. -1.
        -14    1    4    4    0    0  0.81350716885E+02 -0.35504021658E+02 -0.11290212953E+03  0.14361533881E+03  0.00000000000E+00 0.  1.
</event>
<event>
12    1  0.8494789E-002  0.1941868E+03  0.7818608E-02  0.1155496E+00
         21   -1    0    0  503  502  0.00000000000E+00  0.00000000000E+00  0.14883327497E+03  0.14883327497E+03  0.00000000000E+00 0. -1.
         21   -1    0    0  501  503 -0.00000000000E+00 -0.00000000000E+00 -0.25880633964E+03  0.25880633964E+03  0.00000000000E+00 0. -1.
          6    2    1    2  501    0  0.73087430171E+02  0.59177625567E+02 -0.94361326789E+02  0.21282631570E+03  0.16597354261E+03 0.  0.
         24    2    3    3    0    0 -0.11095784050E+02  0.62217166577E+01 -0.95886307652E+01  0.82060716876E+02  0.80499647406E+02 0.  0.
         -6    2    1    2    0  502 -0.73087430171E+02 -0.59177625567E+02 -0.15611737882E+02  0.19481329892E+03  0.16989623674E+03 0.  0.
        -24    2    5    5    0    0 -0.10481216222E+03 -0.70533476273E+02 -0.41410054464E+02  0.15211602609E+03  0.73918415558E+02 0.  0.
          5    1    3    3  501    0  0.84183214221E+02  0.52955908910E+02 -0.84772696024E+02  0.13076559883E+03  0.47000000000E+01 0. -1.
        -11    1    4    4    0    0 -0.11101917548E+02 -0.18953992362E+02 -0.38128725773E+02  0.44003478599E+02  0.00000000000E+00 0.  1.
         12    1    4    4    0    0  0.61334982155E-02  0.25175709020E+02  0.28540095008E+02  0.38057238278E+02  0.00000000000E+00 0. -1.
         -5    1    5    5    0  502  0.31724732044E+02  0.11355850705E+02  0.25798316583E+02  0.42697272829E+02  0.47000000000E+01 0.  1.
         11    1    6    6    0    0 -0.34905422743E+02 -0.67709931058E+02 -0.17326540592E+02  0.78123186761E+02  0.00000000000E+00 0. -1.
        -12    1    6    6    0    0 -0.69906739472E+02 -0.28235452145E+01 -0.24083513872E+02  0.73992839327E+02  0.00000000000E+00 0.  1.
</event>
<event>
12    1  0.8494789E-002  0.2650439E+03  0.7818608E-02  0.1104171E+00
         21   -1    0    0  503  502  0.00000000000E+00  0.00000000000E+00  0.97471207940E+03  0.97471207940E+03  0.00000000000E+00 0.  1.
         21   -1    0    0  501  503 -0.00000000000E+00 -0.00000000000E+00 -0.21258406812E+03  0.21258406812E+03  0.00000000000E+00 0. -1.
          6    2    1    2  501    0  0.99382650569E+02 -0.17570961670E+03 -0.10160618199E+03  0.28385218559E+03  0.17174826465E+03 0.  0.
         24    2    3    3    0    0  0.13316953829E+03 -0.15517867647E+03 -0.62206422197E+02  0.22783875541E+03  0.78906982868E+02 0.  0.
         -6    2    1    2    0  502 -0.99382650569E+02  0.17570961670E+03  0.86373419328E+03  0.90344396193E+03  0.17153266476E+03 0.  0.
        -24    2    5    5    0    0 -0.68431530165E+02  0.18746761377E+03  0.82476997789E+03  0.85209688382E+03  0.77437732787E+02 0.  0.
          5    1    3    3  501    0 -0.33786887720E+02 -0.20530940228E+02 -0.39399759796E+02  0.56013430179E+02  0.47000000000E+01 0. -1.
        -13    1    4    4    0    0  0.36091927812E+02 -0.35241733485E+02  0.18470058232E+02  0.53719177984E+02  0.00000000000E+00 0.  1.
         14    1    4    4    0    0  0.97077610476E+02 -0.11993694298E+03 -0.80676480430E+02  0.17411957742E+03  0.00000000000E+00 0. -1.
         -5    1    5    5    0  502 -0.30951120403E+02 -0.11757997073E+02  0.38964215387E+02  0.51347078107E+02  0.47000000000E+01 0.  1.
         11    1    6    6    0    0 -0.99353218997E+01 -0.50808259536E+01  0.73469650296E+02  0.74312279794E+02  0.00000000000E+00 0. -1.
        -12    1    6    6    0    0 -0.58496208266E+02  0.19254843972E+03  0.75130032759E+03  0.77778460403E+03  0.00000000000E+00 0.  1.
</event>
<event>
12    1  0.8494789E-002  0.1876226E+03  0.7818608E-02  0.1160933E+00
         21   -1    0    0  503  502  0.00000000000E+00  0.00000000000E+00  0.81938234221E+02  0.81938234221E+02  0.00000000000E+00 0. -1.
         21   -1    0    0  501  503 -0.00000000000E+00 -0.00000000000E+00 -0.44986289541E+03  0.44986289541E+03  0.00000000000E+00 0.  1.
          6    2    1    2  501    0 -0.47936373081E+02  0.52100666183E+02 -0.24512987679E+03  0.30869224033E+03  0.17375231642E+03 0.  0.
         24    2    3    3    0    0 -0.87861058182E+02  0.32567019326E+02 -0.23024356343E+03  0.26158347081E+03  0.81447144863E+02 0.  0.
         -6    2    1    2    0  502  0.47936373081E+02 -0.52100666183E+02 -0.12279478440E+03  0.22310888930E+03  0.17229811993E+03 0.  0.
        -24    2    5    5    0    0  0.15593627996E+02 -0.67254096530E+02 -0.12788819397E+02  0.10735448573E+03  0.81210571789E+02 0.  0.
          5    1    3    3  501    0  0.39924685101E+02  0.19533646858E+02 -0.14886313355E+02  0.47108769516E+02  0.47000000000E+01 0. -1.
        -13    1    4    4    0    0 -0.52404576907E+02  0.34129380607E+01 -0.40367798377E+02  0.66237806220E+02  0.00000000000E+00 0.  1.
         14    1    4    4    0    0 -0.35456481275E+02  0.29154081265E+02 -0.18987576505E+03  0.19534566459E+03  0.00000000000E+00 0. -1.
         -5    1    5    5    0  502  0.32342745085E+02  0.15153430347E+02 -0.11000596500E+03  0.11575440358E+03  0.47000000000E+01 0.  1.
         13    1    6    6    0    0  0.32880836604E+02  0.36235458709E+01 -0.90867904442E+01  0.34305236642E+02  0.00000000000E+00 0. -1.
        -14    1    6    6    0    0 -0.17287208608E+02 -0.70877642401E+02 -0.37020289525E+01  0.73049249087E+02  0.00000000000E+00 0.  1.
</event>
<event>
12    1  0.8494789E-002  0.1975875E+03  0.7818608E-02  0.1152185E+00
         21   -1    0    0  503  502  0.00000000000E+00  0.00000000000E+00  0.19224563171E+03  0.19224563171E+03  0.00000000000E+00 0. -1.
         21   -1    0    0  501  503 -0.00000000000E+00 -0.00000000000E+00 -0.60554361308E+03  0.60554361308E+03  0.00000000000E+00 0. -1.
          6    2    1    2  501    0  0.52800268154E+01 -0.98094275289E+02 -0.53292491378E+03  0.56837468073E+03  0.17143642682E+03 0.  0.
         24    2    3    3    0    0 -0.37028309587E+02 -0.31660324146E+02 -0.18001818214E+03  0.20675510655E+03  0.89261729472E+02 0.  0.
         -6    2    1    2    0  502 -0.52800268154E+01  0.98094275289E+02  0.11962693241E+03  0.22941456406E+03  0.16932239580E+03 0.  0.
        -24    2    5    5    0    0 -0.35156877803E+01 -0.85115614298E+01  0.87648720819E+02  0.11800265567E+03  0.78469877952E+02 0.  0.
          5    1    3    3  501    0  0.42308336402E+02 -0.66433951143E+02 -0.35290673164E+03  0.36161957418E+03  0.47000000000E+01 0. -1.
        -13    1    4    4    0    0 -0.45540644885E+02 -0.46071442420E+02 -0.17856752962E+03  0.18995497040E+03  0.00000000000E+00 0.  1.
         14    1    4    4    0    0  0.85123352986E+01  0.14411118275E+02 -0.14506525211E+01  0.16800136157E+02  0.00000000000E+00 0. -1.
         -5    1    5    5    0  502 -0.17643390351E+01  0.10660583672E+03  0.31978211590E+02  0.11141190839E+03  0.47000000000E+01 0.  1.
         13    1    6    6    0    0  0.17479117257E+02  0.24991753050E+02  0.66509147510E+02  0.73168121221E+02  0.00000000000E+00 0. -1.
        -14    1    6    6    0    0 -0.20994805037E+02 -0.33503314480E+02  0.21139573309E+02  0.44834534450E+02  0.00000000000E+00 0.  1.
</event>
<event>
12    1  0.8494789E-002  0.2130469E+03  0.7818608E-02  0.1142290E+00
         21   -1    0    0  501  502  0.00000000000E+00  0.00000000000E+00  0.46218541842E+03  0.46218541842E+03  0.00000000000E+00 0.  1.
         21   -1    0    0  502  503 -0.00000000000E+00 -0.00000000000E+00 -0.44931702869E+03  0.44931702869E+03  0.00000000000E+00 0.  1.
         -6    2    1    2    0  503  0.25174991389E+02 -0.10543548074E+03 -0.40031675826E+03  0.45347822295E+03  0.18340820853E+03 0.  0.
        -24    2    3    3    0    0  0.55629814474E+02 -0.35059854318E+01 -0.11770664693E+03  0.15147212485E+03  0.77343271738E+02 0.  0.
          6    2    1    2  501    0 -0.25174991389E+02  0.10543548074E+03  0.41318514799E+03  0.45802422415E+03  0.16526887970E+03 0.  0.
         24    2    5    5    0    0 -0.21756870997E+02  0.60626162420E+02  0.39723734817E+03  0.41010782952E+03  0.79006506360E+02 0.  0.
          5    1    5    5  501    0 -0.34181203918E+01  0.44809318318E+02  0.15947799824E+02  0.47916394631E+02  0.47000000000E+01 0. -1.
        -11    1    6    6    0    0 -0.45990570909E+02  0.58763465771E+02  0.25074727330E+03  0.26161512301E+03  0.00000000000E+00 0.  1.
         12    1    6    6    0    0  0.24233699912E+02  0.18626966490E+01  0.14649007487E+03  0.14849270651E+03  0.00000000000E+00 0. -1.
         -5    1    3    3    0  503 -0.30454823085E+02 -0.10192949531E+03 -0.28261011133E+03  0.30200609810E+03  0.47000000000E+01 0.  1.
         11    1    4    4    0    0 -0.84856679251E+01  0.11852852480E+01  0.70699134171E+01  0.11108336373E+02  0.00000000000E+00 0. -1.
        -12    1    4    4    0    0  0.64115482400E+02 -0.46912706799E+01 -0.12477656035E+03  0.14036378848E+03  0.00000000000E+00 0.  1.
</event>
<event>
12    1  0.8494789E-002  0.1940866E+03  0.7818608E-02  0.1155031E+00
         21   -1    0    0  501  502  0.00000000000E+00  0.00000000000E+00  0.21059361042E+03  0.21059361042E+03  0.00000000000E+00 0. -1.
         21   -1    0    0  502  503 -0.00000000000E+00 -0.00000000000E+00 -0.37210441701E+03  0.37210441701E+03  0.00000000000E+00 0. -1.
         -6    2    1    2    0  503 -0.77522449335E+02  0.37039825423E+02 -0.29107912624E+03  0.34933659568E+03  0.17299514598E+03 0.  0.
        -24    2    3    3    0    0 -0.29284121704E+01  0.27599561139E+02 -0.52592439275E+02  0.99233859132E+02  0.79442323458E+02 0.  0.
          6    2    1    2  501    0  0.77522449335E+02 -0.37039825423E+02  0.12956831966E+03  0.23336143175E+03  0.17403427694E+03 0.  0.
         24    2    5    5    0    0  0.93571767634E+02  0.25224038968E+02  0.85879753662E+02  0.15548235737E+03  0.86066854978E+02 0.  0.
          5    1    5    5  501    0 -0.16049318299E+02 -0.62263864392E+02  0.43688565994E+02  0.77879074375E+02  0.47000000000E+01 0. -1.
        -11    1    6    6    0    0 -0.67235530141E+01  0.28461090420E+02  0.18229030852E+02  0.34460664515E+02  0.00000000000E+00 0.  1.
         12    1    6    6    0    0  0.10029532065E+03 -0.32370514515E+01  0.67650722810E+02  0.12102169286E+03  0.00000000000E+00 0. -1.
         -5    1    3    3    0  503 -0.74594037164E+02  0.94402642842E+01 -0.23848668697E+03  0.25010273655E+03  0.47000000000E+01 0.  1.
         13    1    4    4    0    0 -0.20364490448E+02 -0.22910028007E+02 -0.21045327766E+02  0.37181819150E+02  0.00000000000E+00 0. -1.
        -14    1    4    4    0    0  0.17436078278E+02  0.50509589146E+02 -0.31547111509E+02  0.62052039982E+02  0.00000000000E+00 0.  1.
</event>
<event>
12    1  0.8494789E-002  0.2449826E+03  0.7818608E-02  0.1117586E+00
         21   -1    0    0  503  502  0.00000000000E+00  0.00000000000E+00  0.57889943399E+02  0.57889943399E+02  0.00000000000E+00 0. -1.
         21   -1    0    0  501  503 -0.00000000000E+00 -0.00000000000E+00 -0.12545945256E+04  0.12545945256E+04  0.00000000000E+00 0.  1.
          6    2    1    2  501    0  0.55303080794E+02  0.16373379527E+03 -0.89488796165E+03  0.92781514730E+03  0.17363552977E+03 0.  0.
         24    2    3    3    0    0  0.99660248167E+01  0.90339268426E+02 -0.74834804038E+03  0.75770270289E+03  0.76341937154E+02 0.  0.
         -6    2    1    2    0  502 -0.55303080794E+02 -0.16373379527E+03 -0.30181662057E+03  0.38466932172E+03  0.16434727913E+03 0.  0.
        -24    2    5    5    0    0 -0.35854282433E+02 -0.52372813481E+02 -0.62051820404E+02  0.11954902181E+03  0.80081827152E+02 0.  0.
          5    1    3    3  501    0  0.45337055977E+02  0.73394526844E+02 -0.14653992127E+03  0.17011244441E+03  0.47000000000E+01 0. -1.
        -13    1    4    4    0    0 -0.30427267382E+02  0.16724287298E+02 -0.21551088926E+03  0.21828986182E+03  0.00000000000E+00 0.  1.
         14    1    4    4    0    0  0.40393292198E+02  0.73614981128E+02 -0.53283715112E+03  0.53941284107E+03  0.00000000000E+00 0. -1.
         -5    1    5    5    0  502 -0.19448798362E+02 -0.11136098179E+03 -0.23976480017E+03  0.26512029991E+03  0.47000000000E+01 0.  1.
         13    1    6    6    0    0 -0.14958087567E+02 -0.70288393512E+02 -0.56632798164E+02  0.91495772985E+02  0.00000000000E+00 0. -1.
        -14    1    6    6    0    0 -0.20896194865E+02  0.17915580031E+02 -0.54190222393E+01  0.28053248827E+02  0.00000000000E+00 0.  1.
</event>
<event>
12    1  0.8494789E-002  0.1748127E+03  0.7818608E-02  0.1173017E+00
         21   -1    0    0  501  502  0.00000000000E+00  0.00000000000E+00  0.83639327728E+02  0.83639327728E+02  0.00000000000E+00 0. -1.
         21   -1    0    0  502  503 -0.00000000000E+00 -0.00000000000E+00 -0.12748034838E+04  0.12748034838E+04  0.00000000000E+00 0. -1.
         -6    2    1    2    0  503  0.23665294232E+02 -0.82590405585E+01 -0.11697110618E+04  0.11827017528E+04  0.17300638738E+03 0.  0.
        -24    2    3    3    0    0  0.42784101391E+01 -0.59393595104E+02 -0.45179698412E+03  0.46269251197E+03  0.80112058041E+02 0.  0.
          6    2    1    2  501    0 -0.23665294232E+02  0.82590405585E+01 -0.21453094265E+02  0.17574105872E+03  0.17261641453E+03 0.  0.
         24    2    5    5    0    0 -0.66691257024E+02  0.14607580505E+02  0.29366536986E+02  0.10868688395E+03  0.79305359696E+02 0.  0.
          5    1    5    5  501    0  0.43025962792E+02 -0.63485399469E+01 -0.50819631251E+02  0.67054174771E+02  0.47000000000E+01 0. -1.
        -11    1    6    6    0    0 -0.40197088214E+02 -0.30531491663E+02  0.43180351834E+01  0.50661852630E+02  0.00000000000E+00 0.  1.
         12    1    6    6    0    0 -0.26494168810E+02  0.45139072168E+02  0.25048501803E+02  0.58025031320E+02  0.00000000000E+00 0. -1.
         -5    1    3    3    0  503  0.19386884092E+02  0.51134554546E+02 -0.71791407770E+03  0.72000924084E+03  0.47000000000E+01 0.  1.
         13    1    4    4    0    0 -0.19015276540E+02  0.11919661581E+02 -0.15218525174E+03  0.15383110843E+03  0.00000000000E+00 0. -1.
        -14    1    4    4    0    0  0.23293686679E+02 -0.71313256685E+02 -0.29961173238E+03  0.30886140354E+03  0.00000000000E+00 0.  1.
</event>
<event>
12    1  0.8494789E-002  0.2877496E+03  0.7818608E-02  0.1091927E+00
         21   -1    0    0  501  502  0.00000000000E+00  0.00000000000E+00  0.61889589431E+02  0.61889589431E+02  0.00000000000E+00 0.  1.
         21   -1    0    0  502  503 -0.00000000000E+00 -0.00000000000E+00 -0.13662883193E+04  0.13662883193E+04  0.00000000000E+00 0. -1.
         -6    2    1    2    0  503 -0.22068319188E+03  0.52129413460E+02 -0.78116405129E+03  0.83247648315E+03  0.17714760245E+03 0.  0.
        -24    2    3    3    0    0 -0.17008949165E+03  0.92302020458E+02 -0.68657719485E+03  0.71783650642E+03  0.80317540453E+02 0.  0.
          6    2    1    2  501    0  0.22068319188E+03 -0.52129413460E+02 -0.52323467861E+03  0.59570142560E+03  0.17224143706E+03 0.  0.
         24    2    5    5    0    0  0.16399697046E+03 -0.10102827987E+03 -0.40884612979E+03  0.45891232905E+03  0.79647022910E+02 0.  0.
          5    1    5    5  501    0  0.56686221416E+02  0.48898866408E+02 -0.11438854882E+03  0.13678909655E+03  0.47000000000E+01 0. -1.
        -11    1    6    6    0    0  0.49166001242E+02 -0.76439566468E+02 -0.18596839981E+03  0.20698924785E+03  0.00000000000E+00 0.  1.
         12    1    6    6    0    0  0.11483096922E+03 -0.24588713400E+02 -0.22287772998E+03  0.25192308120E+03  0.00000000000E+00 0. -1.
         -5    1    3    3    0  503 -0.50593700227E+02 -0.40172606998E+02 -0.94586856437E+02  0.11463997674E+03  0.47000000000E+01 0.  1.
         13    1    4    4    0    0 -0.11152730135E+03  0.21175316820E+02 -0.44600992846E+03  0.46022993087E+03  0.00000000000E+00 0. -1.
        -14    1    4    4    0    0 -0.58562190303E+02  0.71126703638E+02 -0.24056726639E+03  0.25760657554E+03  0.00000000000E+00 0.  1.
</event>
<event>
12    1  0.8494789E-002  0.1834137E+03  0.7818608E-02  0.1165040E+00
         21   -1    0    0  503  502  0.00000000000E+00  0.00000000000E+00  0.49090889727E+02  0.49090889727E+02  0.00000000000E+00 0.  1.
         21   -1    0    0  501  503 -0.00000000000E+00 -0.00000000000E+00 -0.81186362675E+03  0.81186362675E+03  0.00000000000E+00 0.  1.
          6    2    1    2  501    0  0.40265206452E+02  0.48676315787E+02 -0.55472189104E+03  0.58359963662E+03  0.16994554683E+03 0.  0.
         24    2    3    3    0    0 -0.25756705382E+02  0.16983968095E+02 -0.43235851671E+03  0.44091753149E+03  0.80762117116E+02 0.  0.
         -6    2    1    2    0  502 -0.40265206452E+02 -0.48676315787E+02 -0.20805084598E+03  0.27735487986E+03  0.17219147569E+03 0.  0.
        -24    2    5    5    0    0  0.10633124582E+02 -0.17803900412E+00 -0.28826430021E+02  0.84777092386E+02  0.79013272868E+02 0.  0.
          5    1    3    3  501    0  0.66021911834E+02  0.31692347691E+02 -0.12236337433E+03  0.14268210512E+03  0.47000000000E+01 0. -1.
        -13    1    4    4    0    0 -0.11762864169E+02  0.49590232022E+02 -0.25234884933E+03  0.25744416452E+03  0.00000000000E+00 0.  1.
         14    1    4    4    0    0 -0.13993841214E+02 -0.32606263926E+02 -0.18000966738E+03  0.18347336697E+03  0.00000000000E+00 0. -1.
         -5    1    5    5    0  502 -0.50898331034E+02 -0.48498276782E+02 -0.17922441596E+03  0.19257778748E+03  0.47000000000E+01 0.  1.
         13    1    6    6    0    0  0.34163200353E+02 -0.14442006171E+02 -0.40473135833E+02  0.54897818944E+02  0.00000000000E+00 0. -1.
        -14    1    6    6    0    0 -0.23530075771E+02  0.14263967167E+02  0.11646705813E+02  0.29879273442E+02  0.00000000000E+00 0.  1.
</event>
<event>
12    1  0.8494789E-002  0.1931214E+03  0.7818608E-02  0.1155921E+00
         21   -1    0    0  503  502  0.00000000000E+00  0.00000000000E+00  0.11262647925E+04  0.11262647925E+04  0.00000000000E+00 0.  1.
         21   -1    0    0  501  503 -0.00000000000E+00 -0.00000000000E+00 -0.32986103441E+02  0.32986103441E+02  0.00000000000E+00 0. -1.
          6    2    1    2  501    0 -0.13672083779E+02 -0.87412849325E+02  0.52331510701E+03  0.55781232049E+03  0.17166231840E+03 0.  0.
         24    2    3    3    0    0  0.54841376803E+01 -0.81266197132E+02  0.52498589851E+03  0.53708495457E+03  0.78840244964E+02 0.  0.
         -6    2    1    2    0  502  0.13672083779E+02  0.87412849325E+02  0.56996358209E+03  0.60143857550E+03  0.17041696830E+03 0.  0.
        -24    2    5    5    0    0  0.59932210710E+02  0.80288437265E+02  0.38161686838E+03  0.40730632378E+03  0.10113804488E+03 0.  0.
          5    1    3    3  501    0 -0.19156221459E+02 -0.61466521934E+01 -0.16707914973E+01  0.20727365920E+02  0.47000000000E+01 0. -1.
        -13    1    4    4    0    0  0.20948914193E+02  0.83315358179E-01  0.22203312908E+03  0.22301922419E+03  0.00000000000E+00 0.  1.
         14    1    4    4    0    0 -0.15464776513E+02 -0.81349512490E+02  0.30295276943E+03  0.31406573038E+03  0.00000000000E+00 0. -1.
         -5    1    5    5    0  502 -0.46260126931E+02  0.71244120607E+01  0.18834671371E+03  0.19413225171E+03  0.47000000000E+01 0.  1.
         13    1    6    6    0    0  0.71833393393E+01  0.11246636819E+02 -0.24206659132E+01  0.13562699852E+02  0.00000000000E+00 0. -1.
        -14    1    6    6    0    0  0.52748871370E+02  0.69041800445E+02  0.38403753429E+03  0.39374362393E+03  0.00000000000E+00 0.  1.
</event>
<event>
12    1  0.8494789E-002  0.3596634E+03  0.7818608E-02  0.1058942E+00
         21   -1    0    0  503  502  0.00000000000E+00  0.00000000000E+00  0.33394360661E+03  0.33394360661E+03  0.00000000000E+00 0. -1.
         21   -1    0    0  501  503 -0.00000000000E+00 -0.00000000000E+00 -0.66268828153E+03  0.66268828153E+03  0.00000000000E+00 0.  1.
          6    2    1    2  501    0  0.19240473560E+03 -0.25279541712E+03 -0.48668258028E+03  0.60381879305E+03  0.16374399437E+03 0.  0.
         24    2    3    3    0    0  0.60021264750E+02 -0.56065223507E+02 -0.10641674945E+03  0.15565326053E+03  0.78470067179E+02 0.  0.
         -6    2    1    2    0  502 -0.19240473560E+03  0.25279541712E+03  0.15793790536E+03  0.39281309509E+03  0.16861981061E+03 0.  0.
        -24    2    5    5    0    0 -0.20971845617E+03  0.23900059649E+03  0.12120813545E+03  0.34967114343E+03  0.80469748776E+02 0.  0.
          5    1    3    3  501    0  0.13238347085E+03 -0.19673019361E+03 -0.38026583083E+03  0.44816553251E+03  0.47000000000E+01 0. -1.
        -13    1    4    4    0    0  0.74154260995E+02 -0.62676780920E+02 -0.84281077356E+02  0.12857112153E+03  0.00000000000E+00 0.  1.
         14    1    4    4    0    0 -0.14132996246E+02  0.66115574135E+01 -0.22135672091E+02  0.27082139008E+02  0.00000000000E+00 0. -1.
         -5    1    5    5    0  502  0.17313720564E+02  0.13794820631E+02  0.36729769907E+02  0.43141951665E+02  0.47000000000E+01 0.  1.
         13    1    6    6    0    0 -0.29380675693E+02  0.80867886672E+02  0.49823265777E+02  0.99424328067E+02  0.00000000000E+00 0. -1.
        -14    1    6    6    0    0 -0.18033778047E+03  0.15813270982E+03  0.71384869676E+02  0.25024681536E+03  0.00000000000E+00 0.  1.
</event>
<event>
12    1  0.8494789E-002  0.1820019E+03  0.7818608E-02  0.1166740E+00
         21   -1    0    0  503  502  0.00000000000E+00  0.00000000000E+00  0.51611473503E+03  0.51611473503E+03  0.00000000000E+00 0.  1.
         21   -1    0    0  501  503 -0.00000000000E+00 -0.00000000000E+00 -0.76706847918E+02  0.76706847918E+02  0.00000000000E+00 0. -1.
          6    2    1    2  501    0  0.72291123990E+01  0.54942162144E+02  0.34354005758E+03  0.38711467059E+03  0.16960865478E+03 0.  0.
         24    2    3    3    0    0 -0.36794569030E+02  0.73184352183E+02  0.25295331260E+03  0.28465047982E+03  0.10164018689E+03 0.  0.
         -6    2    1    2    0  502 -0.72291123990E+01 -0.54942162144E+02  0.95867829534E+02  0.20570691236E+03  0.17336029478E+03 0.  0.
        -24    2    5    5    0    0  0.41755999451E+02 -0.62903502443E+02  0.13899962300E+02  0.10977075973E+03  0.78460159511E+02 0.  0.
          5    1    3    3  501    0  0.44023681429E+02 -0.18242190039E+02  0.90586744978E+02  0.10246419077E+03  0.47000000000E+01 0. -1.
        -11    1    4    4    0    0 -0.10932458796E+02  0.23616956805E+02  0.21616058561E+03  0.21772156089E+03  0.00000000000E+00 0.  1.
         12    1    4    4    0    0 -0.25862110234E+02  0.49567395378E+02  0.36792726994E+02  0.66928918937E+02  0.00000000000E+00 0. -1.
         -5    1    5    5    0  502 -0.48985111850E+02  0.79613402986E+01  0.81967867234E+02  0.95936152629E+02  0.47000000000E+01 0.  1.
         13    1    6    6    0    0  0.26338316269E+02 -0.80821891785E+02  0.13888809239E+02  0.86132363939E+02  0.00000000000E+00 0. -1.
        -14    1    6    6    0    0  0.15417683182E+02  0.17918389342E+02  0.11153061931E-01  0.23638395794E+02  0.00000000000E+00 0.  1.
</event>
<event>
12    1  0.8494789E-002  0.1723377E+03  0.7818608E-02  0.1175486E+00
         21   -1    0    0  503  502  0.00000000000E+00  0.00000000000E+00  0.13393268668E+03  0.13393268668E+03  0.00000000000E+00 0. -1.
         21   -1    0    0  501  503 -0.00000000000E+00 -0.00000000000E+00 -0.55634212113E+03  0.55634212113E+03  0.00000000000E+00 0. -1.
          6    2    1    2  501    0 -0.13018533851E+02 -0.15790614656E+01 -0.47901997288E+03  0.50907799410E+03  0.17183798767E+03 0.  0.
         24    2    3    3    0    0 -0.25445169607E+02  0.49988691217E+02 -0.17596955302E+03  0.20138447554E+03  0.80275136191E+02 0.  0.
         -6    2    1    2    0  502  0.13018533851E+02  0.15790614656E+01  0.56610538432E+02  0.18119681371E+03  0.17162621181E+03 0.  0.
        -24    2    5    5    0    0  0.67909642702E+02 -0.17359389273E+02  0.78396065995E+01  0.10522055071E+03  0.78082244417E+02 0.  0.
          5    1    3    3  501    0  0.12426635756E+02 -0.51567752683E+02 -0.30305041985E+03  0.30769351857E+03  0.47000000000E+01 0. -1.
        -11    1    4    4    0    0 -0.20664077880E+02  0.56473060903E+02 -0.18176882595E+03  0.19145787215E+03  0.00000000000E+00 0.  1.
         12    1    4    4    0    0 -0.47810917271E+01 -0.64843696857E+01  0.57992729249E+01  0.99266033859E+01  0.00000000000E+00 0. -1.
         -5    1    5    5    0  502 -0.54891108851E+02  0.18938450738E+02  0.48770931832E+02  0.75976262997E+02  0.47000000000E+01 0.  1.
         11    1    6    6    0    0  0.10447156015E+01 -0.22982650624E+02 -0.21955897092E+02  0.31801809343E+02  0.00000000000E+00 0. -1.
        -12    1    6    6    0    0  0.66864927100E+02  0.56232613513E+01  0.29795503691E+02  0.73418741371E+02  0.00000000000E+00 0.  1.
</event>
<event>
12    1  0.8494789E-002  0.1968666E+03  0.7818608E-02  0.1153250E+00
         21   -1    0    0  501  502  0.00000000000E+00  0.00000000000E+00  0.41894004432E+03  0.41894004432E+03  0.00000000000E+00 0.  1.
         21   -1    0    0  502  503 -0.00000000000E+00 -0.00000000000E+00 -0.15210475804E+03  0.15210475804E+03  0.00000000000E+00 0.  1.
         -6    2    1    2    0  503 -0.22128298879E+02  0.95690377731E+02 -0.47195613929E+02  0.20244480816E+03  0.17061701080E+03 0.  0.
        -24    2    3    3    0    0 -0.24338177529E+01  0.20639212853E+02 -0.84014932062E+02  0.11643142476E+03  0.77883677914E+02 0.  0.
          6    2    1    2  501    0  0.22128298879E+02 -0.95690377731E+02  0.31403090021E+03  0.36859999421E+03  0.16614523598E+03 0.  0.
         24    2    5    5    0    0 -0.25483033574E+02 -0.15666421282E+02  0.82884906367E+02  0.11935867930E+03  0.80509408556E+02 0.  0.
          5    1    5    5  501    0  0.47611332452E+02 -0.80023956449E+02  0.23114599385E+03  0.24924131490E+03  0.47000000000E+01 0. -1.
        -13    1    6    6    0    0 -0.35613900587E+02 -0.43460481888E+02  0.57205884952E+02  0.80185264695E+02  0.00000000000E+00 0.  1.
         14    1    6    6    0    0  0.10130867013E+02  0.27794060606E+02  0.25679021414E+02  0.39173414610E+02  0.00000000000E+00 0. -1.
         -5    1    3    3    0  503 -0.19694481126E+02  0.75051164878E+02  0.36819318133E+02  0.86013383401E+02  0.47000000000E+01 0.  1.
         13    1    4    4    0    0 -0.35053680219E+02  0.11670631786E+02 -0.15589742780E+02  0.40099927969E+02  0.00000000000E+00 0. -1.
        -14    1    4    4    0    0  0.32619862466E+02  0.89685810671E+01 -0.68425189282E+02  0.76331496788E+02  0.00000000000E+00 0.  1.
</event>
<event>
12    1  0.8494789E-002  0.1887488E+03  0.7818608E-02  0.1159804E+00
         21   -1    0    0  503  502  0.00000000000E+00  0.00000000000E+00  0.93949894776E+02  0.93949894776E+02  0.00000000000E+00 0.  1.
         21   -1    0    0  501  503 -0.00000000000E+00 -0.00000000000E+00 -0.41617655593E+03  0.41617655593E+03  0.00000000000E+00 0.  1.
          6    2    1    2  501    0 -0.59646441601E+02 -0.48983441901E+02 -0.23865233436E+03  0.30370270675E+03  0.17124053788E+03 0.  0.
         24    2    3    3    0    0 -0.19401031023E+02 -0.19741656420E+02 -0.23907230770E+03  0.25373230082E+03  0.80364041520E+02 0.  0.
         -6    2    1    2    0  502  0.59646441601E+02  0.48983441901E+02 -0.83574326794E+02  0.20642374396E+03  0.17224696919E+03 0.  0.
        -24    2    5    5    0    0  0.10468006562E+03  0.25694249248E+02 -0.77051885847E+02  0.15509104461E+03  0.80610969620E+02 0.  0.
          5    1    3    3  501    0 -0.40245410578E+02 -0.29241785481E+02  0.41997333842E+00  0.49970405925E+02  0.47000000000E+01 0. -1.
        -13    1    4    4    0    0 -0.26525610088E+02  0.25715562677E+02 -0.13456345972E+03  0.13954290683E+03  0.00000000000E+00 0.  1.
         14    1    4    4    0    0  0.71245790655E+01 -0.45457219097E+02 -0.10450884797E+03  0.11418939399E+03  0.00000000000E+00 0. -1.
         -5    1    5    5    0  502 -0.45033624017E+02  0.23289192652E+02 -0.65224409463E+01  0.51332699349E+02  0.47000000000E+01 0.  1.
         11    1    6    6    0    0  0.13780934296E+02 -0.10506602383E+02 -0.50964980072E+02  0.53830586449E+02  0.00000000000E+00 0. -1.
        -12    1    6    6    0    0  0.90899131322E+02  0.36200851631E+02 -0.26086905775E+02  0.10126045816E+03  0.00000000000E+00 0.  1.
</event>
<event>
12    1  0.8494789E-002  0.2178915E+03  0.7818608E-02  0.1135581E+00
         21   -1    0    0  501  502  0.00000000000E+00  0.00000000000E+00  0.83407064460E+02  0.83407064460E+02  0.00000000000E+00 0. -1.
         21   -1    0    0  502  503 -0.00000000000E+00 -0.00000000000E+00 -0.56957809103E+03  0.56957809103E+03  0.00000000000E+00 0. -1.
         -6    2    1    2    0  503  0.35898987834E+02  0.12790517345E+03 -0.26192263037E+03  0.34031274438E+03  0.17193262914E+03 0.  0.
        -24    2    3    3    0    0  0.12447687272E+01  0.91507368589E+02 -0.26624857936E+03  0.28965192189E+03  0.68079232406E+02 0.  0.
          6    2    1    2  501    0 -0.35898987834E+02 -0.12790517345E+03 -0.22424839620E+03  0.31267241111E+03  0.17270849067E+03 0.  0.
         24    2    5    5    0    0  0.48559574319E+01 -0.98862776494E+02 -0.22876525219E+03  0.26220540830E+03  0.81367724779E+02 0.  0.
          5    1    5    5  501    0 -0.40754945266E+02 -0.29042396955E+02  0.45168559891E+01  0.50467002809E+02  0.47000000000E+01 0. -1.
        -13    1    6    6    0    0 -0.16250646167E+02  0.77064141684E+00 -0.81791476130E+02  0.83393782481E+02  0.00000000000E+00 0.  1.
         14    1    6    6    0    0  0.21106603599E+02 -0.99633417910E+02 -0.14697377606E+03  0.17881162582E+03  0.00000000000E+00 0. -1.
         -5    1    3    3    0  503  0.34654219107E+02  0.36397804859E+02  0.43259489960E+01  0.50660822488E+02  0.47000000000E+01 0.  1.
         13    1    4    4    0    0  0.19831546379E+02  0.91099897731E+02 -0.24011236661E+03  0.25757800799E+03  0.00000000000E+00 0. -1.
        -14    1    4    4    0    0 -0.18586777651E+02  0.40747085840E+00 -0.26136212752E+02  0.32073913902E+02  0.00000000000E+00 0.  1.
</event>
<event>
12    1  0.8494789E-002  0.2128334E+03  0.7818608E-02  0.1140713E+00
         21   -1    0    0  501  502  0.00000000000E+00  0.00000000000E+00  0.75414228057E+02  0.75414228057E+02  0.00000000000E+00 0. -1.
         21   -1    0    0  502  503 -0.00000000000E+00 -0.00000000000E+00 -0.58649950514E+03  0.58649950514E+03  0.00000000000E+00 0. -1.
         -6    2    1    2    0  503  0.59058087777E+02  0.10804276103E+03 -0.22849711686E+03  0.31226430707E+03  0.17360002623E+03 0.  0.
        -24    2    3    3    0    0  0.10366921265E+02  0.37740919416E-02 -0.40985637506E+02  0.90395207624E+02  0.79899924961E+02 0.  0.
          6    2    1    2  501    0 -0.59058087777E+02 -0.10804276103E+03 -0.28258816021E+03  0.34964942613E+03  0.16503804699E+03 0.  0.
         24    2    5    5    0    0  0.27657102109E+02 -0.70650237118E+02 -0.11889616484E+03  0.16061269860E+03  0.76835991813E+02 0.  0.
          5    1    5    5  501    0 -0.86715189887E+02 -0.37392523916E+02 -0.16369199538E+03  0.18903672752E+03  0.47000000000E+01 0. -1.
        -11    1    6    6    0    0  0.28485156991E+01 -0.27803699613E+02  0.38916014981E+01  0.28218864542E+02  0.00000000000E+00 0.  1.
         12    1    6    6    0    0  0.24808586410E+02 -0.42846537506E+02 -0.12278776634E+03  0.13239383406E+03  0.00000000000E+00 0. -1.
         -5    1    3    3    0  503  0.48691166512E+02  0.10803898694E+03 -0.18751147936E+03  0.22186909944E+03  0.47000000000E+01 0.  1.
         11    1    4    4    0    0 -0.30935787318E+02 -0.36452882379E+01  0.12944094890E+01  0.31176698979E+02  0.00000000000E+00 0. -1.
        -12    1    4    4    0    0  0.41302708583E+02  0.36490623299E+01 -0.42280046995E+02  0.59218508644E+02  0.00000000000E+00 0.  1.
</event>
<event>
12    1  0.8494789E-002  0.2117517E+03  0.7818608E-02  0.1140928E+00
         21   -1    0    0  501  502  0.00000000000E+00  0.00000000000E+00  0.41980210238E+03  0.41980210238E+03  0.00000000000E+00 0.  1.
         21   -1    0    0  502  503 -0.00000000000E+00 -0.00000000000E+00 -0.10913574473E+03  0.10913574473E+03  0.00000000000E+00 0. -1.
         -6    2    1    2    0  503  0.12052549254E+03  0.80961975397E+01  0.10472263950E+03  0.23623208997E+03  0.17391614743E+03 0.  0.
        -24    2    3    3    0    0  0.24171398180E+01 -0.25672237570E+02  0.21930153995E+02  0.88020835838E+02  0.81251643310E+02 0.  0.
          6    2    1    2  501    0 -0.12052549254E+03 -0.80961975397E+01  0.20594371814E+03  0.29270575714E+03  0.16932779588E+03 0.  0.
         24    2    5    5    0    0 -0.14500080845E+03  0.24034780314E+02  0.16208528283E+03  0.23289695198E+03  0.79790013273E+02 0.  0.
          5    1    5    5  501    0  0.24475315909E+02 -0.32130977853E+02  0.43858435313E+02  0.59808805161E+02  0.47000000000E+01 0. -1.
        -13    1    6    6    0    0 -0.63166962969E+02  0.92316364070E+00  0.12514240496E+03  0.14018394687E+03  0.00000000000E+00 0.  1.
         14    1    6    6    0    0 -0.81833845482E+02  0.23111616673E+02  0.36942877868E+02  0.92713005111E+02  0.00000000000E+00 0. -1.
         -5    1    3    3    0  503  0.11810835273E+03  0.33768435110E+02  0.82792485509E+02  0.14821125413E+03  0.47000000000E+01 0.  1.
         13    1    4    4    0    0 -0.18597236544E+02 -0.16623900659E+02 -0.25307336946E+02  0.35534104513E+02  0.00000000000E+00 0. -1.
        -14    1    4    4    0    0  0.21014376362E+02 -0.90483369111E+01  0.47237490942E+02  0.52486731325E+02  0.00000000000E+00 0.  1.
</event>
<event>
12    1  0.8494789E-002  0.2240500E+03  0.7818608E-02  0.1131002E+00
         21   -1    0    0  501  502  0.00000000000E+00  0.00000000000E+00  0.48224521190E+03  0.48224521190E+03  0.00000000000E+00 0.  1.
         21   -1    0    0  502  503 -0.00000000000E+00 -0.00000000000E+00 -0.15143441018E+03  0.15143441018E+03  0.00000000000E+00 0. -1.
         -6    2    1    2    0  503  0.88328649037E+02 -0.11357517256E+03 -0.12377790284E+02  0.22382989058E+03  0.17101269006E+03 0.  0.
        -24    2    3    3    0    0 -0.12071742848E+02 -0.91310802188E+02 -0.24662022638E+02  0.12015282830E+03  0.73110171765E+02 0.  0.
          6    2    1    2  501    0 -0.88328649037E+02  0.11357517256E+03  0.34318859199E+03  0.40984973150E+03  0.17174726395E+03 0.  0.
         24    2    5    5    0    0 -0.44663223734E+02  0.47062924209E+00  0.86047618613E+02  0.12552091257E+03  0.79726292878E+02 0.  0.
          5    1    5    5  501    0 -0.43665425303E+02  0.11310454332E+03  0.25714097338E+03  0.28432881894E+03  0.47000000000E+01 0. -1.
        -11    1    6    6    0    0 -0.64527356847E+01  0.31189096313E+02  0.64565672421E+02  0.71993913506E+02  0.00000000000E+00 0.  1.
         12    1    6    6    0    0 -0.38210488049E+02 -0.30718467071E+02  0.21481946191E+02  0.53526999059E+02  0.00000000000E+00 0. -1.
         -5    1    3    3    0  503  0.10040039188E+03 -0.22264370374E+02  0.12284232355E+02  0.10367706228E+03  0.47000000000E+01 0.  1.
         11    1    4    4    0    0 -0.42338664792E+01 -0.95002262828E+02 -0.39497524237E+02  0.10297286045E+03  0.00000000000E+00 0. -1.
        -12    1    4    4    0    0 -0.78378763683E+01  0.36914606398E+01  0.14835501599E+02  0.17179967850E+02  0.00000000000E+00 0.  1.
</event>
<event>
12    1  0.8494789E-002  0.2654424E+03  0.7818608E-02  0.1105399E+00
         21   -1    0    0  503  502  0.00000000000E+00  0.00000000000E+00  0.56879119747E+02  0.56879119747E+02  0.00000000000E+00 0. -1.
         21   -1    0    0  501  503 -0.00000000000E+00 -0.00000000000E+00 -0.16838350566E+04  0.16838350566E+04  0.00000000000E+00 0.  1.
          6    2    1    2  501    0 -0.66956797399E+02 -0.18949877598E+03 -0.35453883082E+03  0.44289667221E+03  0.17339746504E+03 0.  0.
         24    2    3    3    0    0 -0.84005230448E+02 -0.18998287127E+03 -0.36080253497E+03  0.42412948256E+03  0.80975172870E+02 0.  0.
         -6    2    1    2    0  502  0.66956797399E+02  0.18949877598E+03 -0.12724171060E+04  0.12978175041E+04  0.15777193504E+03 0.  0.
        -24    2    5    5    0    0  0.34096572119E+02  0.27892261604E+02 -0.53531655984E+03  0.54247932484E+03  0.76022655530E+02 0.  0.
          5    1    3    3  501    0  0.17048433049E+02  0.48409528374E+00  0.62637041530E+01  0.18767189651E+02  0.47000000000E+01 0. -1.
        -11    1    4    4    0    0 -0.45091155044E+02 -0.45766994663E+02 -0.17050899022E+03  0.18221181578E+03  0.00000000000E+00 0.  1.
         12    1    4    4    0    0 -0.38914075404E+02 -0.14421587660E+03 -0.19029354475E+03  0.24191766679E+03  0.00000000000E+00 0. -1.
         -5    1    5    5    0  502  0.32860225280E+02  0.16160651438E+03 -0.73710054620E+03  0.75533817929E+03  0.47000000000E+01 0.  1.
         11    1    6    6    0    0 -0.23687146790E+02  0.15521513981E+02 -0.20009841334E+03  0.20209248709E+03  0.00000000000E+00 0. -1.
        -12    1    6    6    0    0  0.57783718909E+02  0.12370747623E+02 -0.33521814650E+03  0.34038683774E+03  0.00000000000E+00 0.  1.
</event>
<event>
12    1  0.8494789E-002  0.3837394E+03  0.7818608E-02  0.1049628E+00
         21   -1    0    0  501  502  0.00000000000E+00  0.00000000000E+00  0.26289340020E+03  0.26289340020E+03  0.00000000000E+00 0.  1.
         21   -1    0    0  502  503 -0.00000000000E+00 -0.00000000000E+00 -0.10938446940E+04  0.10938446940E+04  0.00000000000E+00 0.  1.
         -6    2    1    2    0  503 -0.18925156849E+03  0.28566041748E+03 -0.88959915757E+03  0.96854292646E+03  0.17108684620E+03 0.  0.
        -24    2    3    3    0    0 -0.96280385592E+02  0.23162135851E+03 -0.50728495116E+03  0.57136525441E+03  0.78751926373E+02 0.  0.
          6    2    1    2  501    0  0.18925156849E+03 -0.28566041748E+03  0.58647863753E+02  0.38819516776E+03  0.17273646419E+03 0.  0.
         24    2    5    5    0    0  0.85927374231E+02 -0.24334280381E+03  0.55216316617E+02  0.27638937604E+03  0.82115843547E+02 0.  0.
          5    1    5    5  501    0  0.10332419426E+03 -0.42317613671E+02  0.34315471358E+01  0.11180579172E+03  0.47000000000E+01 0. -1.
        -13    1    6    6    0    0  0.66653887576E+02 -0.88717366748E+02 -0.31890730095E+00  0.11096672291E+03  0.00000000000E+00 0.  1.
         14    1    6    6    0    0  0.19273486655E+02 -0.15462543706E+03  0.55535223918E+02  0.16542265313E+03  0.00000000000E+00 0. -1.
         -5    1    3    3    0  503 -0.92971182899E+02  0.54039058961E+02 -0.38231420641E+03  0.39717767204E+03  0.47000000000E+01 0.  1.
         13    1    4    4    0    0 -0.58675982660E+02  0.13002463225E+03 -0.20091831808E+03  0.24640910388E+03  0.00000000000E+00 0. -1.
        -14    1    4    4    0    0 -0.37604402932E+02  0.10159672626E+03 -0.30636663307E+03  0.32495615053E+03  0.00000000000E+00 0.  1.
</event>
<event>
12    1  0.8494789E-002  0.1792561E+03  0.7818608E-02  0.1168668E+00
         21   -1    0    0  501  502  0.00000000000E+00  0.00000000000E+00  0.15865228941E+03  0.15865228941E+03  0.00000000000E+00 0. -1.
         21   -1    0    0  502  503 -0.00000000000E+00 -0.00000000000E+00 -0.20196729965E+03  0.20196729965E+03  0.00000000000E+00 0. -1.
         -6    2    1    2    0  503 -0.31276247211E+01  0.49381712675E+02 -0.25613619449E+02  0.18107683350E+03  0.17229169030E+03 0.  0.
        -24    2    3    3    0    0  0.40048884372E+02  0.44343202822E+01  0.35161385347E+02  0.93897878311E+02  0.77181035210E+02 0.  0.
          6    2    1    2  501    0  0.31276247211E+01 -0.49381712675E+02 -0.17701390792E+02  0.17954275555E+03  0.17167971998E+03 0.  0.
         24    2    5    5    0    0 -0.23856631907E+02 -0.95543599315E+02 -0.63970439577E+01  0.12468887564E+03  0.76214665783E+02 0.  0.
          5    1    5    5  501    0  0.26984256628E+02  0.46161886640E+02 -0.11304346834E+02  0.54853879911E+02  0.47000000000E+01 0. -1.
        -13    1    6    6    0    0  0.10450260292E+02 -0.88853683217E+02 -0.69041830438E+01  0.89732116352E+02  0.00000000000E+00 0.  1.
         14    1    6    6    0    0 -0.34306892199E+02 -0.66899160983E+01  0.50713908614E+00  0.34956759287E+02  0.00000000000E+00 0. -1.
         -5    1    3    3    0  503 -0.43176509093E+02  0.44947392393E+02 -0.60775004796E+02  0.87178955192E+02  0.47000000000E+01 0.  1.
         11    1    4    4    0    0 -0.10660176318E+02 -0.25877684281E+02  0.11447495749E+02  0.30238039979E+02  0.00000000000E+00 0. -1.
        -12    1    4    4    0    0  0.50709060689E+02  0.30312004563E+02  0.23713889598E+02  0.63659838332E+02  0.00000000000E+00 0.  1.
</event>
<event>
12    1  0.8494789E-002  0.2745216E+03  0.7818608E-02  0.1098732E+00
         21   -1    0    0  503  502  0.00000000000E+00  0.00000000000E+00  0.22006725786E+03  0.22006725786E+03  0.00000000000E+00 0.  1.
         21   -1    0    0  501  503 -0.00000000000E+00 -0.00000000000E+00 -0.91925620294E+03  0.91925620294E+03  0.00000000000E+00 0. -1.
          6    2    1    2  501    0 -0.27643653027E+02 -0.21260350549E+03 -0.80090812625E+03  0.84664981824E+03  0.17145747560E+03 0.  0.
         24    2    3    3    0    0 -0.70929319089E+02 -0.19887952910E+03 -0.68970799308E+03  0.72644351212E+03  0.86249783665E+02 0.  0.
         -6    2    1    2    0  502  0.27643653027E+02  0.21260350549E+03  0.10171918117E+03  0.29267364256E+03  0.17130863122E+03 0.  0.
        -24    2    5    5    0    0  0.24807671743E+02  0.65585239142E+02  0.99823237918E+02  0.14554071616E+03  0.79376174394E+02 0.  0.
          5    1    3    3  501    0  0.43285666062E+02 -0.13723976389E+02 -0.11120013317E+03  0.12020630612E+03  0.47000000000E+01 0. -1.
        -13    1    4    4    0    0 -0.56549888167E+02 -0.93207855431E+02 -0.23003731336E+03  0.25456386174E+03  0.00000000000E+00 0.  1.
         14    1    4    4    0    0 -0.14379430922E+02 -0.10567167367E+03 -0.45967067972E+03  0.47187965039E+03  0.00000000000E+00 0. -1.
         -5    1    5    5    0  502  0.28359812835E+01  0.14701826635E+03  0.18959432547E+01  0.14713292640E+03  0.47000000000E+01 0.  1.
         11    1    6    6    0    0 -0.71599670279E+01 -0.16393924565E+02  0.18215940436E+02  0.25531282310E+02  0.00000000000E+00 0. -1.
        -12    1    6    6    0    0  0.31967638771E+02  0.81979163707E+02  0.81607297483E+02  0.12000943385E+03  0.00000000000E+00 0.  1.
</event>
<event>
12    1  0.8494789E-002  0.6422672E+03  0.7818608E-02  0.9821479E-01
         21   -1    0    0  503  502  0.00000000000E+00  0.00000000000E+00  0.36211724769E+03  0.36211724769E+03  0.00000000000E+00 0. -1.
         21   -1    0    0  501  503 -0.00000000000E+00 -0.00000000000E+00 -0.11402530401E+04  0.11402530401E+04  0.00000000000E+00 0.  1.
          6    2    1    2  501    0 -0.54254237207E+03  0.29737928270E+03 -0.36279460238E+03  0.73764972903E+03  0.17239644995E+03 0.  0.
         24    2    3    3    0    0 -0.45168546888E+03  0.26619053315E+03 -0.36132498519E+03  0.64146259512E+03  0.77726142858E+02 0.  0.
         -6    2    1    2    0  502  0.54254237207E+03 -0.29737928270E+03 -0.41534119005E+03  0.76472055878E+03  0.17176310894E+03 0.  0.
        -24    2    5    5    0    0  0.34579468415E+03 -0.20759564432E+03 -0.19099288561E+03  0.45307170810E+03  0.78267331614E+02 0.  0.
          5    1    3    3  501    0 -0.90856903185E+02  0.31188749552E+02 -0.14696171956E+01  0.96187133909E+02  0.47000000000E+01 0. -1.
        -13    1    4    4    0    0 -0.38555314618E+03  0.19382932312E+03 -0.28391233794E+03  0.51655324088E+03  0.00000000000E+00 0.  1.
         14    1    4    4    0    0 -0.66132322698E+02  0.72361210030E+02 -0.77412647251E+02  0.12490935424E+03  0.00000000000E+00 0. -1.
         -5    1    5    5    0  502  0.19674768791E+03 -0.89783638385E+02 -0.22434830445E+03  0.31164885068E+03  0.47000000000E+01 0.  1.
         11    1    6    6    0    0  0.29439432132E+03 -0.17060055321E+03 -0.19005514983E+03  0.38973519877E+03  0.00000000000E+00 0. -1.
        -12    1    6    6    0    0  0.51400362832E+02 -0.36995091114E+02 -0.93773577208E+00  0.63336509331E+02  0.00000000000E+00 0.  1.
</event>
<event>
12    1  0.8494789E-002  0.2424001E+03  0.7818608E-02  0.1118327E+00
         21   -1    0    0  501  502  0.00000000000E+00  0.00000000000E+00  0.81441905151E+02  0.81441905151E+02  0.00000000000E+00 0.  1.
         21   -1    0    0  502  503 -0.00000000000E+00 -0.00000000000E+00 -0.74156131646E+03  0.74156131646E+03  0.00000000000E+00 0.  1.
         -6    2    1    2    0  503  0.10334372783E+03 -0.13550823201E+03 -0.40095178661E+03  0.46814314772E+03  0.17132794444E+03 0.  0.
        -24    2    3    3    0    0 -0.38955456178E+01 -0.21291012541E+02 -0.11976206938E+03  0.14621833962E+03  0.81045463095E+02 0.  0.
          6    2    1    2  501    0 -0.10334372783E+03  0.13550823201E+03 -0.25916762470E+03  0.35486007389E+03  0.17238157479E+03 0.  0.
         24    2    5    5    0    0 -0.14104688368E+03  0.11725986805E+03 -0.22129492925E+03  0.29819472461E+03  0.79401184008E+02 0.  0.
          5    1    5    5  501    0  0.37703155853E+02  0.18248363959E+02 -0.37872695450E+02  0.56665349280E+02  0.47000000000E+01 0. -1.
        -13    1    6    6    0    0  0.74375293945E+01 -0.86084184653E-01 -0.22593532783E+02  0.23786382188E+02  0.00000000000E+00 0.  1.
         14    1    6    6    0    0 -0.14848441308E+03  0.11734595224E+03 -0.19870139646E+03  0.27440834242E+03  0.00000000000E+00 0. -1.
         -5    1    3    3    0  503  0.10723927345E+03 -0.11421721947E+03 -0.28118971723E+03  0.32192480810E+03  0.47000000000E+01 0.  1.
         11    1    4    4    0    0  0.55079871690E+01 -0.63752990637E+01 -0.12691200191E+03  0.12719134636E+03  0.00000000000E+00 0. -1.
        -12    1    4    4    0    0 -0.94035327868E+01 -0.14915713477E+02  0.71499325264E+01  0.19026993260E+02  0.00000000000E+00 0.  1.
</event>
<event>
12    1  0.8494789E-002  0.2289046E+03  0.7818608E-02  0.1127886E+00
         21   -1    0    0  503  502  0.00000000000E+00  0.00000000000E+00  0.26069710509E+03  0.26069710509E+03  0.00000000000E+00 0.  1.
         21   -1    0    0  501  503 -0.00000000000E+00 -0.00000000000E+00 -0.30954191670E+03  0.30954191670E+03  0.00000000000E+00 0.  1.
          6    2    1    2  501    0 -0.91632145798E+02 -0.11528982622E+03 -0.19497098364E+03  0.29866923099E+03  0.17175980586E+03 0.  0.
         24    2    3    3    0    0 -0.11936567211E+03 -0.64508042612E+02 -0.98700510647E+02  0.18625022905E+03  0.80857317420E+02 0.  0.
         -6    2    1    2    0  502  0.91632145798E+02  0.11528982622E+03  0.14612617202E+03  0.27156979080E+03  0.17524011798E+03 0.  0.
        -24    2    5    5    0    0  0.40615199624E+02  0.29960637704E+02  0.18574152620E+00  0.94921840162E+02  0.80392082867E+02 0.  0.
          5    1    3    3  501    0  0.27733526314E+02 -0.50781783605E+02 -0.96270472988E+02  0.11241900194E+03  0.47000000000E+01 0. -1.
        -11    1    4    4    0    0 -0.11763538353E+03 -0.80022882131E+02 -0.87341059375E+02  0.16694372038E+03  0.00000000000E+00 0.  1.
         12    1    4    4    0    0 -0.17302885835E+01  0.15514839519E+02 -0.11359451272E+02  0.19306508672E+02  0.00000000000E+00 0. -1.
         -5    1    5    5    0  502  0.51016946173E+02  0.85329188512E+02  0.14594043050E+03  0.17664795063E+03  0.47000000000E+01 0.  1.
         13    1    6    6    0    0 -0.59562899670E+01 -0.19782360783E+02  0.14567603560E+02  0.25279126998E+02  0.00000000000E+00 0. -1.
        -14    1    6    6    0    0  0.46571489591E+02  0.49742998487E+02 -0.14381862033E+02  0.69642713164E+02  0.00000000000E+00 0.  1.
</event>
<event>
12    1  0.8494789E-002  0.1913642E+03  0.7818608E-02  0.1157694E+00
         21   -1    0    0  503  502  0.00000000000E+00  0.00000000000E+00  0.14680105667E+03  0.14680105667E+03  0.00000000000E+00 0. -1.
         21   -1    0    0  501  503 -0.00000000000E+00 -0.00000000000E+00 -0.24686417846E+03  0.24686417846E+03  0.00000000000E+00 0. -1.
          6    2    1    2  501    0 -0.11120178628E+02  0.84752020518E+02 -0.53223389550E+02  0.19862779583E+03  0.17121246663E+03 0.  0.
         24    2    3    3    0    0  0.26506873333E+01  0.12230802387E+03 -0.59807155318E+02  0.15781693811E+03  0.79768485512E+02 0.  0.
         -6    2    1    2    0  502  0.11120178628E+02 -0.84752020518E+02 -0.46839732241E+02  0.19503743930E+03  0.16893513209E+03 0.  0.
        -24    2    5    5    0    0  0.24581967550E+02 -0.10571837583E+03 -0.76929918384E+02  0.15568877835E+03  0.80871102667E+02 0.  0.
          5    1    3    3  501    0 -0.13770865961E+02 -0.37556003347E+02  0.65837657686E+01  0.40810857727E+02  0.47000000000E+01 0. -1.
        -13    1    4    4    0    0 -0.72391901196E+01  0.83478970686E+02  0.23947918139E+01  0.83826484169E+02  0.00000000000E+00 0.  1.
         14    1    4    4    0    0  0.98898774529E+01  0.38829053180E+02 -0.62201947132E+02  0.73990453938E+02  0.00000000000E+00 0. -1.
         -5    1    5    5    0  502 -0.13461788922E+02  0.20966355308E+02  0.30090186143E+02  0.39348660943E+02  0.47000000000E+01 0.  1.
         13    1    6    6    0    0 -0.26332764206E+02 -0.14354958068E+02 -0.10464798379E+02  0.31764623357E+02  0.00000000000E+00 0. -1.
        -14    1    6    6    0    0  0.50914731756E+02 -0.91363417758E+02 -0.66465120005E+02  0.12392415500E+03  0.00000000000E+00 0.  1.
</event>
<event>
12    1  0.8494789E-002  0.2732326E+03  0.7818608E-02  0.1099573E+00
         21   -1    0    0  503  502  0.00000000000E+00  0.00000000000E+00  0.58461768842E+02  0.58461768842E+02  0.00000000000E+00 0. -1.
         21   -1    0    0  501  503 -0.00000000000E+00 -0.00000000000E+00 -0.13400569411E+04  0.13400569411E+04  0.00000000000E+00 0.  1.
          6    2    1    2  501    0  0.19181495549E+03 -0.87147850492E+02 -0.48304622084E+03  0.55451843790E+03  0.17253788426E+03 0.  0.
         24    2    3    3    0    0  0.18495739115E+03 -0.85389161157E+02 -0.49425114387E+03  0.54045573984E+03  0.79420829298E+02 0.  0.
         -6    2    1    2    0  502 -0.19181495549E+03  0.87147850492E+02 -0.79854895141E+03  0.84400027203E+03  0.17397789056E+03 0.  0.
        -24    2    5    5    0    0 -0.54684201528E+02  0.97911287435E+02 -0.39430590466E+03  0.41696956342E+03  0.76219999106E+02 0.  0.
          5    1    3    3  501    0  0.68575643395E+01 -0.17586893346E+01  0.11204923023E+02  0.14062698063E+02  0.47000000000E+01 0. -1.
        -13    1    4    4    0    0  0.13890598622E+03 -0.36165631488E+02 -0.39680121771E+03  0.42196449174E+03  0.00000000000E+00 0.  1.
         14    1    4    4    0    0  0.46051404930E+02 -0.49223529669E+02 -0.97449926152E+02  0.11849124810E+03  0.00000000000E+00 0. -1.
         -5    1    5    5    0  502 -0.13713075396E+03 -0.10763436943E+02 -0.40424304675E+03  0.42703070862E+03  0.47000000000E+01 0.  1.
         13    1    6    6    0    0 -0.58853758993E+02  0.54687587705E+02 -0.16418474997E+03  0.18278711476E+03  0.00000000000E+00 0. -1.
        -14    1    6    6    0    0  0.41695574651E+01  0.43223699730E+02 -0.23012115468E+03  0.23418244866E+03  0.00000000000E+00 0.  1.
</event>
<event>
12    1  0.8494789E-002  0.2153685E+03  0.7818608E-02  0.1137660E+00
         21   -1    0    0  503  502  0.00000000000E+00  0.00000000000E+00  0.57893299375E+03  0.57893299375E+03  0.00000000000E+00 0. -1.
         21   -1    0    0  501  503 -0.00000000000E+00 -0.00000000000E+00 -0.24143906764E+03  0.24143906764E+03  0.00000000000E+00 0.  1.
          6    2    1    2  501    0  0.11277238338E+03  0.62234582946E+02 -0.16728310530E+03  0.27157021960E+03  0.17080981555E+03 0.  0.
         24    2    3    3    0    0  0.66851387221E+02 -0.23109480279E+02 -0.12834823660E+03  0.16702185273E+03  0.80124112464E+02 0.  0.
         -6    2    1    2    0  502 -0.11277238338E+03 -0.62234582946E+02  0.50477703142E+03  0.54880184179E+03  0.17260607270E+03 0.  0.
        -24    2    5    5    0    0 -0.79893231421E+02  0.22731000452E+02  0.28918165513E+03  0.31470005778E+03  0.92252208092E+02 0.  0.
          5    1    3    3  501    0  0.45920996155E+02  0.85344063225E+02 -0.38934868705E+02  0.10454836688E+03  0.47000000000E+01 0. -1.
        -13    1    4    4    0    0  0.94095299350E+01  0.21695417744E+02 -0.69372990351E+02  0.73292852277E+02  0.00000000000E+00 0.  1.
         14    1    4    4    0    0  0.57441857286E+02 -0.44804898023E+02 -0.58975246247E+02  0.93729000449E+02  0.00000000000E+00 0. -1.
         -5    1    5    5    0  502 -0.32879151955E+02 -0.84965583398E+02  0.21559537629E+03  0.23410178400E+03  0.47000000000E+01 0.  1.
         11    1    6    6    0    0 -0.29193563992E+02  0.55877180078E+02  0.16184459950E+03  0.17368994738E+03  0.00000000000E+00 0. -1.
        -12    1    6    6    0    0 -0.50699667429E+02 -0.33146179626E+02  0.12733705562E+03  0.14101011040E+03  0.00000000000E+00 0.  1.
</event>
<event>
12    1  0.8494789E-002  0.2752087E+03  0.7818608E-02  0.1098368E+00
         21   -1    0    0  503  502  0.00000000000E+00  0.00000000000E+00  0.61313166297E+03  0.61313166297E+03  0.00000000000E+00 0.  1.
         21   -1    0    0  501  503 -0.00000000000E+00 -0.00000000000E+00 -0.12891403507E+03  0.12891403507E+03  0.00000000000E+00 0. -1.
          6    2    1    2  501    0  0.18219520265E+03 -0.11405764559E+03  0.16563440281E+03  0.32120799316E+03  0.17185918971E+03 0.  0.
         24    2    3    3    0    0  0.14058507698E+03 -0.10550894128E+03  0.19065714006E+03  0.27168314806E+03  0.81026460637E+02 0.  0.
         -6    2    1    2    0  502 -0.18219520265E+03  0.11405764559E+03  0.31858322508E+03  0.42083770488E+03  0.17147846559E+03 0.  0.
        -24    2    5    5    0    0 -0.74491123268E+02  0.43699741863E+01  0.72627335502E+02  0.13075505529E+03  0.79083060784E+02 0.  0.
          5    1    3    3  501    0  0.41610125664E+02 -0.85487043117E+01 -0.25022737243E+02  0.49524845102E+02  0.47000000000E+01 0. -1.
        -11    1    4    4    0    0  0.47252351102E+02  0.63669642230E+01  0.42117198746E+02  0.63617461034E+02  0.00000000000E+00 0.  1.
         12    1    4    4    0    0  0.93332725882E+02 -0.11187590550E+03  0.14853994131E+03  0.20806568702E+03  0.00000000000E+00 0. -1.
         -5    1    5    5    0  502 -0.10770407938E+03  0.10968767140E+03  0.24595588958E+03  0.29008264959E+03  0.47000000000E+01 0.  1.
         11    1    6    6    0    0 -0.29975894761E+01  0.11019757191E+02  0.55867593999E+02  0.57022878307E+02  0.00000000000E+00 0. -1.
        -12    1    6    6    0    0 -0.71493533792E+02 -0.66497830051E+01  0.16759741503E+02  0.73732176987E+02  0.00000000000E+00 0.  1.
</event>
<event>
12    1  0.8494789E-002  0.2621736E+03  0.7818608E-02  0.1105878E+00
         21   -1    0    0  501  502  0.00000000000E+00  0.00000000000E+00  0.21244158752E+03  0.21244158752E+03  0.00000000000E+00 0. -1.
         21   -1    0    0  502  503 -0.00000000000E+00 -0.00000000000E+00 -0.51480674594E+03  0.51480674594E+03  0.00000000000E+00 0.  1.
         -6    2    1    2    0  503  0.12843337379E+03 -0.14885888585E+03  0.70574027749E+02  0.27150632446E+03  0.17343843700E+03 0.  0.
        -24    2    3    3    0    0  0.47811018477E+02 -0.40675919314E+02  0.88430223615E+02  0.13532830804E+03  0.80953212462E+02 0.  0.
          6    2    1    2  501    0 -0.12843337379E+03  0.14885888585E+03 -0.37293918617E+03  0.45574200901E+03  0.17309836163E+03 0.  0.
         24    2    5    5    0    0 -0.11284698444E+03  0.12915894250E+03 -0.38396069036E+03  0.42791060848E+03  0.79153033922E+02 0.  0.
          5    1    5    5  501    0 -0.15586389353E+02  0.19699943347E+02  0.11021504195E+02  0.27831400533E+02  0.47000000000E+01 0. -1.
        -13    1    6    6    0    0 -0.67774170343E+02  0.37789489749E+02 -0.23468576836E+03  0.24718170154E+03  0.00000000000E+00 0.  1.
         14    1    6    6    0    0 -0.45072814093E+02  0.91369452755E+02 -0.14927492200E+03  0.18072890694E+03  0.00000000000E+00 0. -1.
         -5    1    3    3    0  503  0.80622355312E+02 -0.10818296654E+03 -0.17856195866E+02  0.13617801642E+03  0.47000000000E+01 0.  1.
         13    1    4    4    0    0  0.46382283404E+01 -0.51623550130E+02  0.70061536530E+02  0.87150002818E+02  0.00000000000E+00 0. -1.
        -14    1    4    4    0    0  0.43172790137E+02  0.10947630816E+02  0.18368687085E+02  0.48178305220E+02  0.00000000000E+00 0.  1.
</event>
<event>
12    1  0.8494789E-002  0.2311254E+03  0.7818608E-02  0.1126297E+00
         21   -1    0    0  503  502  0.00000000000E+00  0.00000000000E+00  0.54498260496E+03  0.54498260496E+03  0.00000000000E+00 0.  1.
         21   -1    0    0  501  503 -0.00000000000E+00 -0.00000000000E+00 -0.97136077387E+02  0.97136077387E+02  0.00000000000E+00 0. -1.
          6    2    1    2  501    0 -0.13886944390E+03 -0.57713495068E+02  0.21089937759E+03  0.31288576058E+03  0.17550892211E+03 0.  0.
         24    2    3    3    0    0 -0.19724396073E+02 -0.74024840485E+02  0.10198701483E+03  0.15057249811E+03  0.80012481422E+02 0.  0.
         -6    2    1    2    0  502  0.13886944390E+03  0.57713495068E+02  0.23694714998E+03  0.32923292177E+03  0.17214759635E+03 0.  0.
        -24    2    5    5    0    0  0.42603952991E+01  0.75211678675E+01  0.11575595927E+03  0.14122159131E+03  0.80432436311E+02 0.  0.
          5    1    3    3  501    0 -0.11914504783E+03  0.16311345417E+02  0.10891236276E+03  0.16231326247E+03  0.47000000000E+01 0. -1.
        -13    1    4    4    0    0  0.13232285114E+01  0.11506070720E+02  0.43074645108E+02  0.44604547395E+02  0.00000000000E+00 0.  1.
         14    1    4    4    0    0 -0.21047624584E+02 -0.85530911204E+02  0.58912369720E+02  0.10596795071E+03  0.00000000000E+00 0. -1.
         -5    1    5    5    0  502  0.13460904860E+03  0.50192327200E+02  0.12119119071E+03  0.18801133046E+03  0.47000000000E+01 0.  1.
         13    1    6    6    0    0 -0.96054708130E+01  0.36001925568E+02  0.24424672687E+02  0.44552983626E+02  0.00000000000E+00 0. -1.
        -14    1    6    6    0    0  0.13865866112E+02 -0.28480757701E+02  0.91331286581E+02  0.96668607680E+02  0.00000000000E+00 0.  1.
</event>
<event>
12    1  0.8494789E-002  0.2483077E+03  0.7818608E-02  0.1114450E+00
         21   -1    0    0  501  502  0.00000000000E+00  0.00000000000E+00  0.83608580820E+03  0.83608580820E+03  0.00000000000E+00 0. -1.
         21   -1    0    0  502  503 -0.00000000000E+00 -0.00000000000E+00 -0.30053288849E+03  0.30053288849E+03  0.00000000000E+00 0.  1.
         -6    2    1    2    0  503  0.14267988936E+02 -0.17890251206E+03 -0.22599255829E+03  0.33575192036E+03  0.17160137321E+03 0.  0.
        -24    2    3    3    0    0  0.25171141735E+02 -0.10597860492E+03 -0.48042054225E+02  0.14307279105E+03  0.79351959564E+02 0.  0.
          6    2    1    2  501    0 -0.14267988936E+02  0.17890251206E+03  0.76154547800E+03  0.80086677633E+03  0.17095728718E+03 0.  0.
         24    2    5    5    0    0  0.12394875812E+01  0.10250158469E+03  0.66052756557E+03  0.67317851468E+03  0.79778045591E+02 0.  0.
          5    1    5    5  501    0 -0.15507476517E+02  0.76400927376E+02  0.10101791243E+03  0.12768826166E+03  0.47000000000E+01 0. -1.
        -13    1    6    6    0    0  0.17733801519E+02  0.12778358648E+02  0.36701702101E+02  0.42717550294E+02  0.00000000000E+00 0.  1.
         14    1    6    6    0    0 -0.16494313938E+02  0.89723226039E+02  0.62382586347E+03  0.63046096438E+03  0.00000000000E+00 0. -1.
         -5    1    3    3    0  503 -0.10903152798E+02 -0.72923907144E+02 -0.17795050407E+03  0.19267912931E+03  0.47000000000E+01 0.  1.
         11    1    4    4    0    0  0.18363007761E+02 -0.11579743859E+03 -0.54719819820E+02  0.12938510548E+03  0.00000000000E+00 0. -1.
        -12    1    4    4    0    0  0.68081339739E+01  0.98188336717E+01  0.66777655955E+01  0.13687685569E+02  0.00000000000E+00 0.  1.
</event>
<event>
12    1  0.8494789E-002  0.1926120E+03  0.7818608E-02  0.1156550E+00
         21   -1    0    0  501  502  0.00000000000E+00  0.00000000000E+00  0.14664988899E+03  0.14664988899E+03  0.00000000000E+00 0.  1.
         21   -1    0    0  502  503 -0.00000000000E+00 -0.00000000000E+00 -0.28016635097E+03  0.28016635097E+03  0.00000000000E+00 0. -1.
         -6    2    1    2    0  503 -0.30536407746E+02  0.76908008276E+02  0.29948928008E+01  0.19073421091E+03  0.17182332756E+03 0.  0.
        -24    2    3    3    0    0 -0.39723789186E+02  0.10940918220E+03 -0.29207758046E+02  0.14383181219E+03  0.79285235007E+02 0.  0.
          6    2    1    2  501    0  0.30536407746E+02 -0.76908008276E+02 -0.13651135479E+03  0.23608202905E+03  0.17393119478E+03 0.  0.
         24    2    5    5    0    0  0.77442479939E+02 -0.25964551151E+02 -0.11911379516E+03  0.16452659241E+03  0.78799795651E+02 0.  0.
          5    1    5    5  501    0 -0.46906072192E+02 -0.50943457124E+02 -0.17397559623E+02  0.71555436643E+02  0.47000000000E+01 0. -1.
        -13    1    6    6    0    0  0.46641623103E+02 -0.35772477906E+02 -0.22995061057E+02  0.63118016558E+02  0.00000000000E+00 0.  1.
         14    1    6    6    0    0  0.30800856836E+02  0.98079267550E+01 -0.96118734108E+02  0.10140857585E+03  0.00000000000E+00 0. -1.
         -5    1    3    3    0  503  0.91873814397E+01 -0.32501173925E+02  0.32202650847E+02  0.46902398721E+02  0.47000000000E+01 0.  1.
         13    1    4    4    0    0  0.12567623667E+02  0.26973585261E+02 -0.35119086427E+02  0.46031181800E+02  0.00000000000E+00 0. -1.
        -14    1    4    4    0    0 -0.52291412853E+02  0.82435596940E+02  0.59113283813E+01  0.97800630388E+02  0.00000000000E+00 0.  1.
</event>
<event>
12    1  0.8494789E-002  0.2103387E+03  0.7818608E-02  0.1142244E+00
         21   -1    0    0  501  502  0.00000000000E+00  0.00000000000E+00  0.71843668774E+02  0.71843668774E+02  0.00000000000E+00 0. -1.
         21   -1    0    0  502  503 -0.00000000000E+00 -0.00000000000E+00 -0.61263261533E+03  0.61263261533E+03  0.00000000000E+00 0.  1.
         -6    2    1    2    0  503  0.11598983539E+02 -0.12011888461E+03 -0.31839851979E+03  0.38160184296E+03  0.17227671429E+03 0.  0.
        -24    2    3    3    0    0  0.18019020713E+02 -0.15270379644E+03 -0.26977580254E+03  0.32253195225E+03  0.87205172054E+02 0.  0.
          6    2    1    2  501    0 -0.11598983539E+02  0.12011888461E+03 -0.22239042676E+03  0.30287444114E+03  0.16647024455E+03 0.  0.
         24    2    5    5    0    0 -0.59321155937E+02  0.94301244139E+02 -0.19487664945E+03  0.24185760543E+03  0.90035929588E+02 0.  0.
          5    1    5    5  501    0  0.47722172398E+02  0.25817640476E+02 -0.27513777317E+02  0.61016835713E+02  0.47000000000E+01 0. -1.
        -11    1    6    6    0    0 -0.62177758027E+02  0.17039838640E+02 -0.71654636941E+02  0.96388882602E+02  0.00000000000E+00 0.  1.
         12    1    6    6    0    0  0.28566020900E+01  0.77261405499E+02 -0.12322201251E+03  0.14546872283E+03  0.00000000000E+00 0. -1.
         -5    1    3    3    0  503 -0.64200371745E+01  0.32584911821E+02 -0.48622717246E+02  0.59069890706E+02  0.47000000000E+01 0.  1.
         11    1    4    4    0    0 -0.18191375529E+02 -0.12161103700E+03 -0.22826370945E+03  0.25927686267E+03  0.00000000000E+00 0. -1.
        -12    1    4    4    0    0  0.36210396242E+02 -0.31092759436E+02 -0.41512093097E+02  0.63255089587E+02  0.00000000000E+00 0.  1.
</event>
<event>
12    1  0.8494789E-002  0.2165965E+03  0.7818608E-02  0.1137832E+00
         21   -1    0    0  503  502  0.00000000000E+00  0.00000000000E+00  0.11182786592E+04  0.11182786592E+04  0.00000000000E+00 0. -1.
         21   -1    0    0  501  503 -0.00000000000E+00 -0.00000000000E+00 -0.40746638282E+02  0.40746638282E+02  0.00000000000E+00 0. -1.
          6    2    1    2  501    0  0.98737651149E+02 -0.68227262472E+02  0.49242613976E+03  0.53511590205E+03  0.17164335816E+03 0.  0.
         24    2    3    3    0    0  0.96815000473E+02 -0.36630015236E+01  0.41831468211E+03  0.43669416393E+03  0.79549089552E+02 0.  0.
         -6    2    1    2    0  502 -0.98737651149E+02  0.68227262472E+02  0.58510588113E+03  0.62390939541E+03  0.18030518143E+03 0.  0.
        -24    2    5    5    0    0 -0.10139628070E+03  0.97691804957E+02  0.56525765339E+03  0.58797515381E+03  0.79835282243E+02 0.  0.
          5    1    3    3  501    0  0.19226506754E+01 -0.64564260948E+02  0.74111457659E+02  0.98421738115E+02  0.47000000000E+01 0. -1.
        -13    1    4    4    0    0 -0.54056394795E+01 -0.20993785032E+02  0.72431443805E+02  0.75606044731E+02  0.00000000000E+00 0.  1.
         14    1    4    4    0    0  0.10222063995E+03  0.17330783509E+02  0.34588323830E+03  0.36108811920E+03  0.00000000000E+00 0. -1.
         -5    1    5    5    0  502  0.26586295519E+01 -0.29464542485E+02  0.19848227745E+02  0.35934241603E+02  0.47000000000E+01 0.  1.
         13    1    6    6    0    0 -0.93598283417E+02  0.37180001142E+02  0.36353548184E+03  0.37722809771E+03  0.00000000000E+00 0. -1.
        -14    1    6    6    0    0 -0.77979972841E+01  0.60511803815E+02  0.20172217155E+03  0.21074705610E+03  0.00000000000E+00 0.  1.
</event>
<event>
12    1  0.8494789E-002  0.2000780E+03  0.7818608E-02  0.1149757E+00
         21   -1    0    0  501  502  0.00000000000E+00  0.00000000000E+00  0.11340863625E+03  0.11340863625E+03  0.00000000000E+00 0. -1.
         21   -1    0    0  502  503 -0.00000000000E+00 -0.00000000000E+00 -0.66254157109E+03  0.66254157109E+03  0.00000000000E+00 0.  1.
         -6    2    1    2    0  503  0.58599360483E+02  0.84996989112E+02 -0.54020661989E+03  0.57606804475E+03  0.17138502499E+03 0.  0.
        -24    2    3    3    0    0  0.26490078047E+02 -0.15916008788E+02 -0.12918335512E+03  0.15159583912E+03  0.73061040422E+02 0.  0.
          6    2    1    2  501    0 -0.58599360483E+02 -0.84996989112E+02 -0.89263149474E+01  0.19988216259E+03  0.17092345250E+03 0.  0.
         24    2    5    5    0    0  0.18276149212E+02 -0.25803019792E+02 -0.45021332755E+02  0.96254413868E+02  0.78982139283E+02 0.  0.
          5    1    5    5  501    0 -0.76875509695E+02 -0.59193969320E+02  0.36095017808E+02  0.10362774872E+03  0.47000000000E+01 0. -1.
        -13    1    6    6    0    0  0.21126422328E+02  0.16981833706E+02 -0.45967793563E+02  0.53364280577E+02  0.00000000000E+00 0.  1.
         14    1    6    6    0    0 -0.28502731164E+01 -0.42784853498E+02  0.94646080824E+00  0.42890133292E+02  0.00000000000E+00 0. -1.
         -5    1    3    3    0  503  0.32109282437E+02  0.10091299790E+03 -0.41102326478E+03  0.42447220563E+03  0.47000000000E+01 0.  1.
         11    1    4    4    0    0  0.51543991233E+02 -0.16927711887E+02 -0.88763744880E+02  0.10403044202E+03  0.00000000000E+00 0. -1.
        -12    1    4    4    0    0 -0.25053913187E+02  0.10117030997E+01 -0.40419610240E+02  0.47565397098E+02  0.00000000000E+00 0.  1.
</event>
<event>
12    1  0.8494789E-002  0.1816334E+03  0.7818608E-02  0.1166536E+00
         21   -1    0    0  501  502  0.00000000000E+00  0.00000000000E+00  0.84182074041E+02  0.84182074041E+02  0.00000000000E+00 0. -1.
         21   -1    0    0  502  503 -0.00000000000E+00 -0.00000000000E+00 -0.42401265147E+03  0.42401265147E+03  0.00000000000E+00 0. -1.
         -6    2    1    2    0  503  0.57781340238E+02  0.46042245629E+01 -0.24221093152E+03  0.30199024200E+03  0.17079838627E+03 0.  0.
        -24    2    3    3    0    0 -0.22630620044E+02  0.39263661042E+02 -0.14211819623E+03  0.16891881174E+03  0.79260350863E+02 0.  0.
          6    2    1    2  501    0 -0.57781340238E+02 -0.46042245629E+01 -0.97619645903E+02  0.20620448350E+03  0.17213602641E+03 0.  0.
         24    2    5    5    0    0 -0.47509200752E+02 -0.50471941435E+02 -0.11138488214E+02  0.10766289362E+03  0.81625312959E+02 0.  0.
          5    1    5    5  501    0 -0.10272139486E+02  0.45867716873E+02 -0.86481157689E+02  0.98541589879E+02  0.47000000000E+01 0. -1.
        -11    1    6    6    0    0  0.14338493042E+02 -0.39210897038E+02 -0.15766787790E+02  0.44628224549E+02  0.00000000000E+00 0.  1.
         12    1    6    6    0    0 -0.61847693793E+02 -0.11261044398E+02  0.46282995758E+01  0.63034669075E+02  0.00000000000E+00 0. -1.
         -5    1    3    3    0  503  0.80411960282E+02 -0.34659436479E+02 -0.10009273529E+03  0.13307143026E+03  0.47000000000E+01 0.  1.
         11    1    4    4    0    0  0.29784963816E+02  0.15486495020E+02 -0.47388161466E+02  0.58074206363E+02  0.00000000000E+00 0. -1.
        -12    1    4    4    0    0 -0.52415583860E+02  0.23777166021E+02 -0.94730034764E+02  0.11084460538E+03  0.00000000000E+00 0.  1.
</event>
<event>
12    1  0.8494789E-002  0.1993300E+03  0.7818608E-02  0.1150615E+00
         21   -1    0    0  503  502  0.00000000000E+00  0.00000000000E+00  0.72162648673E+02  0.72162648673E+02  0.00000000000E+00 0. -1.
         21   -1    0    0  501  503 -0.00000000000E+00 -0.00000000000E+00 -0.61371663748E+03  0.61371663748E+03  0.00000000000E+00 0. -1.
          6    2    1    2  501    0 -0.87123707522E+02  0.45503231299E+02 -0.38331728228E+03  0.43137722926E+03  0.17173552505E+03 0.  0.
         24    2    3    3    0    0  0.41427142001E+01  0.67170692002E+02 -0.20143776099E+03  0.22667918616E+03  0.79228895863E+02 0.  0.
         -6    2    1    2    0  502  0.87123707522E+02 -0.45503231299E+02 -0.15823670653E+03  0.25450205689E+03  0.17341094890E+03 0.  0.
        -24    2    5    5    0    0  0.11739344948E+03 -0.46588361962E+02 -0.78013290927E+02  0.16862236664E+03  0.79973317536E+02 0.  0.
          5    1    3    3  501    0 -0.91266421722E+02 -0.21667460703E+02 -0.18187952129E+03  0.20469804310E+03  0.47000000000E+01 0. -1.
        -11    1    4    4    0    0  0.34577000449E+02  0.61139774973E+01 -0.57130100792E+02  0.67058169505E+02  0.00000000000E+00 0.  1.
         12    1    4    4    0    0 -0.30434286248E+02  0.61056714504E+02 -0.14430766020E+03  0.15962101665E+03  0.00000000000E+00 0. -1.
         -5    1    5    5    0  502 -0.30269741960E+02  0.10851306636E+01 -0.80223415604E+02  0.85879690253E+02  0.47000000000E+01 0.  1.
         11    1    6    6    0    0  0.46544496468E+02 -0.43321726453E+02 -0.54111453942E+00  0.63588166660E+02  0.00000000000E+00 0. -1.
        -12    1    6    6    0    0  0.70848953014E+02 -0.32666355096E+01 -0.77472176387E+02  0.10503419998E+03  0.00000000000E+00 0.  1.
</event>
<event>
12    1  0.8494789E-002  0.1971772E+03  0.7818608E-02  0.1152270E+00
         21   -1    0    0  503  502  0.00000000000E+00  0.00000000000E+00  0.14233280253E+03  0.14233280253E+03  0.00000000000E+00 0. -1.
         21   -1    0    0  501  503 -0.00000000000E+00 -0.00000000000E+00 -0.31884179527E+03  0.31884179527E+03  0.00000000000E+00 0. -1.
          6    2    1    2  501    0 -0.10465330911E+02  0.95072722685E+02 -0.30084216590E+00  0.19717739809E+03  0.17242531735E+03 0.  0.
         24    2    3    3    0    0 -0.49400534978E+02  0.21160235577E+02  0.40666350077E+02  0.10401406460E+03  0.79227553169E+02 0.  0.
         -6    2    1    2    0  502  0.10465330911E+02 -0.95072722685E+02 -0.17620815057E+03  0.26399719972E+03  0.17174650908E+03 0.  0.
        -24    2    5    5    0    0  0.52763413520E+02 -0.11387077625E+03 -0.11609819541E+03  0.18798541563E+03  0.78161333289E+02 0.  0.
          5    1    3    3  501    0  0.38935204067E+02  0.73912487108E+02 -0.40967192243E+02  0.93163333487E+02  0.47000000000E+01 0. -1.
        -11    1    4    4    0    0  0.18640152746E+02 -0.82857544219E+01  0.22768889089E+01  0.20525429200E+02  0.00000000000E+00 0.  1.
         12    1    4    4    0    0 -0.68040687724E+02  0.29445989999E+02  0.38389461168E+02  0.83488635405E+02  0.00000000000E+00 0. -1.
         -5    1    5    5    0  502 -0.42298082608E+02  0.18798053568E+02 -0.60109955164E+02  0.76011784087E+02  0.47000000000E+01 0.  1.
         13    1    6    6    0    0  0.61980734633E+02 -0.40963577229E+02 -0.61228975732E+02  0.96273639145E+02  0.00000000000E+00 0. -1.
        -14    1    6    6    0    0 -0.92173211132E+01 -0.72907199023E+02 -0.54869219678E+02  0.91711776485E+02  0.00000000000E+00 0.  1.
</event>
<event>
12    1  0.8494789E-002  0.1815114E+03  0.7818608E-02  0.1168036E+00
         21   -1    0    0  501  502  0.00000000000E+00  0.00000000000E+00  0.11867454950E+04  0.11867454950E+04  0.00000000000E+00 0.  1.
         21   -1    0    0  502  503 -0.00000000000E+00 -0.00000000000E+00 -0.29155962540E+03  0.29155962540E+03  0.00000000000E+00 0.  1.
         -6    2    1    2    0  503  0.40859694013E+02  0.37268519625E+02 -0.25607432989E+03  0.31387969895E+03  0.17288130562E+03 0.  0.
        -24    2    3    3    0    0  0.99543419387E+01 -0.29439103910E+02 -0.13952585996E+03  0.17600046314E+03  0.10267885695E+03 0.  0.
          6    2    1    2  501    0 -0.40859694013E+02 -0.37268519625E+02  0.11512601995E+04  0.11644254215E+04  0.16561418432E+03 0.  0.
         24    2    5    5    0    0 -0.65781998751E+02 -0.24763268774E+02  0.11062529445E+04  0.11112723823E+04  0.78678075489E+02 0.  0.
          5    1    5    5  501    0  0.24922304738E+02 -0.12505250850E+02  0.45007255031E+02  0.53153039215E+02  0.47000000000E+01 0. -1.
        -13    1    6    6    0    0  0.19019604828E+01 -0.35886817195E+02  0.45510117196E+03  0.45651786144E+03  0.00000000000E+00 0.  1.
         14    1    6    6    0    0 -0.67683959234E+02  0.11123548421E+02  0.65115177252E+03  0.65475452081E+03  0.00000000000E+00 0. -1.
         -5    1    3    3    0  503  0.30905352074E+02  0.66707623534E+02 -0.11654846994E+03  0.13787923581E+03  0.47000000000E+01 0.  1.
         11    1    4    4    0    0 -0.43852958261E+02 -0.30550928996E+02 -0.68092276610E+02  0.86562112639E+02  0.00000000000E+00 0. -1.
        -12    1    4    4    0    0  0.53807300199E+02  0.11118250861E+01 -0.71433583349E+02  0.89438350498E+02  0.00000000000E+00 0.  1.
</event>
<event>
12    1  0.8494789E-002  0.2069428E+03  0.7818608E-02  0.1144893E+00
         21   -1    0    0  501  502  0.00000000000E+00  0.00000000000E+00  0.30168214288E+03  0.30168214288E+03  0.00000000000E+00 0. -1.
         21   -1    0    0  502  503 -0.00000000000E+00 -0.00000000000E+00 -0.14489770026E+03  0.14489770026E+03  0.00000000000E+00 0. -1.
         -6    2    1    2    0  503  0.97197634137E+02 -0.42896824029E+02  0.34153330455E+02  0.20974218816E+03  0.17758890145E+03 0.  0.
        -24    2    3    3    0    0  0.78972926733E+02  0.12490770606E+02  0.75784969453E+02  0.13794240428E+03  0.83018087161E+02 0.  0.
          6    2    1    2  501    0 -0.97197634137E+02  0.42896824029E+02  0.12263111217E+03  0.23683765498E+03  0.17252874413E+03 0.  0.
         24    2    5    5    0    0 -0.17523798244E+02  0.12983285529E+02  0.67635492363E+01  0.92997041620E+02  0.90150179943E+02 0.  0.
          5    1    5    5  501    0 -0.79673835893E+02  0.29913538500E+02  0.11586756293E+03  0.14384061336E+03  0.47000000000E+01 0. -1.
        -13    1    6    6    0    0  0.35193394632E+02 -0.87755275651E+00 -0.88428859339E+01  0.36297958017E+02  0.00000000000E+00 0.  1.
         14    1    6    6    0    0 -0.52717192876E+02  0.13860838285E+02  0.15606435170E+02  0.56699083603E+02  0.00000000000E+00 0. -1.
         -5    1    3    3    0  503  0.18224707403E+02 -0.55387594634E+02 -0.41631638998E+02  0.71799783878E+02  0.47000000000E+01 0.  1.
         11    1    4    4    0    0  0.41813324896E+02 -0.17183709429E+02 -0.36577462599E+01  0.45354306480E+02  0.00000000000E+00 0. -1.
        -12    1    4    4    0    0  0.37159601838E+02  0.29674480034E+02  0.79442715713E+02  0.92588097798E+02  0.00000000000E+00 0.  1.
</event>
<event>
12    1  0.8494789E-002  0.1810383E+03  0.7818608E-02  0.1168064E+00
         21   -1    0    0  503  502  0.00000000000E+00  0.00000000000E+00  0.46047959553E+02  0.46047959553E+02  0.00000000000E+00 0.  1.
         21   -1    0    0  501  503 -0.00000000000E+00 -0.00000000000E+00 -0.16612945793E+04  0.16612945793E+04  0.00000000000E+00 0.  1.
          6    2    1    2  501    0  0.23138640170E+02 -0.46546155117E+02 -0.14646866937E+04  0.14758326363E+04  0.17341545017E+03 0.  0.
         24    2    3    3    0    0 -0.50486129212E+01 -0.40489475329E+02 -0.14168466496E+04  0.14197794078E+04  0.81573599372E+02 0.  0.
         -6    2    1    2    0  502 -0.23138640170E+02  0.46546155117E+02 -0.15055992604E+03  0.23150990257E+03  0.16800774517E+03 0.  0.
        -24    2    5    5    0    0 -0.70751658146E+02  0.49920756229E+02 -0.68665384536E+02  0.13660366810E+03  0.80297870911E+02 0.  0.
          5    1    3    3  501    0  0.28187253091E+02 -0.60566797879E+01 -0.47840044090E+02  0.56053228501E+02  0.47000000000E+01 0. -1.
        -11    1    4    4    0    0 -0.16123474776E+00 -0.65316434777E+02 -0.94480311261E+03  0.94705817363E+03  0.00000000000E+00 0.  1.
         12    1    4    4    0    0 -0.48873781734E+01  0.24826959449E+02 -0.47204353698E+03  0.47272123412E+03  0.00000000000E+00 0. -1.
         -5    1    5    5    0  502  0.47613017977E+02 -0.33746011122E+01 -0.81894541504E+02  0.94906234472E+02  0.47000000000E+01 0.  1.
         11    1    6    6    0    0 -0.69482387974E+02  0.62515416753E+01 -0.60107289262E+02  0.92085667910E+02  0.00000000000E+00 0. -1.
        -12    1    6    6    0    0 -0.12692701722E+01  0.43669214553E+02 -0.85580952735E+01  0.44518000193E+02  0.00000000000E+00 0.  1.
</event>
<event>
12    1  0.8494789E-002  0.1825333E+03  0.7818608E-02  0.1165814E+00
         21   -1    0    0  501  502  0.00000000000E+00  0.00000000000E+00  0.46075335018E+03  0.46075335018E+03  0.00000000000E+00 0. -1.
         21   -1    0    0  502  503 -0.00000000000E+00 -0.00000000000E+00 -0.10936707476E+03  0.10936707476E+03  0.00000000000E+00 0.  1.
         -6    2    1    2    0  503 -0.35173975798E+02 -0.39698158861E+02  0.87297265894E+01  0.18274189354E+03  0.17465749093E+03 0.  0.
        -24    2    3    3    0    0  0.33332946339E+02 -0.32658493750E+02  0.46545841924E+02  0.10403418207E+03  0.80491820165E+02 0.  0.
          6    2    1    2  501    0  0.35173975798E+02  0.39698158861E+02  0.34265654883E+03  0.38737853140E+03  0.17272945245E+03 0.  0.
         24    2    5    5    0    0  0.29034821746E+02  0.56182898369E+02  0.97635342488E+02  0.14168173165E+03  0.80879626841E+02 0.  0.
          5    1    5    5  501    0  0.61391540521E+01 -0.16484739508E+02  0.24502120634E+03  0.24569679975E+03  0.47000000000E+01 0. -1.
        -11    1    6    6    0    0  0.97882184581E+01  0.63944480561E+00 -0.13067644479E+02  0.16339566777E+02  0.00000000000E+00 0.  1.
         12    1    6    6    0    0  0.19246603288E+02  0.55543453564E+02  0.11070298697E+03  0.12534216487E+03  0.00000000000E+00 0. -1.
         -5    1    3    3    0  503 -0.68506922138E+02 -0.70396651112E+01 -0.37816115334E+02  0.78707711469E+02  0.47000000000E+01 0.  1.
         11    1    4    4    0    0 -0.19350971730E+02 -0.33048607031E+02  0.30503565418E+02  0.48960576353E+02  0.00000000000E+00 0. -1.
        -12    1    4    4    0    0  0.52683918069E+02  0.39011328131E+00  0.16042276505E+02  0.55073605719E+02  0.00000000000E+00 0.  1.
</event>
<event>
12    1  0.8494789E-002  0.1755063E+03  0.7818608E-02  0.1172841E+00
         21   -1    0    0  501  502  0.00000000000E+00  0.00000000000E+00  0.71247475854E+03  0.71247475854E+03  0.00000000000E+00 0.  1.
         21   -1    0    0  502  503 -0.00000000000E+00 -0.00000000000E+00 -0.51249344715E+02  0.51249344715E+02  0.00000000000E+00 0.  1.
         -6    2    1    2    0  503  0.10221714055E+02 -0.10788780384E+02  0.17596233287E+03  0.24852603154E+03  0.17487585467E+03 0.  0.
        -24    2    3    3    0    0  0.60155024655E+02 -0.16134044806E+02  0.16957702525E+03  0.19768540298E+03  0.80275878485E+02 0.  0.
          6    2    1    2  501    0 -0.10221714055E+02  0.10788780384E+02  0.48526308096E+03  0.51519807171E+03  0.17241784750E+03 0.  0.
         24    2    5    5    0    0 -0.29707141768E+02  0.20636645071E+02  0.11628053798E+03  0.14554029842E+03  0.79702130209E+02 0.  0.
          5    1    5    5  501    0  0.19485427713E+02 -0.98478646866E+01  0.36898254298E+03  0.36965777329E+03  0.47000000000E+01 0. -1.
        -13    1    6    6    0    0 -0.31102271798E+02 -0.31124490833E+01  0.11762983929E+03  0.12171202792E+03  0.00000000000E+00 0.  1.
         14    1    6    6    0    0  0.13951300302E+01  0.23749094154E+02 -0.13493013070E+01  0.23828270499E+02  0.00000000000E+00 0. -1.
         -5    1    3    3    0  503 -0.49933310600E+02  0.53452644217E+01  0.63853076185E+01  0.50840628562E+02  0.47000000000E+01 0.  1.
         13    1    4    4    0    0 -0.72567560749E+01 -0.31613970531E+02  0.53857558157E+02  0.62870821627E+02  0.00000000000E+00 0. -1.
        -14    1    4    4    0    0  0.67411780730E+02  0.15479925725E+02  0.11571946709E+03  0.13481458135E+03  0.00000000000E+00 0.  1.
</event>
<event>
12    1  0.8494789E-002  0.1764321E+03  0.7818608E-02  0.1172172E+00
         21   -1    0    0  503  502  0.00000000000E+00  0.00000000000E+00  0.41901387989E+03  0.41901387989E+03  0.00000000000E+00 0. -1.
         21   -1    0    0  501  503 -0.00000000000E+00 -0.00000000000E+00 -0.77116458156E+02  0.77116458156E+02  0.00000000000E+00 0. -1.
          6    2    1    2  501    0 -0.24833827352E+02 -0.10604235869E+02  0.23098474715E+03  0.29065831344E+03  0.17435347131E+03 0.  0.
         24    2    3    3    0    0 -0.62374982830E+02 -0.48676230966E+02  0.19690134009E+03  0.22707699698E+03  0.80831991729E+02 0.  0.
         -6    2    1    2    0  502  0.24833827352E+02  0.10604235869E+02  0.11091267458E+03  0.20547202460E+03  0.17084484983E+03 0.  0.
        -24    2    5    5    0    0 -0.15808279580E+01  0.70668662782E+02  0.74143705525E+02  0.13010945776E+03  0.80216101958E+02 0.  0.
          5    1    3    3  501    0  0.37541155478E+02  0.38071995097E+02  0.34083407062E+02  0.63581316456E+02  0.47000000000E+01 0. -1.
        -11    1    4    4    0    0 -0.19061487300E+02 -0.38549968378E+02  0.25497903314E+02  0.49995834161E+02  0.00000000000E+00 0.  1.
         12    1    4    4    0    0 -0.43313495529E+02 -0.10126262588E+02  0.17140343677E+03  0.17708116282E+03  0.00000000000E+00 0. -1.
         -5    1    5    5    0  502  0.26414655310E+02 -0.60064426913E+02  0.36768969054E+02  0.75362566841E+02  0.47000000000E+01 0.  1.
         11    1    6    6    0    0 -0.15560959694E+02  0.49693007810E+02  0.29096109682E+00  0.52073247932E+02  0.00000000000E+00 0. -1.
        -12    1    6    6    0    0  0.13980131736E+02  0.20975654972E+02  0.73852744428E+02  0.78036209829E+02  0.00000000000E+00 0.  1.
</event>
<event>
12    1  0.8494789E-002  0.1748636E+03  0.7818608E-02  0.1173131E+00
         21   -1    0    0  503  502  0.00000000000E+00  0.00000000000E+00  0.39090889530E+03  0.39090889530E+03  0.00000000000E+00 0.  1.
         21   -1    0    0  501  503 -0.00000000000E+00 -0.00000000000E+00 -0.84294207212E+02  0.84294207212E+02  0.00000000000E+00 0.  1.
          6    2    1    2  501    0 -0.26579310571E+02 -0.35705562539E+01  0.86715378006E+02  0.19425296742E+03  0.17174239414E+03 0.  0.
         24    2    3    3    0    0 -0.20738849776E+02  0.62381861263E+02  0.74276755933E+02  0.12672044431E+03  0.78863413755E+02 0.  0.
         -6    2    1    2    0  502  0.26579310571E+02  0.35705562539E+01  0.21989931008E+03  0.28095013509E+03  0.17279485875E+03 0.  0.
        -24    2    5    5    0    0 -0.11922218844E+02 -0.53490425424E+02  0.83827181552E+02  0.12838527164E+03  0.80326936286E+02 0.  0.
          5    1    3    3  501    0 -0.58404607953E+01 -0.65952417517E+02  0.12438622072E+02  0.67532523111E+02  0.47000000000E+01 0. -1.
        -11    1    4    4    0    0  0.11580934050E+02  0.48784344251E+02  0.76631957238E+02  0.91577765574E+02  0.00000000000E+00 0.  1.
         12    1    4    4    0    0 -0.32319783826E+02  0.13597517012E+02 -0.23552013046E+01  0.35142678734E+02  0.00000000000E+00 0. -1.
         -5    1    5    5    0  502  0.38501529415E+02  0.57060981678E+02  0.13607212853E+03  0.15256486345E+03  0.47000000000E+01 0.  1.
         13    1    6    6    0    0  0.28814216103E+02  0.12765437227E+01  0.21775545975E+02  0.36139493854E+02  0.00000000000E+00 0. -1.
        -14    1    6    6    0    0 -0.40736434947E+02 -0.54766969147E+02  0.62051635577E+02  0.92245777787E+02  0.00000000000E+00 0.  1.
</event>
<event>
12    1  0.8494789E-002  0.2508681E+03  0.7818608E-02  0.1112813E+00
         21   -1    0    0  503  502  0.00000000000E+00  0.00000000000E+00  0.40324426805E+03  0.40324426805E+03  0.00000000000E+00 0.  1.
         21   -1    0    0  501  503 -0.00000000000E+00 -0.00000000000E+00 -0.19275417253E+03  0.19275417253E+03  0.00000000000E+00 0. -1.
          6    2    1    2  501    0 -0.13172394554E+03 -0.12585100712E+03 -0.25085644585E+02  0.25211917906E+03  0.17246772761E+03 0.  0.
         24    2    3    3    0    0 -0.12678710411E+03 -0.14325237415E+03  0.16046501783E+02  0.20694038490E+03  0.77269788503E+02 0.  0.
         -6    2    1    2    0  502  0.13172394554E+03  0.12585100712E+03  0.23557574010E+03  0.34387926152E+03  0.17195157271E+03 0.  0.
        -24    2    5    5    0    0  0.25176964145E+01  0.31484426926E+02  0.11088419523E+03  0.14097687702E+03  0.81126858502E+02 0.  0.
          5    1    3    3  501    0 -0.49368414342E+01  0.17401367025E+02 -0.41132146369E+02  0.45178794169E+02  0.47000000000E+01 0. -1.
        -11    1    4    4    0    0 -0.98297725147E+02 -0.54948896411E+02 -0.91496504422E+00  0.11261732170E+03  0.00000000000E+00 0.  1.
         12    1    4    4    0    0 -0.28489378959E+02 -0.88303477736E+02  0.16961466828E+02  0.94323063196E+02  0.00000000000E+00 0. -1.
         -5    1    5    5    0  502  0.12920624912E+03  0.94366580197E+02  0.12469154488E+03  0.20290238450E+03  0.47000000000E+01 0.  1.
         11    1    6    6    0    0  0.29020384192E+02  0.38606841794E+02  0.33253940397E+02  0.58638685898E+02  0.00000000000E+00 0. -1.
        -12    1    6    6    0    0 -0.26502687777E+02 -0.71224148687E+01  0.77630254828E+02  0.82338191125E+02  0.00000000000E+00 0.  1.
</event>
<event>
12    1  0.8494789E-002  0.1805721E+03  0.7818608E-02  0.1167358E+00
         21   -1    0    0  501  502  0.00000000000E+00  0.00000000000E+00  0.37757034195E+03  0.37757034195E+03  0.00000000000E+00 0. -1.
         21   -1    0    0  502  503 -0.00000000000E+00 -0.00000000000E+00 -0.18067777568E+03  0.18067777568E+03  0.00000000000E+00 0. -1.
         -6    2    1    2    0  503  0.48995270564E+02  0.35220289404E+02 -0.10339518194E+03  0.20807898353E+03  0.17019193405E+03 0.  0.
        -24    2    3    3    0    0  0.96256855820E+02  0.33316464334E+02 -0.91328162699E+02  0.15903833769E+03  0.81098646508E+02 0.  0.
          6    2    1    2  501    0 -0.48995270564E+02 -0.35220289404E+02  0.30028774822E+03  0.35016913410E+03  0.16971943150E+03 0.  0.
         24    2    5    5    0    0  0.23545056091E+01  0.19512358185E+02  0.76272601702E+02  0.11386987873E+03  0.82234808274E+02 0.  0.
          5    1    5    5  501    0 -0.51349776173E+02 -0.54732647590E+02  0.22401514651E+03  0.23629925538E+03  0.47000000000E+01 0. -1.
        -11    1    6    6    0    0  0.40260052837E+02  0.18391337731E+01  0.23932309493E+02  0.46872270109E+02  0.00000000000E+00 0.  1.
         12    1    6    6    0    0 -0.37905547228E+02  0.17673224412E+02  0.52340292209E+02  0.66997608617E+02  0.00000000000E+00 0. -1.
         -5    1    3    3    0  503 -0.47261585257E+02  0.19038250703E+01 -0.12067019246E+02  0.49040645839E+02  0.47000000000E+01 0.  1.
         13    1    4    4    0    0  0.43706284890E+02 -0.17416579673E+02 -0.71528182570E+01  0.47589278156E+02  0.00000000000E+00 0. -1.
        -14    1    4    4    0    0  0.52550570930E+02  0.50733044007E+02 -0.84175344441E+02  0.11144905953E+03  0.00000000000E+00 0.  1.
</event>
<event>
12    1  0.8494789E-002  0.2766946E+03  0.7818608E-02  0.1097587E+00
         21   -1    0    0  503  502  0.00000000000E+00  0.00000000000E+00  0.33731957309E+03  0.33731957309E+03  0.00000000000E+00 0.  1.
         21   -1    0    0  501  503 -0.00000000000E+00 -0.00000000000E+00 -0.37733181155E+03  0.37733181155E+03  0.00000000000E+00 0. -1.
          6    2    1    2  501    0  0.10555884230E+03 -0.18893461797E+03 -0.24593612521E+03  0.37019521227E+03  0.17239767530E+03 0.  0.
         24    2    3    3    0    0 -0.12083500686E+02 -0.43738239940E+02 -0.61419537924E+02  0.10753541322E+03  0.75713016284E+02 0.  0.
         -6    2    1    2    0  502 -0.10555884230E+03  0.18893461797E+03  0.20592388675E+03  0.34445617237E+03  0.17148308515E+03 0.  0.
        -24    2    5    5    0    0 -0.43569248859E+02  0.53317909277E+02  0.25316055762E+02  0.11020015860E+03  0.82231948660E+02 0.  0.
          5    1    3    3  501    0  0.11764234298E+03 -0.14519637803E+03 -0.18451658729E+03  0.26265979906E+03  0.47000000000E+01 0. -1.
        -11    1    4    4    0    0 -0.22650494523E+01 -0.64888974605E+02 -0.44113333389E+02  0.78496469073E+02  0.00000000000E+00 0.  1.
         12    1    4    4    0    0 -0.98184512339E+01  0.21150734665E+02 -0.17306204535E+02  0.29038944142E+02  0.00000000000E+00 0. -1.
         -5    1    5    5    0  502 -0.61989593440E+02  0.13561670869E+03  0.18060783099E+03  0.23425601377E+03  0.47000000000E+01 0.  1.
         13    1    6    6    0    0 -0.47566257710E+02  0.68551381233E+02  0.37843704845E+01  0.83523423071E+02  0.00000000000E+00 0. -1.
        -14    1    6    6    0    0  0.39970088515E+01 -0.15233471956E+02  0.21531685277E+02  0.26676735529E+02  0.00000000000E+00 0.  1.
</event>
<event>
12    1  0.8494789E-002  0.2878105E+03  0.7818608E-02  0.1091622E+00
         21   -1    0    0  501  502  0.00000000000E+00  0.00000000000E+00  0.21164919757E+03  0.21164919757E+03  0.00000000000E+00 0. -1.
         21   -1    0    0  502  503 -0.00000000000E+00 -0.00000000000E+00 -0.44869376401E+03  0.44869376401E+03  0.00000000000E+00 0.  1.
         -6    2    1    2    0  503 -0.75014626625E+02 -0.21828019991E+03 -0.23766261980E+03  0.37253179460E+03  0.17036131385E+03 0.  0.
        -24    2    3    3    0    0 -0.90670541096E+02 -0.23131364451E+03 -0.20081104046E+03  0.33016308875E+03  0.83399292840E+02 0.  0.
          6    2    1    2  501    0  0.75014626625E+02  0.21828019991E+03  0.61805334730E+00  0.28781116698E+03  0.17193442344E+03 0.  0.
         24    2    5    5    0    0 -0.15866966824E+02  0.16173988463E+03  0.50176900952E+00  0.18067398948E+03  0.78938506357E+02 0.  0.
          5    1    5    5  501    0  0.90881593449E+02  0.56540315284E+02  0.11628433779E+00  0.10713717750E+03  0.47000000000E+01 0. -1.
        -11    1    6    6    0    0  0.57629492902E+01  0.27696163544E+02 -0.30292716198E+02  0.41448012187E+02  0.00000000000E+00 0.  1.
         12    1    6    6    0    0 -0.21629916114E+02  0.13404372109E+03  0.30794485208E+02  0.13922597729E+03  0.00000000000E+00 0. -1.
         -5    1    3    3    0  503  0.15655914471E+02  0.13033444592E+02 -0.36851579333E+02  0.42368705848E+02  0.47000000000E+01 0.  1.
         11    1    4    4    0    0 -0.46519429698E+02 -0.12443120253E+03 -0.54300023965E+02  0.14351193018E+03  0.00000000000E+00 0. -1.
        -12    1    4    4    0    0 -0.44151111397E+02 -0.10688244198E+03 -0.14651101650E+03  0.18665115857E+03  0.00000000000E+00 0.  1.
</event>
<event>
12    1  0.8494789E-002  0.2461935E+03  0.7818608E-02  0.1115774E+00
         21   -1    0    0  501  502  0.00000000000E+00  0.00000000000E+00  0.28096644572E+03  0.28096644572E+03  0.00000000000E+00 0. -1.
         21   -1    0    0  502  503 -0.00000000000E+00 -0.00000000000E+00 -0.30187854476E+03  0.30187854476E+03  0.00000000000E+00 0. -1.
         -6    2    1    2    0  503  0.11194199335E+02  0.17543446290E+03 -0.16633689002E+03  0.29711816968E+03  0.17236207501E+03 0.  0.
        -24    2    3    3    0    0  0.61351211932E+02  0.10437016495E+03 -0.14561469889E+03  0.20757846027E+03  0.85018081010E+02 0.  0.
          6    2    1    2  501    0 -0.11194199335E+02 -0.17543446290E+03  0.14542479097E+03  0.28572682080E+03  0.17201420122E+03 0.  0.
         24    2    5    5    0    0 -0.56625342848E+02 -0.10513877125E+03  0.38305356559E+02  0.14970426277E+03  0.81752524586E+02 0.  0.
          5    1    5    5  501    0  0.45431143513E+02 -0.70295691651E+02  0.10711943441E+03  0.13602255803E+03  0.47000000000E+01 0. -1.
        -11    1    6    6    0    0 -0.13670333180E+02 -0.10048771437E+03  0.24287351596E+02  0.10428103469E+03  0.00000000000E+00 0.  1.
         12    1    6    6    0    0 -0.42955009668E+02 -0.46510568829E+01  0.14018004963E+02  0.45423228076E+02  0.00000000000E+00 0. -1.
         -5    1    3    3    0  503 -0.50157012597E+02  0.71064297952E+02 -0.20722191129E+02  0.89539709410E+02  0.47000000000E+01 0.  1.
         11    1    4    4    0    0  0.13703064200E+02  0.54718958388E+02 -0.12572832535E+02  0.57792858499E+02  0.00000000000E+00 0. -1.
        -12    1    4    4    0    0  0.47648147731E+02  0.49651206563E+02 -0.13304186635E+03  0.14978560177E+03  0.00000000000E+00 0.  1.
</event>
<event>
12    1  0.8494789E-002  0.2573412E+03  0.7818608E-02  0.1108884E+00
         21   -1    0    0  503  502  0.00000000000E+00  0.00000000000E+00  0.97438666468E+02  0.97438666468E+02  0.00000000000E+00 0. -1.
         21   -1    0    0  501  503 -0.00000000000E+00 -0.00000000000E+00 -0.68291883768E+03  0.68291883768E+03  0.00000000000E+00 0. -1.
          6    2    1    2  501    0 -0.15580766918E+03  0.11002805472E+03 -0.32744485850E+03  0.41593097874E+03  0.17145332053E+03 0.  0.
         24    2    3    3    0    0 -0.91608142522E+02  0.13991260723E+03 -0.24260732393E+03  0.30532282817E+03  0.79975785936E+02 0.  0.
         -6    2    1    2    0  502  0.15580766918E+03 -0.11002805472E+03 -0.25803531272E+03  0.36442652541E+03  0.17274914533E+03 0.  0.
        -24    2    5    5    0    0  0.16144112677E+03 -0.71473957446E+02 -0.13837324723E+03  0.23849299462E+03  0.80993758579E+02 0.  0.
          5    1    3    3  501    0 -0.64199526658E+02 -0.29884552514E+02 -0.84837534565E+02  0.11060815057E+03  0.47000000000E+01 0. -1.
        -11    1    4    4    0    0 -0.19505585067E+02  0.37650145657E+01 -0.75349340856E+02  0.77924106353E+02  0.00000000000E+00 0.  1.
         12    1    4    4    0    0 -0.72102557455E+02  0.13614759267E+03 -0.16725798308E+03  0.22739872181E+03  0.00000000000E+00 0. -1.
         -5    1    5    5    0  502 -0.56334575871E+01 -0.38554097271E+02 -0.11966206549E+03  0.12593353079E+03  0.47000000000E+01 0.  1.
         11    1    6    6    0    0  0.72343906323E+02 -0.63109330371E+02 -0.10677947970E+03  0.14359068788E+03  0.00000000000E+00 0. -1.
        -12    1    6    6    0    0  0.89097220444E+02 -0.83646270757E+01 -0.31593767529E+02  0.94902306735E+02  0.00000000000E+00 0.  1.
</event>
<event>
12    1  0.8494789E-002  0.2049927E+03  0.7818608E-02  0.1145868E+00
         21   -1    0    0  501  502  0.00000000000E+00  0.00000000000E+00  0.14524219979E+03  0.14524219979E+03  0.00000000000E+00 0.  1.
         21   -1    0    0  502  503 -0.00000000000E+00 -0.00000000000E+00 -0.32574553612E+03  0.32574553612E+03  0.00000000000E+00 0. -1.
         -6    2    1    2    0  503 -0.57941736518E+02  0.92958787602E+02 -0.17074855238E+03  0.26576305893E+03  0.17168679136E+03 0.  0.
        -24    2    3    3    0    0 -0.15869113980E+02  0.74711835732E+02 -0.18687359185E+03  0.21692492099E+03  0.79378805974E+02 0.  0.
          6    2    1    2  501    0  0.57941736518E+02 -0.92958787602E+02 -0.97547839516E+01  0.20522467698E+03  0.17327270763E+03 0.  0.
         24    2    5    5    0    0  0.88078576292E+02 -0.72261984274E+02  0.37480117430E+02  0.14530963139E+03  0.82039623354E+02 0.  0.
          5    1    5    5  501    0 -0.30136839773E+02 -0.20696803328E+02 -0.47234901382E+02  0.59915045590E+02  0.47000000000E+01 0. -1.
        -13    1    6    6    0    0  0.74727106553E+02 -0.59489445369E+02 -0.83654526406E+01  0.95880735093E+02  0.00000000000E+00 0.  1.
         14    1    6    6    0    0  0.13351469739E+02 -0.12772538905E+02  0.45845570071E+02  0.49428896299E+02  0.00000000000E+00 0. -1.
         -5    1    3    3    0  503 -0.42072622538E+02  0.18246951870E+02  0.16125039468E+02  0.48838137942E+02  0.47000000000E+01 0.  1.
         11    1    4    4    0    0 -0.31095934797E+02  0.16280178400E+02 -0.12749245330E+03  0.13223587644E+03  0.00000000000E+00 0. -1.
        -12    1    4    4    0    0  0.15226820817E+02  0.58431657332E+02 -0.59381138548E+02  0.84689044545E+02  0.00000000000E+00 0.  1.
</event>
<event>
12    1  0.8494789E-002  0.1944894E+03  0.7818608E-02  0.1155111E+00
         21   -1    0    0  501  502  0.00000000000E+00  0.00000000000E+00  0.95219434138E+02  0.95219434138E+02  0.00000000000E+00 0. -1.
         21   -1    0    0  502  503 -0.00000000000E+00 -0.00000000000E+00 -0.40859715412E+03  0.40859715412E+03  0.00000000000E+00 0. -1.
         -6    2    1    2    0  503 -0.88216942685E+02  0.12681809565E+02 -0.20953662271E+03  0.28588760614E+03  0.17286720284E+03 0.  0.
        -24    2    3    3    0    0 -0.11045060739E+02  0.36008417344E+01 -0.26623119873E+02  0.87097760174E+02  0.82111326184E+02 0.  0.
          6    2    1    2  501    0  0.88216942685E+02 -0.12681809565E+02 -0.10384109728E+03  0.21792898212E+03  0.16960840337E+03 0.  0.
         24    2    5    5    0    0  0.10448720802E+03 -0.46597432700E+02 -0.41093340839E+02  0.14461894212E+03  0.78339507175E+02 0.  0.
          5    1    5    5  501    0 -0.16270265336E+02  0.33915623135E+02 -0.62747756439E+02  0.73310040000E+02  0.47000000000E+01 0. -1.
        -13    1    6    6    0    0 -0.67100513590E+00  0.15845889275E+02 -0.87512951679E+01  0.18114293305E+02  0.00000000000E+00 0.  1.
         14    1    6    6    0    0  0.10515821316E+03 -0.62443321976E+02 -0.32342045671E+02  0.12650464881E+03  0.00000000000E+00 0. -1.
         -5    1    3    3    0  503 -0.77171881946E+02  0.90809678308E+01 -0.18291350284E+03  0.19878984597E+03  0.47000000000E+01 0.  1.
         11    1    4    4    0    0 -0.36561152124E+02 -0.24561435921E+02 -0.79556478494E+01  0.44757952498E+02  0.00000000000E+00 0. -1.
        -12    1    4    4    0    0  0.25516091385E+02  0.28162277655E+02 -0.18667472023E+02  0.42339807676E+02  0.00000000000E+00 0.  1.
</event>
<event>
12    1  0.8494789E-002  0.1952436E+03  0.7818608E-02  0.1153868E+00
         21   -1    0    0  503  502  0.00000000000E+00  0.00000000000E+00  0.41062964956E+03  0.41062964956E+03  0.00000000000E+00 0. -1.
         21   -1    0    0  501  503 -0.00000000000E+00 -0.00000000000E+00 -0.15270950885E+03  0.15270950885E+03  0.00000000000E+00 0. -1.
          6    2    1    2  501    0 -0.88786422913E+02  0.26889529444E+02 -0.47632337069E+02  0.20073417828E+03  0.17152053845E+03 0.  0.
         24    2    3    3    0    0 -0.38508801432E+02  0.58826624194E+02 -0.78898204387E+02  0.13329930821E+03  0.81242103690E+02 0.  0.
         -6    2    1    2    0  502  0.88786422913E+02 -0.26889529444E+02  0.30555247778E+03  0.36260498013E+03  0.17179633072E+03 0.  0.
        -24    2    5    5    0    0  0.91122448129E+02  0.35877965966E+02  0.24157901035E+03  0.27282797846E+03  0.80524273316E+02 0.  0.
          5    1    3    3  501    0 -0.50277621481E+02 -0.31937094750E+02  0.31265867318E+02  0.67434870074E+02  0.47000000000E+01 0. -1.
        -13    1    4    4    0    0 -0.60469788954E+02  0.50700259634E+02 -0.41458485054E+02  0.89139877081E+02  0.00000000000E+00 0.  1.
         14    1    4    4    0    0  0.21960987522E+02  0.81263645598E+01 -0.37439719332E+02  0.44159431128E+02  0.00000000000E+00 0. -1.
         -5    1    5    5    0  502 -0.23360252155E+01 -0.62767495411E+02  0.63973467421E+02  0.89777001664E+02  0.47000000000E+01 0.  1.
         11    1    6    6    0    0  0.15360242673E+02 -0.10787114984E+02  0.12380394349E+03  0.12521867005E+03  0.00000000000E+00 0. -1.
        -12    1    6    6    0    0  0.75762205456E+02  0.46665080951E+02  0.11777506686E+03  0.14760930841E+03  0.00000000000E+00 0.  1.
</event>
<event>
12    1  0.8494789E-002  0.1926067E+03  0.7818608E-02  0.1157876E+00
         21   -1    0    0  501  502  0.00000000000E+00  0.00000000000E+00  0.10439375932E+03  0.10439375932E+03  0.00000000000E+00 0. -1.
         21   -1    0    0  502  503 -0.00000000000E+00 -0.00000000000E+00 -0.34680860387E+03  0.34680860387E+03  0.00000000000E+00 0. -1.
         -6    2    1    2    0  503  0.53583032629E+02 -0.62115745900E+02 -0.14724212099E+03  0.23636476985E+03  0.16570623090E+03 0.  0.
        -24    2    3    3    0    0  0.34038914728E+01  0.20877520644E+02 -0.96417207287E+02  0.12676964974E+03  0.79541240180E+02 0.  0.
          6    2    1    2  501    0 -0.53583032629E+02  0.62115745900E+02 -0.95172723559E+02  0.21483759333E+03  0.17426369939E+03 0.  0.
         24    2    5    5    0    0 -0.45557859598E+02 -0.78118755554E+01  0.42602105891E+01  0.92922565391E+02  0.80497886891E+02 0.  0.
          5    1    5    5  501    0 -0.80251730317E+01  0.69927621456E+02 -0.99432934148E+02  0.12191502794E+03  0.47000000000E+01 0. -1.
        -11    1    6    6    0    0 -0.60786845246E+02  0.10727635328E+02  0.19218869058E+02  0.64648957011E+02  0.00000000000E+00 0.  1.
         12    1    6    6    0    0  0.15228985648E+02 -0.18539510884E+02 -0.14958658469E+02  0.28273608381E+02  0.00000000000E+00 0. -1.
         -5    1    3    3    0  503  0.50179141157E+02 -0.82993266544E+02 -0.50824913702E+02  0.10959512011E+03  0.47000000000E+01 0.  1.
         11    1    4    4    0    0  0.13963489594E+02 -0.28333902335E+02 -0.31306899637E+02  0.44473711651E+02  0.00000000000E+00 0. -1.
        -12    1    4    4    0    0 -0.10559598121E+02  0.49211422978E+02 -0.65110307650E+02  0.82295938091E+02  0.00000000000E+00 0.  1.
</event>
<event>
12    1  0.8494789E-002  0.1845756E+03  0.7818608E-02  0.1164202E+00
         21   -1    0    0  503  502  0.00000000000E+00  0.00000000000E+00  0.23741188121E+03  0.23741188121E+03  0.00000000000E+00 0. -1.
         21   -1    0    0  501  503 -0.00000000000E+00 -0.00000000000E+00 -0.16999172738E+03  0.16999172738E+03  0.00000000000E+00 0. -1.
          6    2    1    2  501    0 -0.57295461541E+02  0.10282132040E+02 -0.50132281689E+02  0.19126264726E+03  0.17515610871E+03 0.  0.
         24    2    3    3    0    0  0.35826762301E+02  0.59889521329E+01 -0.44888708510E+02  0.97775936833E+02  0.78903188955E+02 0.  0.
         -6    2    1    2    0  502  0.57295461541E+02 -0.10282132040E+02  0.11755243552E+03  0.21614096133E+03  0.17178430637E+03 0.  0.
        -24    2    5    5    0    0 -0.24077112491E+02 -0.41320293944E+02  0.50523915576E+02  0.10614198049E+03  0.80164705079E+02 0.  0.
          5    1    3    3  501    0 -0.93122223842E+02  0.42931799070E+01 -0.52435731789E+01  0.93486710428E+02  0.47000000000E+01 0. -1.
        -13    1    4    4    0    0 -0.98327005600E+00  0.27665659009E+02 -0.47499582829E+02  0.54977867159E+02  0.00000000000E+00 0.  1.
         14    1    4    4    0    0  0.36810032357E+02 -0.21676706876E+02  0.26108743192E+01  0.42798069674E+02  0.00000000000E+00 0. -1.
         -5    1    5    5    0  502  0.81372574032E+02  0.31038161904E+02  0.67028519940E+02  0.10999898083E+03  0.47000000000E+01 0.  1.
         13    1    6    6    0    0 -0.28166935265E+02 -0.62298079835E+01  0.62502377899E+02  0.68838463033E+02  0.00000000000E+00 0. -1.
        -14    1    6    6    0    0  0.40898227739E+01 -0.35090485961E+02 -0.11978462323E+02  0.37303517460E+02  0.00000000000E+00 0.  1.
</event>
<event>
12    1  0.8494789E-002  0.1773365E+03  0.7818608E-02  0.1170939E+00
         21   -1    0    0  503  502  0.00000000000E+00  0.00000000000E+00  0.13852599886E+03  0.13852599886E+03  0.00000000000E+00 0.  1.
         21   -1    0    0  501  503 -0.00000000000E+00 -0.00000000000E+00 -0.22759590981E+03  0.22759590981E+03  0.00000000000E+00 0.  1.
          6    2    1    2  501    0  0.37574289538E+02 -0.35818276021E+02 -0.22178599360E+02  0.17658912913E+03  0.16732320259E+03 0.  0.
         24    2    3    3    0    0 -0.13043034182E+01 -0.81479272730E+02  0.57300508284E+01  0.11027582453E+03  0.74076655582E+02 0.  0.
         -6    2    1    2    0  502 -0.37574289538E+02  0.35818276021E+02 -0.66891311589E+02  0.18953277954E+03  0.16956842520E+03 0.  0.
        -24    2    5    5    0    0 -0.15115636110E+02  0.32234847241E+02 -0.11056187089E+03  0.14007128113E+03  0.78284536610E+02 0.  0.
          5    1    3    3  501    0  0.38878592956E+02  0.45660996708E+02 -0.27908650188E+02  0.66313304592E+02  0.47000000000E+01 0. -1.
        -11    1    4    4    0    0  0.28475225945E+02 -0.54802369332E+02  0.24077180436E+02  0.66286113137E+02  0.00000000000E+00 0.  1.
         12    1    4    4    0    0 -0.29779529364E+02 -0.26676903398E+02 -0.18347129607E+02  0.43989711398E+02  0.00000000000E+00 0. -1.
         -5    1    5    5    0  502 -0.22458653428E+02  0.35834287808E+01  0.43670559299E+02  0.49461498411E+02  0.47000000000E+01 0.  1.
         13    1    6    6    0    0  0.18208808768E+02 -0.17085074868E+02 -0.21501234782E+02  0.32950927106E+02  0.00000000000E+00 0. -1.
        -14    1    6    6    0    0 -0.33324444878E+02  0.49319922108E+02 -0.89060636106E+02  0.10712035403E+03  0.00000000000E+00 0.  1.
</event>
<event>
12    1  0.8494789E-002  0.2521666E+03  0.7818608E-02  0.1112103E+00
         21   -1    0    0  503  502  0.00000000000E+00  0.00000000000E+00  0.71514922488E+03  0.71514922488E+03  0.00000000000E+00 0.  1.
         21   -1    0    0  501  503 -0.00000000000E+00 -0.00000000000E+00 -0.88607574299E+02  0.88607574299E+02  0.00000000000E+00 0. -1.
          6    2    1    2  501    0  0.14788634243E+03 -0.11066651800E+03  0.30432364400E+03  0.39522253514E+03  0.17166980951E+03 0.  0.
         24    2    3    3    0    0  0.17393872323E+02 -0.86939209308E+02  0.14456811437E+03  0.18753240735E+03  0.80046806331E+02 0.  0.
         -6    2    1    2    0  502 -0.14788634243E+03  0.11066651800E+03  0.32221800658E+03  0.40853426405E+03  0.17017153889E+03 0.  0.
        -24    2    5    5    0    0 -0.16870051401E+03  0.68376262586E+02  0.24157513169E+03  0.31500855254E+03  0.87958326562E+02 0.  0.
          5    1    3    3  501    0  0.13049247011E+03 -0.23727308694E+02  0.15975552964E+03  0.20769012779E+03  0.47000000000E+01 0. -1.
        -11    1    4    4    0    0  0.21653228593E+02  0.86667215068E+01  0.34941169288E+02  0.42010233055E+02  0.00000000000E+00 0.  1.
         12    1    4    4    0    0 -0.42593562700E+01 -0.95605930815E+02  0.10962694508E+03  0.14552217429E+03  0.00000000000E+00 0. -1.
         -5    1    5    5    0  502  0.20814171576E+02  0.42290255416E+02  0.80642874895E+02  0.93525711507E+02  0.47000000000E+01 0.  1.
         11    1    6    6    0    0 -0.50399176662E+02  0.61826031290E+02  0.67810216492E+02  0.10469365126E+03  0.00000000000E+00 0. -1.
        -12    1    6    6    0    0 -0.11830133735E+03  0.65502312964E+01  0.17376491519E+03  0.21031490128E+03  0.00000000000E+00 0.  1.
</event>
<event>
12    1  0.8494789E-002  0.1788988E+03  0.7818608E-02  0.1169645E+00
         21   -1    0    0  501  502  0.00000000000E+00  0.00000000000E+00  0.18363925073E+03  0.18363925073E+03  0.00000000000E+00 0. -1.
         21   -1    0    0  502  503 -0.00000000000E+00 -0.00000000000E+00 -0.20423393236E+03  0.20423393236E+03  0.00000000000E+00 0. -1.
         -6    2    1    2    0  503  0.40843104200E+02  0.78735022363E+01 -0.88167797284E+02  0.19663795412E+03  0.17077111384E+03 0.  0.
        -24    2    3    3    0    0  0.62906269465E+02  0.31620648657E+02 -0.35352326156E+01  0.10588845700E+03  0.79011412445E+02 0.  0.
          6    2    1    2  501    0 -0.40843104200E+02 -0.78735022363E+01  0.67573115649E+02  0.19123522898E+03  0.17399607940E+03 0.  0.
         24    2    5    5    0    0 -0.93056790210E+01  0.56106481477E+02  0.90960662197E+01  0.98878838765E+02  0.80372591155E+02 0.  0.
          5    1    5    5  501    0 -0.31537425179E+02 -0.63979983714E+02  0.58477049430E+02  0.92356390212E+02  0.47000000000E+01 0. -1.
        -11    1    6    6    0    0  0.33255852083E+02  0.13781485543E+02  0.14067160577E+02  0.38649269698E+02  0.00000000000E+00 0.  1.
         12    1    6    6    0    0 -0.42561531104E+02  0.42324995935E+02 -0.49710943573E+01  0.60229569066E+02  0.00000000000E+00 0. -1.
         -5    1    3    3    0  503 -0.22063165265E+02 -0.23747146421E+02 -0.84632564668E+02  0.90749497117E+02  0.47000000000E+01 0.  1.
         13    1    4    4    0    0 -0.13099590474E+02  0.63977873888E+01 -0.19383203984E+02  0.24253650256E+02  0.00000000000E+00 0. -1.
        -14    1    4    4    0    0  0.76005859939E+02  0.25222861269E+02  0.15847971368E+02  0.81634806744E+02  0.00000000000E+00 0.  1.
</event>
<event>
12    1  0.8494789E-002  0.1774602E+03  0.7818608E-02  0.1170649E+00
         21   -1    0    0  503  502  0.00000000000E+00  0.00000000000E+00  0.14211142409E+04  0.14211142409E+04  0.00000000000E+00 0.  1.
         21   -1    0    0  501  503 -0.00000000000E+00 -0.00000000000E+00 -0.23422401206E+02  0.23422401206E+02  0.00000000000E+00 0.  1.
          6    2    1    2  501    0 -0.34551393865E+02  0.44474129033E+01  0.51665553203E+03  0.54580582179E+03  0.17250355947E+03 0.  0.
         24    2    3    3    0    0 -0.41960723372E+02  0.56131938717E+02  0.21539709563E+03  0.24002007348E+03  0.79386585872E+02 0.  0.
         -6    2    1    2    0  502  0.34551393865E+02 -0.44474129033E+01  0.88103630765E+03  0.89873082029E+03  0.17400728046E+03 0.  0.
        -24    2    5    5    0    0 -0.48143317686E+02 -0.69229260813E+01  0.38983640864E+03  0.40059030370E+03  0.78322793462E+02 0.  0.
          5    1    3    3  501    0  0.74093295074E+01 -0.51684525814E+02  0.30125843640E+03  0.30578574831E+03  0.47000000000E+01 0. -1.
        -13    1    4    4    0    0 -0.27998027295E+02  0.33320714777E+02  0.20766921642E+03  0.21218073195E+03  0.00000000000E+00 0.  1.
         14    1    4    4    0    0 -0.13962696077E+02  0.22811223940E+02  0.77278792152E+01  0.27839341525E+02  0.00000000000E+00 0. -1.
         -5    1    5    5    0  502  0.82694711551E+02  0.24755131780E+01  0.49119989901E+03  0.49814051659E+03  0.47000000000E+01 0.  1.
         13    1    6    6    0    0 -0.56065446765E+02  0.18885102228E+02  0.19164436495E+03  0.20056805335E+03  0.00000000000E+00 0. -1.
        -14    1    6    6    0    0  0.79221290793E+01 -0.25808028310E+02  0.19819204369E+03  0.20002225036E+03  0.00000000000E+00 0.  1.
</event>
<event>
12    1  0.8494789E-002  0.3450755E+03  0.7818608E-02  0.1065623E+00
         21   -1    0    0  501  502  0.00000000000E+00  0.00000000000E+00  0.33468567600E+03  0.33468567600E+03  0.00000000000E+00 0.  1.
         21   -1    0    0  502  503 -0.00000000000E+00 -0.00000000000E+00 -0.84316619139E+03  0.84316619139E+03  0.00000000000E+00 0. -1.
         -6    2    1    2    0  503 -0.25932778628E+03 -0.12512666565E+03 -0.70765235017E+03  0.78730486648E+03  0.19018286171E+03 0.  0.
        -24    2    3    3    0    0 -0.14569484003E+03 -0.13822209526E+02 -0.20137872931E+03  0.25661079490E+03  0.62270920612E+02 0.  0.
          6    2    1    2  501    0  0.25932778628E+03  0.12512666565E+03  0.19917183478E+03  0.39054700091E+03  0.17306055865E+03 0.  0.
         24    2    5    5    0    0  0.22727210716E+03  0.38546722931E+02  0.13781026809E+03  0.27959212310E+03  0.77727889237E+02 0.  0.
          5    1    5    5  501    0  0.32055679116E+02  0.86579942715E+02  0.61361566689E+02  0.11095487781E+03  0.47000000000E+01 0. -1.
        -13    1    6    6    0    0  0.15660492749E+02 -0.38168168321E+01  0.39072641471E+02  0.42266895266E+02  0.00000000000E+00 0.  1.
         14    1    6    6    0    0  0.21161161441E+03  0.42363539763E+02  0.98737626618E+02  0.23732522783E+03  0.00000000000E+00 0. -1.
         -5    1    3    3    0  503 -0.11363294624E+03 -0.11130445612E+03 -0.50627362087E+03  0.53069407158E+03  0.47000000000E+01 0.  1.
         13    1    4    4    0    0 -0.90150708524E+02 -0.26171384347E+02 -0.16260184963E+03  0.18775370332E+03  0.00000000000E+00 0. -1.
        -14    1    4    4    0    0 -0.55544131508E+02  0.12349174821E+02 -0.38776879674E+02  0.68857091581E+02  0.00000000000E+00 0.  1.
</event>
<event>
12    1  0.8494789E-002  0.1808185E+03  0.7818608E-02  0.1167019E+00
         21   -1    0    0  501  502  0.00000000000E+00  0.00000000000E+00  0.95815569710E+03  0.95815569710E+03  0.00000000000E+00 0.  1.
         21   -1    0    0  502  503 -0.00000000000E+00 -0.00000000000E+00 -0.37428944926E+02  0.37428944926E+02  0.00000000000E+00 0.  1.
         -6    2    1    2    0  503  0.50265496383E+02 -0.23990654236E+02  0.31234758343E+03  0.36091042719E+03  0.17202660248E+03 0.  0.
        -24    2    3    3    0    0  0.19341750794E+02  0.48379438578E+02  0.21411441719E+03  0.23495188907E+03  0.81502963923E+02 0.  0.
          6    2    1    2  501    0 -0.50265496383E+02  0.23990654236E+02  0.60837916874E+03  0.63467421484E+03  0.17199992559E+03 0.  0.
         24    2    5    5    0    0 -0.60452865317E+02  0.13182365173E+02  0.60963923985E+03  0.61904477539E+03  0.87909655263E+02 0.  0.
          5    1    5    5  501    0  0.10187368933E+02  0.10808289063E+02 -0.12600711125E+01  0.15629439449E+02  0.47000000000E+01 0. -1.
        -11    1    6    6    0    0 -0.40309340390E+02  0.45905750735E+02  0.24989710167E+03  0.25725618029E+03  0.00000000000E+00 0.  1.
         12    1    6    6    0    0 -0.20143524927E+02 -0.32723385563E+02  0.35974213818E+03  0.36178859510E+03  0.00000000000E+00 0. -1.
         -5    1    3    3    0  503  0.30923745589E+02 -0.72370092814E+02  0.98233166239E+02  0.12595853812E+03  0.47000000000E+01 0.  1.
         11    1    4    4    0    0 -0.19221840946E+02 -0.33654678376E+01  0.11524013144E+03  0.11688068034E+03  0.00000000000E+00 0. -1.
        -12    1    4    4    0    0  0.38563591740E+02  0.51744906415E+02  0.98874285752E+02  0.11807120873E+03  0.00000000000E+00 0.  1.
</event>
<event>
12    1  0.8494789E-002  0.2257068E+03  0.7818608E-02  0.1129905E+00
         21   -1    0    0  503  502  0.00000000000E+00  0.00000000000E+00  0.62238484302E+03  0.62238484302E+03  0.00000000000E+00 0. -1.
         21   -1    0    0  501  503 -0.00000000000E+00 -0.00000000000E+00 -0.12118379182E+03  0.12118379182E+03  0.00000000000E+00 0.  1.
          6    2    1    2  501    0  0.12832084588E+03 -0.66788959348E+02  0.37254463550E+02  0.22763260533E+03  0.17176059902E+03 0.  0.
         24    2    3    3    0    0  0.15850223309E+03 -0.73156147703E+02  0.41678772956E+02  0.19611877130E+03  0.79061194656E+02 0.  0.
         -6    2    1    2    0  502 -0.12832084588E+03  0.66788959348E+02  0.46394658765E+03  0.51593602951E+03  0.17325283772E+03 0.  0.
        -24    2    5    5    0    0 -0.13546319025E+03  0.10258474214E+03  0.39997043175E+03  0.44212959570E+03  0.81414543448E+02 0.  0.
          5    1    3    3  501    0 -0.30181387206E+02  0.63671883555E+01 -0.44243094064E+01  0.31513834025E+02  0.47000000000E+01 0. -1.
        -13    1    4    4    0    0  0.62888571711E+02  0.22804689874E+01 -0.10180258712E+02  0.63748024739E+02  0.00000000000E+00 0.  1.
         14    1    4    4    0    0  0.95613661377E+02 -0.75436616691E+02  0.51859031668E+02  0.13237074656E+03  0.00000000000E+00 0. -1.
         -5    1    5    5    0  502  0.71423443649E+01 -0.35795782792E+02  0.63976155898E+02  0.73806433813E+02  0.47000000000E+01 0.  1.
         13    1    6    6    0    0 -0.74929972707E+02  0.10338485782E+03  0.26168664137E+03  0.29117490947E+03  0.00000000000E+00 0. -1.
        -14    1    6    6    0    0 -0.60533217540E+02 -0.80011567586E+00  0.13828379038E+03  0.15095468623E+03  0.00000000000E+00 0.  1.
</event>
<event>
12    1  0.8494789E-002  0.1928242E+03  0.7818608E-02  0.1156349E+00
         21   -1    0    0  503  502  0.00000000000E+00  0.00000000000E+00  0.92169049145E+02  0.92169049145E+02  0.00000000000E+00 0.  1.
         21   -1    0    0  501  503 -0.00000000000E+00 -0.00000000000E+00 -0.52242781334E+03  0.52242781334E+03  0.00000000000E+00 0.  1.
          6    2    1    2  501    0  0.58856356582E+02 -0.55061957316E+02 -0.36495147586E+03  0.41275992995E+03  0.17517217299E+03 0.  0.
         24    2    3    3    0    0  0.26362301767E+02 -0.48987923798E+00 -0.33065133447E+03  0.34042345918E+03  0.76567719295E+02 0.  0.
         -6    2    1    2    0  502 -0.58856356582E+02  0.55061957316E+02 -0.65307288337E+02  0.20183693253E+03  0.17313929528E+03 0.  0.
        -24    2    5    5    0    0 -0.19832506416E+02  0.10178070243E+03 -0.56263423483E+02  0.14011672905E+03  0.75594214312E+02 0.  0.
          5    1    3    3  501    0  0.32494054815E+02 -0.54572078078E+02 -0.34300141386E+02  0.72336470768E+02  0.47000000000E+01 0. -1.
        -11    1    4    4    0    0  0.50651627759E+02 -0.35477472101E+00 -0.15415581534E+03  0.16226437891E+03  0.00000000000E+00 0.  1.
         12    1    4    4    0    0 -0.24289325992E+02 -0.13510451697E+00 -0.17649551913E+03  0.17815908027E+03  0.00000000000E+00 0. -1.
         -5    1    5    5    0  502 -0.39023850166E+02 -0.46718745119E+02 -0.90438648544E+01  0.61720203489E+02  0.47000000000E+01 0.  1.
         13    1    6    6    0    0  0.18424462547E+02  0.79518640814E+02 -0.49164989077E+02  0.95288358198E+02  0.00000000000E+00 0. -1.
        -14    1    6    6    0    0 -0.38256968963E+02  0.22262061621E+02 -0.70984344059E+01  0.44828370848E+02  0.00000000000E+00 0.  1.
</event>
<event>
12    1  0.8494789E-002  0.2208320E+03  0.7818608E-02  0.1133516E+00
         21   -1    0    0  503  502  0.00000000000E+00  0.00000000000E+00  0.89175085099E+03  0.89175085099E+03  0.00000000000E+00 0. -1.
         21   -1    0    0  501  503 -0.00000000000E+00 -0.00000000000E+00 -0.97441513056E+02  0.97441513056E+02  0.00000000000E+00 0.  1.
          6    2    1    2  501    0  0.13284723533E+03 -0.31611368475E+02  0.67577292789E+02  0.22964891317E+03  0.17182626769E+03 0.  0.
         24    2    3    3    0    0  0.13054645164E+03 -0.68382998757E+02  0.22748443776E+02  0.17143240260E+03  0.84575211578E+02 0.  0.
         -6    2    1    2    0  502 -0.13284723533E+03  0.31611368475E+02  0.72673204514E+03  0.75954345087E+03  0.17354861502E+03 0.  0.
        -24    2    5    5    0    0 -0.14896063564E+03  0.39558037953E+02  0.71877305633E+03  0.73933882942E+03  0.78949913506E+02 0.  0.
          5    1    3    3  501    0  0.23007836943E+01  0.36771630283E+02  0.44828849013E+02  0.58216510571E+02  0.47000000000E+01 0. -1.
        -13    1    4    4    0    0  0.11813378807E+03 -0.87334281601E+02  0.23429780132E+02  0.14876768205E+03  0.00000000000E+00 0.  1.
         14    1    4    4    0    0  0.12412663566E+02  0.18951282844E+02 -0.68133635621E+00  0.22664720547E+02  0.00000000000E+00 0. -1.
         -5    1    5    5    0  502  0.16113400306E+02 -0.79466694779E+01  0.79589888121E+01  0.20204621454E+02  0.47000000000E+01 0.  1.
         13    1    6    6    0    0 -0.11715256033E+03  0.55796968036E+02  0.63738930890E+03  0.65046380002E+03  0.00000000000E+00 0. -1.
        -14    1    6    6    0    0 -0.31808075306E+02 -0.16238930083E+02  0.81383747426E+02  0.88875029396E+02  0.00000000000E+00 0.  1.
</event>
<event>
12    1  0.8494789E-002  0.2529196E+03  0.7818608E-02  0.1111508E+00
         21   -1    0    0  501  502  0.00000000000E+00  0.00000000000E+00  0.34796946495E+03  0.34796946495E+03  0.00000000000E+00 0. -1.
         21   -1    0    0  502  503 -0.00000000000E+00 -0.00000000000E+00 -0.18376702472E+03  0.18376702472E+03  0.00000000000E+00 0. -1.
         -6    2    1    2    0  503  0.12280624230E+03 -0.13891116925E+03  0.75991399502E+02  0.26387552719E+03  0.17169133630E+03 0.  0.
        -24    2    3    3    0    0  0.86168738662E+02 -0.13865635601E+03  0.11037611011E+03  0.21340999513E+03  0.81916443726E+02 0.  0.
          6    2    1    2  501    0 -0.12280624230E+03  0.13891116925E+03  0.88211040728E+02  0.26786096248E+03  0.17201924725E+03 0.  0.
         24    2    5    5    0    0 -0.15374322394E+03  0.95432365007E+02  0.81488939012E+02  0.21387226086E+03  0.79728173093E+02 0.  0.
          5    1    5    5  501    0  0.30936981639E+02  0.43478804241E+02  0.67221017153E+01  0.53988701620E+02  0.47000000000E+01 0. -1.
        -11    1    6    6    0    0 -0.45085269282E+02 -0.55301241079E+01  0.17126893243E+01  0.45455440638E+02  0.00000000000E+00 0.  1.
         12    1    6    6    0    0 -0.10865795466E+03  0.10096248912E+03  0.79776249688E+02  0.16841682022E+03  0.00000000000E+00 0. -1.
         -5    1    3    3    0  503  0.36637503643E+02 -0.25481323527E+00 -0.34384710605E+02  0.50465532063E+02  0.47000000000E+01 0.  1.
         11    1    4    4    0    0  0.83023095022E+00 -0.52335117245E+02  0.65847966048E+02  0.84116635769E+02  0.00000000000E+00 0. -1.
        -12    1    4    4    0    0  0.85338507712E+02 -0.86321238769E+02  0.44528144060E+02  0.12929335936E+03  0.00000000000E+00 0.  1.
</event>
<event>
12    1  0.8494789E-002  0.1856057E+03  0.7818608E-02  0.1163749E+00
         21   -1    0    0  501  502  0.00000000000E+00  0.00000000000E+00  0.79475612897E+03  0.79475612897E+03  0.00000000000E+00 0.  1.
         21   -1    0    0  502  503 -0.00000000000E+00 -0.00000000000E+00 -0.92106289781E+02  0.92106289781E+02  0.00000000000E+00 0. -1.
         -6    2    1    2    0  503 -0.33936353937E+02  0.64616616802E+02  0.26973926745E+02  0.18755550433E+03  0.17065313122E+03 0.  0.
        -24    2    3    3    0    0 -0.15738719926E+02  0.97712793711E+02 -0.18136337727E+02  0.12853401019E+03  0.79978545056E+02 0.  0.
          6    2    1    2  501    0  0.33936353937E+02 -0.64616616802E+02  0.67567591245E+03  0.69930691443E+03  0.16481880542E+03 0.  0.
         24    2    5    5    0    0  0.22541027955E+02 -0.31485408765E+02  0.16315491520E+03  0.18556827171E+03  0.79477218155E+02 0.  0.
          5    1    5    5  501    0  0.11395325983E+02 -0.33131208037E+02  0.51252099725E+03  0.51373864272E+03  0.47000000000E+01 0. -1.
        -11    1    6    6    0    0  0.12207110681E+02  0.25577857362E+02  0.73690032769E+02  0.78952272088E+02  0.00000000000E+00 0.  1.
         12    1    6    6    0    0  0.10333917274E+02 -0.57063266127E+02  0.89464882431E+02  0.10661599962E+03  0.00000000000E+00 0. -1.
         -5    1    3    3    0  503 -0.18197634011E+02 -0.33096176909E+02  0.45110264473E+02  0.59021494139E+02  0.47000000000E+01 0.  1.
         11    1    4    4    0    0 -0.33977554219E+02  0.16399057199E+02 -0.24455196542E+02  0.44960648412E+02  0.00000000000E+00 0. -1.
        -12    1    4    4    0    0  0.18238834293E+02  0.81313736512E+02  0.63188588149E+01  0.83573361776E+02  0.00000000000E+00 0.  1.
</event>
<event>
12    1  0.8494789E-002  0.1994644E+03  0.7818608E-02  0.1151424E+00
         21   -1    0    0  503  502  0.00000000000E+00  0.00000000000E+00  0.69311906044E+03  0.69311906044E+03  0.00000000000E+00 0. -1.
         21   -1    0    0  501  503 -0.00000000000E+00 -0.00000000000E+00 -0.96125897378E+02  0.96125897378E+02  0.00000000000E+00 0. -1.
          6    2    1    2  501    0  0.10102475579E+03  0.39127489329E+01  0.45326253569E+02  0.20454952286E+03  0.17194396515E+03 0.  0.
         24    2    3    3    0    0 -0.64792151433E+01 -0.88026552028E+01  0.58841972974E+02  0.95354514089E+02  0.74233675688E+02 0.  0.
         -6    2    1    2    0  502 -0.10102475579E+03 -0.39127489329E+01  0.55166690950E+03  0.58469543496E+03  0.16526058739E+03 0.  0.
        -24    2    5    5    0    0 -0.49323193746E+01 -0.10652973261E+02  0.14204943946E+03  0.16387748297E+03  0.80870096819E+02 0.  0.
          5    1    3    3  501    0  0.10750397094E+03  0.12715404136E+02 -0.13515719405E+02  0.10919500877E+03  0.47000000000E+01 0. -1.
        -13    1    4    4    0    0 -0.36352025437E+02 -0.21872548373E+02  0.32908185946E+02  0.53691962415E+02  0.00000000000E+00 0.  1.
         14    1    4    4    0    0  0.29872810294E+02  0.13069893170E+02  0.25933787029E+02  0.41662551674E+02  0.00000000000E+00 0. -1.
         -5    1    5    5    0  502 -0.96092436419E+02  0.67402243285E+01  0.40961747004E+03  0.42081795199E+03  0.47000000000E+01 0.  1.
         13    1    6    6    0    0  0.33497389600E+02 -0.96404948087E+01  0.10441497501E+03  0.11007952243E+03  0.00000000000E+00 0. -1.
        -14    1    6    6    0    0 -0.38429708974E+02 -0.10124784528E+01  0.37634464444E+02  0.53797960542E+02  0.00000000000E+00 0.  1.
</event>
<event>
12    1  0.8494789E-002  0.1999692E+03  0.7818608E-02  0.1150781E+00
         21   -1    0    0  501  502  0.00000000000E+00  0.00000000000E+00  0.17426416332E+03  0.17426416332E+03  0.00000000000E+00 0.  1.
         21   -1    0    0  502  503 -0.00000000000E+00 -0.00000000000E+00 -0.22535257464E+03  0.22535257464E+03  0.00000000000E+00 0.  1.
         -6    2    1    2    0  503 -0.59643075052E+02 -0.78945087094E+02 -0.40458665626E+02  0.19936517597E+03  0.16828531304E+03 0.  0.
        -24    2    3    3    0    0 -0.26751333796E+02 -0.79604529488E+02  0.31141869433E+02  0.12042831431E+03  0.80502471276E+02 0.  0.
          6    2    1    2  501    0  0.59643075052E+02  0.78945087094E+02 -0.10629745693E+02  0.20025156200E+03  0.17377592874E+03 0.  0.
         24    2    5    5    0    0 -0.84808875555E+01 -0.14179134273E+02  0.10404729533E+02  0.82873821201E+02  0.80540912220E+02 0.  0.
          5    1    5    5  501    0  0.68123962607E+02  0.93124221368E+02 -0.21034475226E+02  0.11737774080E+03  0.47000000000E+01 0. -1.
        -13    1    6    6    0    0  0.15941834009E+02 -0.15765388518E+02  0.39153345812E+02  0.45118444509E+02  0.00000000000E+00 0.  1.
         14    1    6    6    0    0 -0.24422721565E+02  0.15862542442E+01 -0.28748616279E+02  0.37755376691E+02  0.00000000000E+00 0. -1.
         -5    1    3    3    0  503 -0.32891741256E+02  0.65944239383E+00 -0.71600535060E+02  0.78936861655E+02  0.47000000000E+01 0.  1.
         11    1    4    4    0    0 -0.20450173174E+02 -0.92929891198E+01  0.43315088809E+02  0.48793095292E+02  0.00000000000E+00 0. -1.
        -12    1    4    4    0    0 -0.63011606210E+01 -0.70311540368E+02 -0.12173219376E+02  0.71635219021E+02  0.00000000000E+00 0.  1.
</event>
<event>
12    1  0.8494789E-002  0.2365024E+03  0.7818608E-02  0.1122214E+00
         21   -1    0    0  503  502  0.00000000000E+00  0.00000000000E+00  0.20936985006E+03  0.20936985006E+03  0.00000000000E+00 0. -1.
         21   -1    0    0  501  503 -0.00000000000E+00 -0.00000000000E+00 -0.32283682795E+03  0.32283682795E+03  0.00000000000E+00 0. -1.
          6    2    1    2  501    0 -0.97156714967E+02  0.12918803091E+03 -0.16766452897E+03  0.28957366386E+03  0.17208293911E+03 0.  0.
         24    2    3    3    0    0  0.15022233644E+02  0.77633741951E+02 -0.74033534310E+02  0.13455490892E+03  0.79821011773E+02 0.  0.
         -6    2    1    2    0  502  0.97156714967E+02 -0.12918803091E+03  0.54197551072E+02  0.24263301415E+03  0.17263959690E+03 0.  0.
        -24    2    5    5    0    0  0.20470415922E+02 -0.18036917026E+02  0.66614200205E+02  0.10694358289E+03  0.79089253052E+02 0.  0.
          5    1    3    3  501    0 -0.11217894861E+03  0.51554288962E+02 -0.93630994656E+02  0.15501875494E+03  0.47000000000E+01 0. -1.
        -13    1    4    4    0    0  0.18188207263E+02 -0.10615237615E+02 -0.27806664939E+02  0.34881295390E+02  0.00000000000E+00 0.  1.
         14    1    4    4    0    0 -0.31659736190E+01  0.88248979565E+02 -0.46226869371E+02  0.99673613535E+02  0.00000000000E+00 0. -1.
         -5    1    5    5    0  502  0.76686299045E+02 -0.11115111389E+03 -0.12416649133E+02  0.13568943126E+03  0.47000000000E+01 0.  1.
         11    1    6    6    0    0  0.19419294594E+02 -0.42742119707E+02  0.14294506309E+02  0.49074746155E+02  0.00000000000E+00 0. -1.
        -12    1    6    6    0    0  0.10511213278E+01  0.24705202681E+02  0.52319693895E+02  0.57868836734E+02  0.00000000000E+00 0.  1.
</event>
<event>
12    1  0.8494789E-002  0.2485905E+03  0.7818608E-02  0.1114257E+00
         21   -1    0    0  503  502  0.00000000000E+00  0.00000000000E+00  0.92213824968E+03  0.92213824968E+03  0.00000000000E+00 0. -1.
         21   -1    0    0  501  503 -0.00000000000E+00 -0.00000000000E+00 -0.12443637084E+03  0.12443637084E+03  0.00000000000E+00 0. -1.
          6    2    1    2  501    0  0.95594646484E+02 -0.15140346836E+03  0.43234988584E+02  0.25232222865E+03  0.17244099329E+03 0.  0.
         24    2    3    3    0    0 -0.13112275548E+02 -0.59656531138E+02  0.55864763932E+02  0.10943662192E+03  0.71586792708E+02 0.  0.
         -6    2    1    2    0  502 -0.95594646484E+02  0.15140346836E+03  0.75446689026E+03  0.79425239186E+03  0.17191633669E+03 0.  0.
        -24    2    5    5    0    0 -0.12147616926E+03  0.15355619231E+03  0.72174074563E+03  0.75220981840E+03  0.81079856259E+02 0.  0.
          5    1    3    3  501    0  0.10870692203E+03 -0.91746937218E+02 -0.12629775348E+02  0.14288560673E+03  0.47000000000E+01 0. -1.
        -11    1    4    4    0    0 -0.40724590674E+02 -0.19416961095E+02  0.23415992895E+02  0.50831283546E+02  0.00000000000E+00 0.  1.
         12    1    4    4    0    0  0.27612315126E+02 -0.40239570044E+02  0.32448771038E+02  0.58605338373E+02  0.00000000000E+00 0. -1.
         -5    1    5    5    0  502  0.25881522778E+02 -0.21527239542E+01  0.32726144622E+02  0.42042573465E+02  0.47000000000E+01 0.  1.
         13    1    6    6    0    0 -0.18050662462E+02  0.77774598626E+02  0.21041973416E+03  0.22505816833E+03  0.00000000000E+00 0. -1.
        -14    1    6    6    0    0 -0.10342550680E+03  0.75781593684E+02  0.51132101147E+03  0.52715165007E+03  0.00000000000E+00 0.  1.
</event>
<event>
12    1  0.8494789E-002  0.1889247E+03  0.7818608E-02  0.1159825E+00
         21   -1    0    0  503  502  0.00000000000E+00  0.00000000000E+00  0.66001810835E+03  0.66001810835E+03  0.00000000000E+00 0.  1.
         21   -1    0    0  501  503 -0.00000000000E+00 -0.00000000000E+00 -0.11655165999E+03  0.11655165999E+03  0.00000000000E+00 0.  1.
          6    2    1    2  501    0 -0.44234656875E+02  0.58984498178E+02 -0.14218822769E+02  0.18775282184E+03  0.17208448883E+03 0.  0.
         24    2    3    3    0    0  0.17601877043E+02  0.44714501928E+02 -0.57860703040E+02  0.11059004951E+03  0.81074566523E+02 0.  0.
         -6    2    1    2    0  502  0.44234656875E+02 -0.58984498178E+02  0.55768527113E+03  0.58881694649E+03  0.17394441338E+03 0.  0.
        -24    2    5    5    0    0 -0.44438915014E+02 -0.98983786159E+01  0.25009151925E+03  0.26492119833E+03  0.74596771073E+02 0.  0.
          5    1    3    3  501    0 -0.61836533918E+02  0.14269996250E+02  0.43641880271E+02  0.77162772329E+02  0.47000000000E+01 0. -1.
        -11    1    4    4    0    0  0.18680690682E+02  0.59757133164E+02 -0.13926097181E+02  0.64139062598E+02  0.00000000000E+00 0.  1.
         12    1    4    4    0    0 -0.10788136390E+01 -0.15042631235E+02 -0.43934605859E+02  0.46450986915E+02  0.00000000000E+00 0. -1.
         -5    1    5    5    0  502  0.88673571888E+02 -0.49086119562E+02  0.30759375188E+03  0.32389574816E+03  0.47000000000E+01 0.  1.
         11    1    6    6    0    0  0.14583764172E+01  0.17549428797E+01 -0.49871269518E+01  0.54843524247E+01  0.00000000000E+00 0. -1.
        -12    1    6    6    0    0 -0.45897291431E+02 -0.11653321496E+02  0.25507864621E+03  0.25943684590E+03  0.00000000000E+00 0.  1.
</event>
<event>
12    1  0.8494789E-002  0.2970956E+03  0.7818608E-02  0.1086847E+00
         21   -1    0    0  501  502  0.00000000000E+00  0.00000000000E+00  0.25406078411E+03  0.25406078411E+03  0.00000000000E+00 0.  1.
         21   -1    0    0  502  503 -0.00000000000E+00 -0.00000000000E+00 -0.13390229926E+04  0.13390229926E+04  0.00000000000E+00 0.  1.
         -6    2    1    2    0  503 -0.23174459307E+03 -0.65813083980E+02 -0.12286784744E+04  0.12640872493E+04  0.17386449296E+03 0.  0.
        -24    2    3    3    0    0 -0.99926397255E+02 -0.88079183449E+02 -0.49847792244E+03  0.52173507410E+03  0.77356453846E+02 0.  0.
          6    2    1    2  501    0  0.23174459307E+03  0.65813083980E+02  0.14371626591E+03  0.32899652743E+03  0.17189366346E+03 0.  0.
         24    2    5    5    0    0  0.24859627111E+03  0.79000891139E+02  0.12552980124E+03  0.30052312216E+03  0.80716597713E+02 0.  0.
          5    1    5    5  501    0 -0.16851678040E+02 -0.13187807159E+02  0.18186464666E+02  0.28473405267E+02  0.47000000000E+01 0. -1.
        -11    1    6    6    0    0  0.62573790647E+02  0.30308096795E+02  0.73808374060E+02  0.10139889589E+03  0.00000000000E+00 0.  1.
         12    1    6    6    0    0  0.18602248046E+03  0.48692794344E+02  0.51721427179E+02  0.19912422627E+03  0.00000000000E+00 0. -1.
         -5    1    3    3    0  503 -0.13181819581E+03  0.22266099469E+02 -0.73020055193E+03  0.74235217517E+03  0.47000000000E+01 0.  1.
         11    1    4    4    0    0  0.55561651983E+01  0.49815384443E+01 -0.60402493559E+01  0.96005890061E+01  0.00000000000E+00 0. -1.
        -12    1    4    4    0    0 -0.10548256245E+03 -0.93060721893E+02 -0.49243767309E+03  0.51213448509E+03  0.00000000000E+00 0.  1.
</event>
<event>
12    1  0.8494789E-002  0.2259987E+03  0.7818608E-02  0.1129536E+00
         21   -1    0    0  503  502  0.00000000000E+00  0.00000000000E+00  0.57158367273E+03  0.57158367273E+03  0.00000000000E+00 0.  1.
         21   -1    0    0  501  503 -0.00000000000E+00 -0.00000000000E+00 -0.25082292625E+03  0.25082292625E+03  0.00000000000E+00 0.  1.
          6    2    1    2  501    0 -0.31909906080E+02 -0.14277422439E+03 -0.16968405364E+03  0.28239593967E+03  0.17190714769E+03 0.  0.
         24    2    3    3    0    0 -0.42720777885E+02 -0.19281178648E+02 -0.10506256797E+03  0.14251944520E+03  0.84123839408E+02 0.  0.
         -6    2    1    2    0  502  0.31909906080E+02  0.14277422439E+03  0.49044480012E+03  0.54001065930E+03  0.17225762374E+03 0.  0.
        -24    2    5    5    0    0 -0.46167137854E+01  0.10323582528E+03  0.16726884242E+03  0.21234883882E+03  0.80213552698E+02 0.  0.
          5    1    3    3  501    0  0.10810871805E+02 -0.12349304575E+03 -0.64621485668E+02  0.13987649448E+03  0.47000000000E+01 0. -1.
        -11    1    4    4    0    0 -0.24757417256E+02  0.17658904188E+02 -0.75937677168E+00  0.30419455277E+02  0.00000000000E+00 0.  1.
         12    1    4    4    0    0 -0.17963360630E+02 -0.36940082836E+02 -0.10430319120E+03  0.11209998992E+03  0.00000000000E+00 0. -1.
         -5    1    5    5    0  502  0.36526619866E+02  0.39538399110E+02  0.32317595770E+03  0.32766182048E+03  0.47000000000E+01 0.  1.
         13    1    6    6    0    0  0.55139215132E+01  0.27165382129E+02 -0.64756643561E+00  0.27726894146E+02  0.00000000000E+00 0. -1.
        -14    1    6    6    0    0 -0.10130635299E+02  0.76070443156E+02  0.16791640885E+03  0.18462194468E+03  0.00000000000E+00 0.  1.
</event>
<event>
12    1  0.8494789E-002  0.1946073E+03  0.7818608E-02  0.1154930E+00
         21   -1    0    0  501  502  0.00000000000E+00  0.00000000000E+00  0.16190703129E+03  0.16190703129E+03  0.00000000000E+00 0.  1.
         21   -1    0    0  502  503 -0.00000000000E+00 -0.00000000000E+00 -0.29894613532E+03  0.29894613532E+03  0.00000000000E+00 0. -1.
         -6    2    1    2    0  503  0.84661135378E+02 -0.13376564431E+02 -0.17882875265E+03  0.26429475911E+03  0.17471564498E+03 0.  0.
        -24    2    3    3    0    0 -0.16028964959E+02 -0.39519460365E+02 -0.84612068229E+02  0.12386391870E+03  0.79776893908E+02 0.  0.
          6    2    1    2  501    0 -0.84661135378E+02  0.13376564431E+02  0.41789648621E+02  0.19655840749E+03  0.17187900542E+03 0.  0.
         24    2    5    5    0    0 -0.12224650911E+03  0.23675851302E+02  0.50096816212E+02  0.15643566255E+03  0.80359632887E+02 0.  0.
          5    1    5    5  501    0  0.37585373733E+02 -0.10299286872E+02 -0.83071675905E+01  0.40122744947E+02  0.47000000000E+01 0. -1.
        -11    1    6    6    0    0 -0.17944697099E+02 -0.13525629837E+02  0.39172965981E+02  0.45160558901E+02  0.00000000000E+00 0.  1.
         12    1    6    6    0    0 -0.10430181201E+03  0.37201481139E+02  0.10923850230E+02  0.11127510365E+03  0.00000000000E+00 0. -1.
         -5    1    3    3    0  503  0.10069010034E+03  0.26142895934E+02 -0.94216684425E+02  0.14043084041E+03  0.47000000000E+01 0.  1.
         11    1    4    4    0    0  0.20566139918E+02 -0.48579964560E+02 -0.48624811550E+02  0.71745044192E+02  0.00000000000E+00 0. -1.
        -12    1    4    4    0    0 -0.36595104877E+02  0.90605041955E+01 -0.35987256679E+02  0.52118874513E+02  0.00000000000E+00 0.  1.
</event>
<event>
12    1  0.8494789E-002  0.3748980E+03  0.7818608E-02  0.1052877E+00
         21   -1    0    0  503  502  0.00000000000E+00  0.00000000000E+00  0.16294246115E+04  0.16294246115E+04  0.00000000000E+00 0. -1.
         21   -1    0    0  501  503 -0.00000000000E+00 -0.00000000000E+00 -0.95169962540E+02  0.95169962540E+02  0.00000000000E+00 0.  1.
          6    2    1    2  501    0 -0.32574462988E+03  0.68916758304E+02  0.50133209196E+03  0.62574174527E+03  0.17134696344E+03 0.  0.
         24    2    3    3    0    0 -0.17204530769E+03  0.10413404521E+03  0.27751224182E+03  0.35191487614E+03  0.79922139770E+02 0.  0.
         -6    2    1    2    0  502  0.32574462988E+03 -0.68916758304E+02  0.10329225570E+04  0.10988528287E+04  0.17230625947E+03 0.  0.
        -24    2    5    5    0    0  0.25720294722E+03 -0.59073135519E+02  0.95739240665E+03  0.99627723331E+03  0.79530584605E+02 0.  0.
          5    1    3    3  501    0 -0.15369932219E+03 -0.35217286903E+02  0.22381985014E+03  0.27382686913E+03  0.47000000000E+01 0. -1.
        -11    1    4    4    0    0 -0.34527225643E+01 -0.11425477313E+02  0.13296482351E+02  0.17867827732E+02  0.00000000000E+00 0.  1.
         12    1    4    4    0    0 -0.16859258512E+03  0.11555952252E+03  0.26421575947E+03  0.33404704841E+03  0.00000000000E+00 0. -1.
         -5    1    5    5    0  502  0.68541682658E+02 -0.98436227850E+01  0.75530150321E+02  0.10257559543E+03  0.47000000000E+01 0.  1.
         11    1    6    6    0    0  0.16374365940E+03 -0.76177127870E+02  0.63235926237E+03  0.65764213483E+03  0.00000000000E+00 0. -1.
        -12    1    6    6    0    0  0.93459287823E+02  0.17103992351E+02  0.32503314428E+03  0.33863509847E+03  0.00000000000E+00 0.  1.
</event>
<event>
12    1  0.8494789E-002  0.1747294E+03  0.7818608E-02  0.1173522E+00
         21   -1    0    0  501  502  0.00000000000E+00  0.00000000000E+00  0.23554746309E+04  0.23554746309E+04  0.00000000000E+00 0. -1.
         21   -1    0    0  502  503 -0.00000000000E+00 -0.00000000000E+00 -0.35590599426E+02  0.35590599426E+02  0.00000000000E+00 0. -1.
         -6    2    1    2    0  503  0.61658918884E+01 -0.23095229176E+02  0.20592822861E+03  0.27006815109E+03  0.17308657678E+03 0.  0.
        -24    2    3    3    0    0  0.38800876487E+02 -0.55157113521E+02  0.73227112108E+02  0.12962356070E+03  0.83019529954E+02 0.  0.
          6    2    1    2  501    0 -0.61658918884E+01  0.23095229176E+02  0.21139558029E+04  0.21209970793E+04  0.17102065911E+03 0.  0.
         24    2    5    5    0    0  0.19182359177E+00  0.43555559150E+02  0.20690788861E+04  0.20710463705E+04  0.79047505847E+02 0.  0.
          5    1    5    5  501    0 -0.63577154802E+01 -0.20460329974E+02  0.44876916763E+02  0.49950708773E+02  0.47000000000E+01 0. -1.
        -13    1    6    6    0    0  0.25165262978E+02 -0.13075951265E+02  0.64951388813E+03  0.65013272632E+03  0.00000000000E+00 0.  1.
         14    1    6    6    0    0 -0.24973439386E+02  0.56631510415E+02  0.14195649980E+04  0.14209136442E+04  0.00000000000E+00 0. -1.
         -5    1    3    3    0  503 -0.32634984598E+02  0.32061884345E+02  0.13270111651E+03  0.14044459039E+03  0.47000000000E+01 0.  1.
         11    1    4    4    0    0  0.32269141948E+02 -0.55457223865E+02  0.90624084371E+02  0.11103839817E+03  0.00000000000E+00 0. -1.
        -12    1    4    4    0    0  0.65317345389E+01  0.30011034479E+00 -0.17396972264E+02  0.18585162529E+02  0.00000000000E+00 0.  1.
</event>
<event>
12    1  0.8494789E-002  0.1814707E+03  0.7818608E-02  0.1167935E+00
         21   -1    0    0  503  502  0.00000000000E+00  0.00000000000E+00  0.85325793173E+03  0.85325793173E+03  0.00000000000E+00 0. -1.
         21   -1    0    0  501  503 -0.00000000000E+00 -0.00000000000E+00 -0.37486833892E+02  0.37486833892E+02  0.00000000000E+00 0. -1.
          6    2    1    2  501    0  0.44205755386E+02 -0.17131294977E+02  0.36584803611E+03  0.40560316508E+03  0.16858680826E+03 0.  0.
         24    2    3    3    0    0  0.38488720822E+02 -0.52134466732E+02  0.12585572002E+03  0.16295875798E+03  0.80724904995E+02 0.  0.
         -6    2    1    2    0  502 -0.44205755386E+02  0.17131294977E+02  0.44992306173E+03  0.48514160055E+03  0.17516843617E+03 0.  0.
        -24    2    5    5    0    0  0.27308091457E+02 -0.38052869650E+02  0.24909855364E+03  0.26488698569E+03  0.76949808417E+02 0.  0.
          5    1    3    3  501    0  0.57170345642E+01  0.35003171755E+02  0.23999231609E+03  0.24264440710E+03  0.47000000000E+01 0. -1.
        -13    1    4    4    0    0 -0.15917651200E+02 -0.43583646227E+02  0.41703702300E+02  0.62386734357E+02  0.00000000000E+00 0.  1.
         14    1    4    4    0    0  0.54406372022E+02 -0.85508205051E+01  0.84152017724E+02  0.10057202362E+03  0.00000000000E+00 0. -1.
         -5    1    5    5    0  502 -0.71513846844E+02  0.55184164627E+02  0.20082450809E+03  0.22025461486E+03  0.47000000000E+01 0.  1.
         11    1    6    6    0    0 -0.50002134542E+01 -0.52453713333E+02  0.17532410377E+03  0.18307084841E+03  0.00000000000E+00 0. -1.
        -12    1    6    6    0    0  0.32308304912E+02  0.14400843683E+02  0.73774449870E+02  0.81816137275E+02  0.00000000000E+00 0.  1.
</event>
<event>
12    1  0.8494789E-002  0.1767124E+03  0.7818608E-02  0.1171265E+00
         21   -1    0    0  503  502  0.00000000000E+00  0.00000000000E+00  0.80734546068E+03  0.80734546068E+03  0.00000000000E+00 0.  1.
         21   -1    0    0  501  503 -0.00000000000E+00 -0.00000000000E+00 -0.42659166933E+02  0.42659166933E+02  0.00000000000E+00 0.  1.
          6    2    1    2  501    0 -0.33032617899E+02  0.10806831965E+02  0.25005638059E+03  0.30619513960E+03  0.17326086859E+03 0.  0.
         24    2    3    3    0    0  0.31560785831E+02 -0.51685232638E+01  0.43968404676E+02  0.89580588859E+02  0.71194553554E+02 0.  0.
         -6    2    1    2    0  502  0.33032617899E+02 -0.10806831965E+02  0.51462991316E+03  0.54380948801E+03  0.17226976016E+03 0.  0.
        -24    2    5    5    0    0 -0.44226680321E+02  0.10234791398E+01  0.33365215866E+03  0.34661924219E+03  0.82849799726E+02 0.  0.
          5    1    3    3  501    0 -0.64593403729E+02  0.15975355228E+02  0.20608797591E+03  0.21661455075E+03  0.47000000000E+01 0. -1.
        -11    1    4    4    0    0 -0.13209658510E+02 -0.22889346954E+02  0.28823119626E+02  0.39104852728E+02  0.00000000000E+00 0.  1.
         12    1    4    4    0    0  0.44770444341E+02  0.17720823690E+02  0.15145285050E+02  0.50475736131E+02  0.00000000000E+00 0. -1.
         -5    1    5    5    0  502  0.77259298220E+02 -0.11830311104E+02  0.18097775450E+03  0.19719024582E+03  0.47000000000E+01 0.  1.
         13    1    6    6    0    0 -0.44888623674E+02  0.29396116107E+02  0.12477855744E+03  0.13582639130E+03  0.00000000000E+00 0. -1.
        -14    1    6    6    0    0  0.66194335255E+00 -0.28372636968E+02  0.20887360123E+03  0.21079285089E+03  0.00000000000E+00 0.  1.
</event>
<event>
12    1  0.8494789E-002  0.2523472E+03  0.7818608E-02  0.1111906E+00
         21   -1    0    0  503  502  0.00000000000E+00  0.00000000000E+00  0.21310798138E+03  0.21310798138E+03  0.00000000000E+00 0. -1.
         21   -1    0    0  501  503 -0.00000000000E+00 -0.00000000000E+00 -0.51199289634E+03  0.51199289634E+03  0.00000000000E+00 0. -1.
          6    2    1    2  501    0  0.12187981110E+03  0.13816295096E+03 -0.38378238923E+03  0.45931254272E+03  0.17243955532E+03 0.  0.
         24    2    3    3    0    0  0.63759185070E+01  0.29641650168E+02 -0.82878789881E+02  0.11919037638E+03  0.80113496044E+02 0.  0.
         -6    2    1    2    0  502 -0.12187981110E+03 -0.13816295096E+03  0.84897474271E+02  0.26578833500E+03  0.17173284052E+03 0.  0.
        -24    2    5    5    0    0 -0.10227191732E+03 -0.27693924461E+02  0.70798992191E+02  0.15261266398E+03  0.83973980409E+02 0.  0.
          5    1    3    3  501    0  0.11550389259E+03  0.10852130079E+03 -0.30090359935E+03  0.34012216633E+03  0.47000000000E+01 0. -1.
        -13    1    4    4    0    0  0.75813150226E+01  0.56728673429E+02 -0.65514333736E+02  0.86992796549E+02  0.00000000000E+00 0.  1.
         14    1    4    4    0    0 -0.12053965157E+01 -0.27087023261E+02 -0.17364456145E+02  0.32197579833E+02  0.00000000000E+00 0. -1.
         -5    1    5    5    0  502 -0.19607893773E+02 -0.11046902650E+03  0.14098482080E+02  0.11317567102E+03  0.47000000000E+01 0.  1.
         11    1    6    6    0    0 -0.91914234801E+02 -0.19063552439E+02  0.89406215239E+02  0.12963455139E+03  0.00000000000E+00 0. -1.
        -12    1    6    6    0    0 -0.10357682522E+02 -0.86303720211E+01 -0.18607223048E+02  0.22978112586E+02  0.00000000000E+00 0.  1.
</event>
<event>
12    1  0.8494789E-002  0.2006178E+03  0.7818608E-02  0.1149769E+00
         21   -1    0    0  503  502  0.00000000000E+00  0.00000000000E+00  0.77529799630E+03  0.77529799630E+03  0.00000000000E+00 0. -1.
         21   -1    0    0  501  503 -0.00000000000E+00 -0.00000000000E+00 -0.10287208985E+03  0.10287208985E+03  0.00000000000E+00 0.  1.
          6    2    1    2  501    0 -0.44234948161E+02 -0.93907560453E+02  0.24057157040E+02  0.19947313687E+03  0.16862806700E+03 0.  0.
         24    2    3    3    0    0 -0.64671911455E+02 -0.48178142009E+02  0.68645379619E+02  0.13224926631E+03  0.79209158554E+02 0.  0.
         -6    2    1    2    0  502  0.44234948161E+02  0.93907560453E+02  0.64836874941E+03  0.67869694928E+03  0.17167455607E+03 0.  0.
        -24    2    5    5    0    0 -0.18550572632E+02  0.17638910265E+02  0.16452936830E+03  0.18485328441E+03  0.80284299975E+02 0.  0.
          5    1    3    3  501    0  0.20436963294E+02 -0.45729418443E+02 -0.44588222579E+02  0.67223870557E+02  0.47000000000E+01 0. -1.
        -11    1    4    4    0    0 -0.42178177751E+02 -0.69982186964E+02  0.49921637549E+02  0.95753198725E+02  0.00000000000E+00 0.  1.
         12    1    4    4    0    0 -0.22493733704E+02  0.21804044954E+02  0.18723742070E+02  0.36496067589E+02  0.00000000000E+00 0. -1.
         -5    1    5    5    0  502  0.62785520793E+02  0.76268650188E+02  0.48383938111E+03  0.49384366487E+03  0.47000000000E+01 0.  1.
         11    1    6    6    0    0 -0.26945206595E+02  0.14350117009E+02  0.17103319903E+03  0.17373636691E+03  0.00000000000E+00 0. -1.
        -12    1    6    6    0    0  0.83946339627E+01  0.32887932560E+01 -0.65038307304E+01  0.11116917496E+02  0.00000000000E+00 0.  1.
</event>
<event>
12    1  0.8494789E-002  0.2488008E+03  0.7818608E-02  0.1114076E+00
         21   -1    0    0  501  502  0.00000000000E+00  0.00000000000E+00  0.33169289326E+03  0.33169289326E+03  0.00000000000E+00 0.  1.
         21   -1    0    0  502  503 -0.00000000000E+00 -0.00000000000E+00 -0.46807484912E+03  0.46807484912E+03  0.00000000000E+00 0. -1.
         -6    2    1    2    0  503 -0.17198097076E+03 -0.50081673644E+02 -0.37830637249E+03  0.45278865913E+03  0.17267376764E+03 0.  0.
        -24    2    3    3    0    0 -0.10678561970E+03 -0.50916273333E+02 -0.35607943771E+03  0.38374333353E+03  0.80440938624E+02 0.  0.
          6    2    1    2  501    0  0.17198097076E+03  0.50081673644E+02  0.24192441663E+03  0.34697908324E+03  0.17257297733E+03 0.  0.
         24    2    5    5    0    0  0.47494956044E+02  0.74040326490E+02  0.14861912436E+03  0.18950288671E+03  0.78012557646E+02 0.  0.
          5    1    5    5  501    0  0.12448601472E+03 -0.23958652847E+02  0.93305292273E+02  0.15747619653E+03  0.47000000000E+01 0. -1.
        -13    1    6    6    0    0  0.54859898824E+02  0.44545246075E+02  0.50700884387E+02  0.86973945089E+02  0.00000000000E+00 0.  1.
         14    1    6    6    0    0 -0.73649427796E+01  0.29495080416E+02  0.97918239975E+02  0.10252894162E+03  0.00000000000E+00 0. -1.
         -5    1    3    3    0  503 -0.65195351069E+02  0.83459968951E+00 -0.22226934787E+02  0.69045325603E+02  0.47000000000E+01 0.  1.
         11    1    4    4    0    0 -0.10842523071E+03 -0.21192762335E+02 -0.24523206062E+03  0.26896826464E+03  0.00000000000E+00 0. -1.
        -12    1    4    4    0    0  0.16396110160E+01 -0.29723510998E+02 -0.11084737709E+03  0.11477506888E+03  0.00000000000E+00 0.  1.
</event>
<event>
12    1  0.8494789E-002  0.1950556E+03  0.7818608E-02  0.1154062E+00
         21   -1    0    0  501  502  0.00000000000E+00  0.00000000000E+00  0.24368153426E+03  0.24368153426E+03  0.00000000000E+00 0.  1.
         21   -1    0    0  502  503 -0.00000000000E+00 -0.00000000000E+00 -0.15791625932E+03  0.15791625932E+03  0.00000000000E+00 0.  1.
         -6    2    1    2    0  503  0.63052329745E+02  0.66239391434E+02  0.19758647985E+02  0.19567652119E+03  0.17185937132E+03 0.  0.
        -24    2    3    3    0    0 -0.25554372865E+02 -0.36690482859E+00  0.13270034279E+02  0.84538145474E+02  0.79482347969E+02 0.  0.
          6    2    1    2  501    0 -0.63052329745E+02 -0.66239391434E+02  0.66006626954E+02  0.20592127240E+03  0.17228883411E+03 0.  0.
         24    2    5    5    0    0 -0.27546396017E+02 -0.34566403788E+02 -0.33618601846E+02  0.95417310070E+02  0.77592605747E+02 0.  0.
          5    1    5    5  501    0 -0.35505933729E+02 -0.31672987646E+02  0.99625228800E+02  0.11050396233E+03  0.47000000000E+01 0. -1.
        -11    1    6    6    0    0 -0.52879092650E+02 -0.17786822352E+02 -0.33413034727E+02  0.65030764861E+02  0.00000000000E+00 0.  1.
         12    1    6    6    0    0  0.25332696633E+02 -0.16779581437E+02 -0.20556711963E+00  0.30386545209E+02  0.00000000000E+00 0. -1.
         -5    1    3    3    0  503  0.88606702610E+02  0.66606296263E+02  0.64886137056E+01  0.11113837572E+03  0.47000000000E+01 0.  1.
         11    1    4    4    0    0  0.11708457642E+02  0.11480262295E+02 -0.24952864787E+02  0.29858497347E+02  0.00000000000E+00 0. -1.
        -12    1    4    4    0    0 -0.37262830507E+02 -0.11847167123E+02  0.38222899067E+02  0.54679648127E+02  0.00000000000E+00 0.  1.
</event>
<event>
12    1  0.8494789E-002  0.2295261E+03  0.7818608E-02  0.1127246E+00
         21   -1    0    0  501  502  0.00000000000E+00  0.00000000000E+00  0.65431706883E+03  0.65431706883E+03  0.00000000000E+00 0. -1.
         21   -1    0    0  502  503 -0.00000000000E+00 -0.00000000000E+00 -0.93476630947E+02  0.93476630947E+02  0.00000000000E+00 0.  1.
         -6    2    1    2    0  503 -0.14997591409E+03  0.15953444004E+02  0.13913140812E+03  0.26840225271E+03  0.17301714757E+03 0.  0.
        -24    2    3    3    0    0 -0.48730589098E+02 -0.29859884406E+02  0.12169347666E+03  0.15581607085E+03  0.78759524267E+02 0.  0.
          6    2    1    2  501    0  0.14997591409E+03 -0.15953444004E+02  0.42170902977E+03  0.47939144707E+03  0.17096890522E+03 0.  0.
         24    2    5    5    0    0  0.52478876446E+02 -0.66130009180E+02  0.27634354075E+03  0.29724706632E+03  0.69734176209E+02 0.  0.
          5    1    5    5  501    0  0.97497037645E+02  0.50176565176E+02  0.14536548902E+03  0.18214438075E+03  0.47000000000E+01 0. -1.
        -11    1    6    6    0    0  0.14803374814E+02 -0.26060116283E+01  0.47096465508E+01  0.15751570497E+02  0.00000000000E+00 0.  1.
         12    1    6    6    0    0  0.37675501633E+02 -0.63523997552E+02  0.27163389420E+03  0.28149549582E+03  0.00000000000E+00 0. -1.
         -5    1    3    3    0  503 -0.10124532499E+03  0.45813328410E+02  0.17437931459E+02  0.11258618186E+03  0.47000000000E+01 0.  1.
         13    1    4    4    0    0 -0.67851872862E+02 -0.36457641865E+02  0.98502481113E+02  0.12504309292E+03  0.00000000000E+00 0. -1.
        -14    1    4    4    0    0  0.19121283764E+02  0.65977574598E+01  0.23190995547E+02  0.30772977931E+02  0.00000000000E+00 0.  1.
</event>
<event>
12    1  0.8494789E-002  0.1953043E+03  0.7818608E-02  0.1154240E+00
         21   -1    0    0  501  502  0.00000000000E+00  0.00000000000E+00  0.22075554729E+03  0.22075554729E+03  0.00000000000E+00 0.  1.
         21   -1    0    0  502  503 -0.00000000000E+00 -0.00000000000E+00 -0.33879204838E+03  0.33879204838E+03  0.00000000000E+00 0.  1.
         -6    2    1    2    0  503  0.92278189578E+02  0.15868656805E+01 -0.25582194640E+03  0.32053168664E+03  0.16964053604E+03 0.  0.
        -24    2    3    3    0    0  0.79074039931E+02 -0.26660979084E+02 -0.79280180799E+02  0.14119575800E+03  0.81776423331E+02 0.  0.
          6    2    1    2  501    0 -0.92278189578E+02 -0.15868656805E+01  0.13778544531E+03  0.23901590903E+03  0.17212203059E+03 0.  0.
         24    2    5    5    0    0 -0.86028715280E+02  0.33625222482E+02  0.15822715475E+03  0.19755628329E+03  0.73898965664E+02 0.  0.
          5    1    5    5  501    0 -0.62494742983E+01 -0.35212088163E+02 -0.20441709439E+02  0.41459625741E+02  0.47000000000E+01 0. -1.
        -11    1    6    6    0    0 -0.66885596043E+02  0.51300561375E+02  0.14642036439E+03  0.16895074330E+03  0.00000000000E+00 0.  1.
         12    1    6    6    0    0 -0.19143119237E+02 -0.17675338892E+02  0.11806790362E+02  0.28605539983E+02  0.00000000000E+00 0. -1.
         -5    1    3    3    0  503  0.13204149647E+02  0.28247844765E+02 -0.17654176560E+03  0.17933592864E+03  0.47000000000E+01 0.  1.
         11    1    4    4    0    0  0.88971333929E+00  0.17562006055E+02  0.47275415548E+01  0.18208934501E+02  0.00000000000E+00 0. -1.
        -12    1    4    4    0    0  0.78184326592E+02 -0.44222985139E+02 -0.84007722354E+02  0.12298682350E+03  0.00000000000E+00 0.  1.
</event>
<event>
12    1  0.8494789E-002  0.1725471E+03  0.7818608E-02  0.1175338E+00
         21   -1    0    0  503  502  0.00000000000E+00  0.00000000000E+00  0.91263461913E+03  0.91263461913E+03  0.00000000000E+00 0. -1.
         21   -1    0    0  501  503 -0.00000000000E+00 -0.00000000000E+00 -0.41212518287E+02  0.41212518287E+02  0.00000000000E+00 0. -1.
          6    2    1    2  501    0 -0.14182500177E+02  0.50950945339E+01  0.21732348515E+03  0.27749236169E+03  0.17188778404E+03 0.  0.
         24    2    3    3    0    0  0.47748595166E+02 -0.31232520332E+02  0.10131852873E+03  0.14098450080E+03  0.79723186937E+02 0.  0.
         -6    2    1    2    0  502  0.14182500177E+02 -0.50950945339E+01  0.65409861569E+03  0.67635477572E+03  0.17141668615E+03 0.  0.
        -24    2    5    5    0    0  0.46233610444E+02  0.45878691582E+02  0.49070297188E+03  0.50215423911E+03  0.84421988626E+02 0.  0.
          5    1    3    3  501    0 -0.61931095343E+02  0.36327614866E+02  0.11600495642E+03  0.13650786089E+03  0.47000000000E+01 0. -1.
        -13    1    4    4    0    0  0.48975103542E+02 -0.55136385984E+02  0.71146273088E+02  0.10247133258E+03  0.00000000000E+00 0.  1.
         14    1    4    4    0    0 -0.12265083764E+01  0.23903865652E+02  0.30172255643E+02  0.38513168222E+02  0.00000000000E+00 0. -1.
         -5    1    5    5    0  502 -0.32051110267E+02 -0.50973786116E+02  0.16339564381E+03  0.17420053661E+03  0.47000000000E+01 0.  1.
         11    1    6    6    0    0  0.50879083837E+02  0.89350599099E+01  0.41040563334E+03  0.41364392942E+03  0.00000000000E+00 0. -1.
        -12    1    6    6    0    0 -0.46454733930E+01  0.36943631672E+02  0.80297338538E+02  0.88510309684E+02  0.00000000000E+00 0.  1.
</event>
<event>
12    1  0.8494789E-002  0.1959564E+03  0.7818608E-02  0.1154465E+00
         21   -1    0    0  501  502  0.00000000000E+00  0.00000000000E+00  0.26488009719E+03  0.26488009719E+03  0.00000000000E+00 0.  1.
         21   -1    0    0  502  503 -0.00000000000E+00 -0.00000000000E+00 -0.17244791829E+03  0.17244791829E+03  0.00000000000E+00 0.  1.
         -6    2    1    2    0  503 -0.46978718663E+01 -0.95205862742E+02  0.13941651097E+03  0.23581764901E+03  0.16458059956E+03 0.  0.
        -24    2    3    3    0    0 -0.52025522987E+02 -0.17349863129E+02  0.54384910832E+02  0.11110226800E+03  0.79864401559E+02 0.  0.
          6    2    1    2  501    0  0.46978718663E+01  0.95205862742E+02 -0.46984332067E+02  0.20151036647E+03  0.17120944494E+03 0.  0.
         24    2    5    5    0    0  0.10312370716E+02  0.15874615198E+02 -0.79464972603E+02  0.11547519086E+03  0.81617947995E+02 0.  0.
          5    1    5    5  501    0 -0.56144988496E+01  0.79331247544E+02  0.32480640535E+02  0.86035175619E+02  0.47000000000E+01 0. -1.
        -11    1    6    6    0    0  0.37771977336E+02  0.30072187588E+02 -0.65957527671E+02  0.81740162678E+02  0.00000000000E+00 0.  1.
         12    1    6    6    0    0 -0.27459606620E+02 -0.14197572391E+02 -0.13507444932E+02  0.33735028177E+02  0.00000000000E+00 0. -1.
         -5    1    3    3    0  503  0.47327651120E+02 -0.77855999613E+02  0.85031600142E+02  0.12471538100E+03  0.47000000000E+01 0.  1.
         13    1    4    4    0    0 -0.61095416330E+02 -0.35722173458E+02  0.24550188115E+02  0.74909514146E+02  0.00000000000E+00 0. -1.
        -14    1    4    4    0    0  0.90698933433E+01  0.18372310330E+02  0.29834722716E+02  0.36192753856E+02  0.00000000000E+00 0.  1.
</event>
<event>
12    1  0.8494789E-002  0.1790869E+03  0.7818608E-02  0.1168966E+00
         21   -1    0    0  503  502  0.00000000000E+00  0.00000000000E+00  0.54088743462E+03  0.54088743462E+03  0.00000000000E+00 0. -1.
         21   -1    0    0  501  503 -0.00000000000E+00 -0.00000000000E+00 -0.96712866423E+02  0.96712866423E+02  0.00000000000E+00 0. -1.
          6    2    1    2  501    0  0.58628664449E+02 -0.29146952038E+01  0.23231576920E+02  0.18058747765E+03  0.16919312981E+03 0.  0.
         24    2    3    3    0    0 -0.22276263433E+02  0.12535596446E+02  0.46573700922E+02  0.94847967388E+02  0.78572604699E+02 0.  0.
         -6    2    1    2    0  502 -0.58628664449E+02  0.29146952038E+01  0.42094299127E+03  0.45701282339E+03  0.16799375909E+03 0.  0.
        -24    2    5    5    0    0 -0.93302574008E+02 -0.32021900744E+02  0.28148353622E+03  0.30904703225E+03  0.80909298226E+02 0.  0.
          5    1    3    3  501    0  0.80904927882E+02 -0.15450291650E+02 -0.23342124003E+02  0.85739510266E+02  0.47000000000E+01 0. -1.
        -13    1    4    4    0    0 -0.12213474164E+02 -0.20033779673E+02  0.54946355713E+02  0.59746324450E+02  0.00000000000E+00 0.  1.
         14    1    4    4    0    0 -0.10062789269E+02  0.32569376119E+02 -0.83726547914E+01  0.35101642937E+02  0.00000000000E+00 0. -1.
         -5    1    5    5    0  502  0.34673909559E+02  0.34936595948E+02  0.13945945506E+03  0.14796579113E+03  0.47000000000E+01 0.  1.
         11    1    6    6    0    0 -0.52967835079E+02 -0.72071624260E+01  0.24065336040E+03  0.24651891331E+03  0.00000000000E+00 0. -1.
        -12    1    6    6    0    0 -0.40334738929E+02 -0.24814738318E+02  0.40830175812E+02  0.62528118947E+02  0.00000000000E+00 0.  1.
</event>
<event>
12    1  0.8494789E-002  0.1966770E+03  0.7818608E-02  0.1155142E+00
         21   -1    0    0  501  502  0.00000000000E+00  0.00000000000E+00  0.13530738270E+03  0.13530738270E+03  0.00000000000E+00 0.  1.
         21   -1    0    0  502  503 -0.00000000000E+00 -0.00000000000E+00 -0.65995060491E+03  0.65995060491E+03  0.00000000000E+00 0. -1.
         -6    2    1    2    0  503 -0.44456100410E+02 -0.85353502112E+02 -0.57140456573E+03  0.60430539892E+03  0.17152338685E+03 0.  0.
        -24    2    3    3    0    0 -0.96046195160E+02 -0.64526744325E+02 -0.42331180278E+03  0.44603711986E+03  0.79797603885E+02 0.  0.
          6    2    1    2  501    0  0.44456100410E+02  0.85353502112E+02  0.46761343516E+02  0.19095258869E+03  0.15816037017E+03 0.  0.
         24    2    5    5    0    0  0.36847554968E+01  0.74125336098E+02 -0.24833270213E+02  0.10766841857E+03  0.73943587772E+02 0.  0.
          5    1    5    5  501    0  0.40771344913E+02  0.11228166014E+02  0.71594613729E+02  0.83284170123E+02  0.47000000000E+01 0. -1.
        -11    1    6    6    0    0 -0.23197840746E+02  0.34396442540E+02  0.16204485642E+02  0.44540323636E+02  0.00000000000E+00 0.  1.
         12    1    6    6    0    0  0.26882596242E+02  0.39728893558E+02 -0.41037755855E+02  0.63128094931E+02  0.00000000000E+00 0. -1.
         -5    1    3    3    0  503  0.51590094750E+02 -0.20826757787E+02 -0.14809276296E+03  0.15826827906E+03  0.47000000000E+01 0.  1.
         13    1    4    4    0    0 -0.71910139893E+02 -0.39427578384E+02 -0.15392406519E+03  0.17440819936E+03  0.00000000000E+00 0. -1.
        -14    1    4    4    0    0 -0.24136055267E+02 -0.25099165941E+02 -0.26938773758E+03  0.27162892051E+03  0.00000000000E+00 0.  1.
</event>
<event>
12    1  0.8494789E-002  0.2950843E+03  0.7818608E-02  0.1087891E+00
         21   -1    0    0  503  502  0.00000000000E+00  0.00000000000E+00  0.48690634920E+02  0.48690634920E+02  0.00000000000E+00 0. -1.
         21   -1    0    0  501  503 -0.00000000000E+00 -0.00000000000E+00 -0.17987099803E+04  0.17987099803E+04  0.00000000000E+00 0. -1.
          6    2    1    2  501    0 -0.19716968797E+03 -0.13622766296E+03 -0.78002144738E+03  0.83351173838E+03  0.16992497651E+03 0.  0.
         24    2    3    3    0    0 -0.21395707736E+03 -0.10246201380E+03 -0.61127072298E+03  0.66053534551E+03  0.79868333340E+02 0.  0.
         -6    2    1    2    0  502  0.19716968797E+03  0.13622766296E+03 -0.96999789801E+03  0.10138888768E+04  0.17216524168E+03 0.  0.
        -24    2    5    5    0    0  0.12086315414E+03  0.14429469222E+03 -0.81675570036E+03  0.84244493497E+03  0.84821778757E+02 0.  0.
          5    1    3    3  501    0  0.16787389395E+02 -0.33765649154E+02 -0.16875072440E+03  0.17297639287E+03  0.47000000000E+01 0. -1.
        -11    1    4    4    0    0 -0.34028831096E+02 -0.35546737221E+02 -0.21029323160E+03  0.21597401494E+03  0.00000000000E+00 0.  1.
         12    1    4    4    0    0 -0.17992824627E+03 -0.66915276581E+02 -0.40097749138E+03  0.44456133057E+03  0.00000000000E+00 0. -1.
         -5    1    5    5    0  502  0.76306533832E+02 -0.80670292611E+01 -0.15324219765E+03  0.17144394188E+03  0.47000000000E+01 0.  1.
         13    1    6    6    0    0  0.54518907288E+02  0.86130892971E+01 -0.23648257432E+03  0.24283843294E+03  0.00000000000E+00 0. -1.
        -14    1    6    6    0    0  0.66344246849E+02  0.13568160292E+03 -0.58027312604E+03  0.59960650202E+03  0.00000000000E+00 0.  1.
</event>
<event>
12    1  0.8494789E-002  0.2149973E+03  0.7818608E-02  0.1138999E+00
         21   -1    0    0  503  502  0.00000000000E+00  0.00000000000E+00  0.75102638777E+02  0.75102638777E+02  0.00000000000E+00 0.  1.
         21   -1    0    0  501  503 -0.00000000000E+00 -0.00000000000E+00 -0.62662264850E+03  0.62662264850E+03  0.00000000000E+00 0. -1.
          6    2    1    2  501    0  0.11844100949E+03 -0.12274504152E+01 -0.19415540654E+03  0.28467216370E+03  0.17120788397E+03 0.  0.
         24    2    3    3    0    0  0.26673077826E+01 -0.37882256472E+02 -0.22735099500E+02  0.74543306854E+02  0.59980329785E+02 0.  0.
         -6    2    1    2    0  502 -0.11844100949E+03  0.12274504152E+01 -0.35736460318E+03  0.41705312357E+03  0.17942705736E+03 0.  0.
        -24    2    5    5    0    0 -0.89348531906E+02 -0.57182348117E+02 -0.24448332415E+03  0.28658339539E+03  0.10538010077E+03 0.  0.
          5    1    3    3  501    0  0.11577370171E+03  0.36654806057E+02 -0.17142030704E+03  0.21012885685E+03  0.47000000000E+01 0. -1.
        -13    1    4    4    0    0  0.12323361931E+02 -0.32346346677E+02  0.13106997218E+02  0.37012764943E+02  0.00000000000E+00 0.  1.
         14    1    4    4    0    0 -0.96560541484E+01 -0.55359097953E+01 -0.35842096718E+02  0.37530541911E+02  0.00000000000E+00 0. -1.
         -5    1    5    5    0  502 -0.29092477584E+02  0.58409798532E+02 -0.11288127903E+03  0.13046972818E+03  0.47000000000E+01 0.  1.
         13    1    6    6    0    0 -0.24777627829E+02 -0.18885327941E+02 -0.19312874544E+03  0.19562540420E+03  0.00000000000E+00 0. -1.
        -14    1    6    6    0    0 -0.64570904077E+02 -0.38297020176E+02 -0.51354578709E+02  0.90957991194E+02  0.00000000000E+00 0.  1.
</event>
<event>
12    1  0.8494789E-002  0.5368655E+03  0.7818608E-02  0.1004584E+00
         21   -1    0    0  501  502  0.00000000000E+00  0.00000000000E+00  0.49074644232E+03  0.49074644232E+03  0.00000000000E+00 0.  1.
         21   -1    0    0  502  503 -0.00000000000E+00 -0.00000000000E+00 -0.59095864391E+03  0.59095864391E+03  0.00000000000E+00 0. -1.
         -6    2    1    2    0  503 -0.43045135609E+03  0.27085508463E+03 -0.72757262533E+01  0.53685485770E+03  0.17178287229E+03 0.  0.
        -24    2    3    3    0    0 -0.37675603644E+03  0.22196297387E+03  0.45198461152E+02  0.44713721066E+03  0.81707475171E+02 0.  0.
          6    2    1    2  501    0  0.43045135609E+03 -0.27085508463E+03 -0.92936475346E+02  0.54485022853E+03  0.17197016093E+03 0.  0.
         24    2    5    5    0    0  0.83187977797E+02 -0.55328320768E+02 -0.35968082152E+02  0.13216254072E+03  0.78687810412E+02 0.  0.
          5    1    5    5  501    0  0.34726337830E+03 -0.21552676386E+03 -0.56968393193E+02  0.41268768781E+03  0.47000000000E+01 0. -1.
        -13    1    6    6    0    0  0.97499782255E+02 -0.38566955551E+02 -0.26322331139E+02  0.10810403654E+03  0.00000000000E+00 0.  1.
         14    1    6    6    0    0 -0.14311804457E+02 -0.16761365217E+02 -0.96457510134E+01  0.24058504180E+02  0.00000000000E+00 0. -1.
         -5    1    3    3    0  503 -0.53695319650E+02  0.48892110763E+02 -0.52474187405E+02  0.89717647043E+02  0.47000000000E+01 0.  1.
         11    1    4    4    0    0 -0.47044066904E+02  0.33078315358E+02 -0.21399653969E+02  0.61361750039E+02  0.00000000000E+00 0. -1.
        -12    1    4    4    0    0 -0.32971196954E+03  0.18888465851E+03  0.66598115121E+02  0.38577546062E+03  0.00000000000E+00 0.  1.
</event>
<event>
12    1  0.8494789E-002  0.2522183E+03  0.7818608E-02  0.1113930E+00
         21   -1    0    0  503  502  0.00000000000E+00  0.00000000000E+00  0.33589950978E+03  0.33589950978E+03  0.00000000000E+00 0. -1.
         21   -1    0    0  501  503 -0.00000000000E+00 -0.00000000000E+00 -0.44496230699E+03  0.44496230699E+03  0.00000000000E+00 0. -1.
          6    2    1    2  501    0 -0.10588324541E+03 -0.12812994173E+03 -0.35517689616E+03  0.42846116061E+03  0.17262617115E+03 0.  0.
         24    2    3    3    0    0 -0.23012063883E+02 -0.28503838806E+02 -0.24328927845E+03  0.25718967406E+03  0.74932179484E+02 0.  0.
         -6    2    1    2    0  502  0.10588324541E+03  0.12812994173E+03  0.24611409895E+03  0.35240065615E+03  0.18969852168E+03 0.  0.
        -24    2    5    5    0    0  0.10035718093E+03  0.16262469622E+03  0.24054518320E+03  0.31671412790E+03  0.76990246556E+02 0.  0.
          5    1    3    3  501    0 -0.82871181523E+02 -0.99626102923E+02 -0.11188761771E+03  0.17127148656E+03  0.47000000000E+01 0. -1.
        -11    1    4    4    0    0  0.30448036479E+01  0.18429541580E+02 -0.19306031515E+02  0.26863389305E+02  0.00000000000E+00 0.  1.
         12    1    4    4    0    0 -0.26056867531E+02 -0.46933380386E+02 -0.22398324694E+03  0.23032628475E+03  0.00000000000E+00 0. -1.
         -5    1    5    5    0  502  0.55260644795E+01 -0.34494754491E+02  0.55689157504E+01  0.35686528252E+02  0.47000000000E+01 0.  1.
         11    1    6    6    0    0 -0.18260476964E+01  0.53976497839E+02  0.42155201950E+02  0.68511734912E+02  0.00000000000E+00 0. -1.
        -12    1    6    6    0    0  0.10218322862E+03  0.10864819838E+03  0.19838998125E+03  0.24820239299E+03  0.00000000000E+00 0.  1.
</event>
<event>
12    1  0.8494789E-002  0.1976480E+03  0.7818608E-02  0.1151872E+00
         21   -1    0    0  501  502  0.00000000000E+00  0.00000000000E+00  0.54135852819E+02  0.54135852819E+02  0.00000000000E+00 0. -1.
         21   -1    0    0  502  503 -0.00000000000E+00 -0.00000000000E+00 -0.12578167574E+04  0.12578167574E+04  0.00000000000E+00 0. -1.
         -6    2    1    2    0  503  0.53703795378E+02 -0.80468682087E+02 -0.10305017984E+04  0.10491680284E+04  0.17163999836E+03 0.  0.
        -24    2    3    3    0    0  0.27652042213E+02 -0.66081484121E+02 -0.10015199055E+04  0.10073622224E+04  0.81271938120E+02 0.  0.
          6    2    1    2  501    0 -0.53703795378E+02  0.80468682087E+02 -0.17317910622E+03  0.26278458178E+03  0.17235262445E+03 0.  0.
         24    2    5    5    0    0 -0.11194616248E+02 -0.91794734838E+01 -0.13186492615E+03  0.15520775536E+03  0.80569885248E+02 0.  0.
          5    1    5    5  501    0 -0.42509179130E+02  0.89648155571E+02 -0.41314180069E+02  0.10757682642E+03  0.47000000000E+01 0. -1.
        -13    1    6    6    0    0 -0.30462761570E+02 -0.28797153775E+02 -0.35295969708E+02  0.54800195124E+02  0.00000000000E+00 0.  1.
         14    1    6    6    0    0  0.19268145322E+02  0.19617680291E+02 -0.96568956442E+02  0.10040756024E+03  0.00000000000E+00 0. -1.
         -5    1    3    3    0  503  0.26051753165E+02 -0.14387197967E+02 -0.28981892844E+02  0.41805806069E+02  0.47000000000E+01 0.  1.
         13    1    4    4    0    0  0.35346042068E+02 -0.54927952584E+02 -0.37162290480E+03  0.37731950127E+03  0.00000000000E+00 0. -1.
        -14    1    4    4    0    0 -0.76939998556E+01 -0.11153531537E+02 -0.62989700071E+03  0.63004272109E+03  0.00000000000E+00 0.  1.
</event>
<event>
12    1  0.8494789E-002  0.2127587E+03  0.7818608E-02  0.1141755E+00
         21   -1    0    0  503  502  0.00000000000E+00  0.00000000000E+00  0.15948091365E+03  0.15948091365E+03  0.00000000000E+00 0.  1.
         21   -1    0    0  501  503 -0.00000000000E+00 -0.00000000000E+00 -0.51002473997E+03  0.51002473997E+03  0.00000000000E+00 0.  1.
          6    2    1    2  501    0 -0.46930890188E+02  0.92103115289E+02 -0.40825345949E+03  0.46036634068E+03  0.18595910344E+03 0.  0.
         24    2    3    3    0    0  0.13361009173E+02  0.37343624549E+02 -0.34676429936E+03  0.35820606578E+03  0.80579422884E+02 0.  0.
         -6    2    1    2    0  502  0.46930890188E+02 -0.92103115289E+02  0.57709633168E+02  0.20913931294E+03  0.17240463496E+03 0.  0.
        -24    2    5    5    0    0  0.97356860359E+02 -0.66556786062E+02  0.46494614834E+02  0.15131838212E+03  0.82627716470E+02 0.  0.
          5    1    3    3  501    0 -0.60291899361E+02  0.54759490740E+02 -0.61489160129E+02  0.10216027490E+03  0.47000000000E+01 0. -1.
        -13    1    4    4    0    0  0.13835902312E+02  0.53527448873E+02 -0.13582066830E+03  0.14664199232E+03  0.00000000000E+00 0.  1.
         14    1    4    4    0    0 -0.47489313853E+00 -0.16183824324E+02 -0.21094363106E+03  0.21156407346E+03  0.00000000000E+00 0. -1.
         -5    1    5    5    0  502 -0.50425970171E+02 -0.25546329228E+02  0.11215018334E+02  0.57820930820E+02  0.47000000000E+01 0.  1.
         11    1    6    6    0    0  0.40747155714E+02 -0.42451191660E+02 -0.18633766619E+02  0.61722375445E+02  0.00000000000E+00 0. -1.
        -12    1    6    6    0    0  0.56609704645E+02 -0.24105594401E+02  0.65128381453E+02  0.89596006675E+02  0.00000000000E+00 0.  1.
</event>
<event>
12    1  0.8494789E-002  0.2118140E+03  0.7818608E-02  0.1140302E+00
         21   -1    0    0  501  502  0.00000000000E+00  0.00000000000E+00  0.46251738780E+02  0.46251738780E+02  0.00000000000E+00 0. -1.
         21   -1    0    0  502  503 -0.00000000000E+00 -0.00000000000E+00 -0.17961377392E+04  0.17961377392E+04  0.00000000000E+00 0.  1.
         -6    2    1    2    0  503 -0.10705143365E+02 -0.12308848079E+03 -0.15002033986E+04  0.15149653357E+04  0.17100981548E+03 0.  0.
        -24    2    3    3    0    0 -0.72061040670E+02 -0.84240129365E+02 -0.89832443341E+03  0.90870291786E+03  0.80405300118E+02 0.  0.
          6    2    1    2  501    0  0.10705143365E+02  0.12308848079E+03 -0.24968260183E+03  0.32742414230E+03  0.17204590406E+03 0.  0.
         24    2    5    5    0    0 -0.23463282833E+02  0.13343072463E+03 -0.24125137443E+03  0.29044280982E+03  0.88320530994E+02 0.  0.
          5    1    5    5  501    0  0.34168426198E+02 -0.10342243832E+02 -0.84312274014E+01  0.36981332478E+02  0.47000000000E+01 0. -1.
        -13    1    6    6    0    0 -0.29959483781E+02  0.53596596589E+02 -0.38576058137E+02  0.72513985518E+02  0.00000000000E+00 0.  1.
         14    1    6    6    0    0  0.64962009477E+01  0.79834128037E+02 -0.20267531629E+03  0.21792882430E+03  0.00000000000E+00 0. -1.
         -5    1    3    3    0  503  0.61355897306E+02 -0.38848351429E+02 -0.60187896521E+03  0.60626241785E+03  0.47000000000E+01 0.  1.
         13    1    4    4    0    0 -0.31187196818E+02  0.50548935335E+01 -0.11552269608E+03  0.11976513058E+03  0.00000000000E+00 0. -1.
        -14    1    4    4    0    0 -0.40873843852E+02 -0.89295022899E+02 -0.78280173733E+03  0.78893778727E+03  0.00000000000E+00 0.  1.
</event>
<event>
12    1  0.8494789E-002  0.1940894E+03  0.7818608E-02  0.1154845E+00
         21   -1    0    0  501  502  0.00000000000E+00  0.00000000000E+00  0.71044138730E+03  0.71044138730E+03  0.00000000000E+00 0. -1.
         21   -1    0    0  502  503 -0.00000000000E+00 -0.00000000000E+00 -0.14167250557E+03  0.14167250557E+03  0.00000000000E+00 0.  1.
         -6    2    1    2    0  503 -0.41013731139E+02  0.78687437620E+02 -0.52715458572E+02  0.20102751679E+03  0.17250885181E+03 0.  0.
        -24    2    3    3    0    0  0.25613727632E+02  0.93328104281E+01  0.10848123083E+02  0.85651169609E+02  0.80469103929E+02 0.  0.
          6    2    1    2  501    0  0.41013731139E+02 -0.78687437620E+02  0.62148434030E+03  0.65108637607E+03  0.17261762624E+03 0.  0.
         24    2    5    5    0    0 -0.13951013761E+02 -0.10418905706E+03  0.35528035537E+03  0.37803307108E+03  0.75065847901E+02 0.  0.
          5    1    5    5  501    0  0.54964744900E+02  0.25501619439E+02  0.26620398493E+03  0.27305330500E+03  0.47000000000E+01 0. -1.
        -13    1    6    6    0    0 -0.27591253614E+02 -0.39358985090E+02  0.68383953137E+02  0.83586913030E+02  0.00000000000E+00 0.  1.
         14    1    6    6    0    0  0.13640239853E+02 -0.64830071969E+02  0.28689640223E+03  0.29444615805E+03  0.00000000000E+00 0. -1.
         -5    1    3    3    0  503 -0.66627458770E+02  0.69354627192E+02 -0.63563581655E+02  0.11537634718E+03  0.47000000000E+01 0.  1.
         13    1    4    4    0    0 -0.47376275340E+01 -0.23590996404E+02 -0.19988518976E+02  0.31281322172E+02  0.00000000000E+00 0. -1.
        -14    1    4    4    0    0  0.30351355166E+02  0.32923806832E+02  0.30836642060E+02  0.54369847436E+02  0.00000000000E+00 0.  1.
</event>
<event>
12    1  0.8494789E-002  0.2668161E+03  0.7818608E-02  0.1103249E+00
         21   -1    0    0  501  502  0.00000000000E+00  0.00000000000E+00  0.14653022454E+03  0.14653022454E+03  0.00000000000E+00 0.  1.
         21   -1    0    0  502  503 -0.00000000000E+00 -0.00000000000E+00 -0.76841293984E+03  0.76841293984E+03  0.00000000000E+00 0. -1.
         -6    2    1    2    0  503  0.29084097070E+02 -0.20115937369E+03 -0.58883380027E+03  0.64608807960E+03  0.17144557132E+03 0.  0.
        -24    2    3    3    0    0 -0.13083034238E+02 -0.20684745599E+03 -0.47922804438E+03  0.52841933707E+03  0.81304621232E+02 0.  0.
          6    2    1    2  501    0 -0.29084097070E+02  0.20115937369E+03 -0.33048915022E+02  0.26885508478E+03  0.17285788239E+03 0.  0.
         24    2    5    5    0    0 -0.19845370321E+02  0.20235047113E+03 -0.70973204946E+02  0.22952170771E+03  0.79394373869E+02 0.  0.
          5    1    5    5  501    0 -0.92387267497E+01 -0.11910974421E+01  0.37924289924E+02  0.39333377065E+02  0.47000000000E+01 0. -1.
        -13    1    6    6    0    0 -0.26578852043E+01  0.10645431842E+03 -0.77766993932E+02  0.13186087975E+03  0.00000000000E+00 0.  1.
         14    1    6    6    0    0 -0.17187485116E+02  0.95896152712E+02  0.67937889859E+01  0.97660827963E+02  0.00000000000E+00 0. -1.
         -5    1    3    3    0  503  0.42167131309E+02  0.56880823011E+01 -0.10960575589E+03  0.11766874253E+03  0.47000000000E+01 0.  1.
         13    1    4    4    0    0 -0.46820374039E+02 -0.11442480149E+03 -0.28623121758E+03  0.31179078328E+03  0.00000000000E+00 0. -1.
        -14    1    4    4    0    0  0.33737339801E+02 -0.92422654501E+02 -0.19299682680E+03  0.21662855379E+03  0.00000000000E+00 0.  1.
</event>
<event>
12    1  0.8494789E-002  0.1870106E+03  0.7818608E-02  0.1161493E+00
         21   -1    0    0  503  502  0.00000000000E+00  0.00000000000E+00  0.54267060369E+03  0.54267060369E+03  0.00000000000E+00 0. -1.
         21   -1    0    0  501  503 -0.00000000000E+00 -0.00000000000E+00 -0.70670935954E+02  0.70670935954E+02  0.00000000000E+00 0.  1.
          6    2    1    2  501    0 -0.67053320232E+02 -0.22753901206E+02  0.14092997593E+03  0.23310461324E+03  0.17164677341E+03 0.  0.
         24    2    3    3    0    0 -0.23721010846E+02 -0.17882648787E+02 -0.13675261136E+01  0.84201667585E+02  0.78775473425E+02 0.  0.
         -6    2    1    2    0  502  0.67053320232E+02  0.22753901206E+02  0.33106969181E+03  0.38023692640E+03  0.17308694807E+03 0.  0.
        -24    2    5    5    0    0  0.93225307604E+02  0.83726964662E+01  0.32771870361E+03  0.34982128742E+03  0.78830986368E+02 0.  0.
          5    1    3    3  501    0 -0.43332309387E+02 -0.48712524191E+01  0.14229750204E+03  0.14890294565E+03  0.47000000000E+01 0. -1.
        -11    1    4    4    0    0 -0.47314002821E+02  0.28294622886E+01  0.13755924159E+02  0.49354292308E+02  0.00000000000E+00 0.  1.
         12    1    4    4    0    0  0.23592991975E+02 -0.20712111075E+02 -0.15123450272E+02  0.34847375277E+02  0.00000000000E+00 0. -1.
         -5    1    5    5    0  502 -0.26171987372E+02  0.14381204740E+02  0.33509881936E+01  0.30415638981E+02  0.47000000000E+01 0.  1.
         13    1    6    6    0    0  0.63758976500E+02 -0.28949340238E+02  0.14509347779E+03  0.16110676175E+03  0.00000000000E+00 0. -1.
        -14    1    6    6    0    0  0.29466331104E+02  0.37322036704E+02  0.18262522582E+03  0.18871452567E+03  0.00000000000E+00 0.  1.
</event>
<event>
12    1  0.8494789E-002  0.2069252E+03  0.7818608E-02  0.1144561E+00
         21   -1    0    0  501  502  0.00000000000E+00  0.00000000000E+00  0.18151410306E+03  0.18151410306E+03  0.00000000000E+00 0.  1.
         21   -1    0    0  502  503 -0.00000000000E+00 -0.00000000000E+00 -0.28657549497E+03  0.28657549497E+03  0.00000000000E+00 0. -1.
         -6    2    1    2    0  503 -0.10065380829E+03 -0.44850085049E+02 -0.15355035763E+03  0.25555910236E+03  0.17201750847E+03 0.  0.
        -24    2    3    3    0    0 -0.19892442112E+02 -0.10424993326E+02 -0.10205916375E+02  0.87400831541E+02  0.83847211558E+02 0.  0.
          6    2    1    2  501    0  0.10065380829E+03  0.44850085049E+02  0.48488965716E+02  0.21253049568E+03  0.17514369113E+03 0.  0.
         24    2    5    5    0    0  0.69170141353E+02  0.63823897465E+02  0.94017966373E+02  0.15382609429E+03  0.77234001198E+02 0.  0.
          5    1    5    5  501    0  0.31483666940E+02 -0.18973812416E+02 -0.45529000657E+02  0.58704401388E+02  0.47000000000E+01 0. -1.
        -13    1    6    6    0    0  0.31193432703E+02 -0.13073044572E+02  0.40369147852E+02  0.52665005805E+02  0.00000000000E+00 0.  1.
         14    1    6    6    0    0  0.37976708650E+02  0.76896942038E+02  0.53648818521E+02  0.10116108848E+03  0.00000000000E+00 0. -1.
         -5    1    3    3    0  503 -0.80761366181E+02 -0.34425091722E+02 -0.14334444125E+03  0.16815827082E+03  0.47000000000E+01 0.  1.
         13    1    4    4    0    0 -0.30235492418E+02 -0.12002239558E+02 -0.42461766706E+02  0.53490563541E+02  0.00000000000E+00 0. -1.
        -14    1    4    4    0    0  0.10343050306E+02  0.15772462313E+01  0.32255850331E+02  0.33910268001E+02  0.00000000000E+00 0.  1.
</event>
<event>
12    1  0.8494789E-002  0.2242896E+03  0.7818608E-02  0.1130992E+00
         21   -1    0    0  503  502  0.00000000000E+00  0.00000000000E+00  0.45016252310E+02  0.45016252310E+02  0.00000000000E+00 0.  1.
         21   -1    0    0  501  503 -0.00000000000E+00 -0.00000000000E+00 -0.11210375293E+04  0.11210375293E+04  0.00000000000E+00 0.  1.
          6    2    1    2  501    0 -0.10601267859E+03  0.91175286931E+02 -0.59701212591E+03  0.63775332947E+03  0.17536878228E+03 0.  0.
         24    2    3    3    0    0  0.91303656715E+01  0.26088617946E+02 -0.16324995242E+03  0.18424929611E+03  0.80828686675E+02 0.  0.
         -6    2    1    2    0  502  0.10601267859E+03 -0.91175286931E+02 -0.47900915110E+03  0.52830045216E+03  0.17349345793E+03 0.  0.
        -24    2    5    5    0    0  0.37137978299E+01 -0.26088830953E+02 -0.30329494859E+03  0.31476151257E+03  0.79953515000E+02 0.  0.
          5    1    3    3  501    0 -0.11514304426E+03  0.65086668985E+02 -0.43376217349E+03  0.45350403336E+03  0.47000000000E+01 0. -1.
        -13    1    4    4    0    0 -0.12924672402E+02  0.43997060629E+02 -0.14068033517E+03  0.14796535136E+03  0.00000000000E+00 0.  1.
         14    1    4    4    0    0  0.22055038074E+02 -0.17908442683E+02 -0.22569617249E+02  0.36283944749E+02  0.00000000000E+00 0. -1.
         -5    1    5    5    0  502  0.10229888076E+03 -0.65086455978E+02 -0.17571420251E+03  0.21353893959E+03  0.47000000000E+01 0.  1.
         13    1    6    6    0    0 -0.17726140678E+02  0.20997290647E+02 -0.59524496355E+02  0.65561177111E+02  0.00000000000E+00 0. -1.
        -14    1    6    6    0    0  0.21439938507E+02 -0.47086121600E+02 -0.24377045223E+03  0.24920033546E+03  0.00000000000E+00 0.  1.
</event>
<event>
12    1  0.8494789E-002  0.2155202E+03  0.7818608E-02  0.1137347E+00
         21   -1    0    0  501  502  0.00000000000E+00  0.00000000000E+00  0.17619115229E+03  0.17619115229E+03  0.00000000000E+00 0. -1.
         21   -1    0    0  502  503 -0.00000000000E+00 -0.00000000000E+00 -0.41430709130E+03  0.41430709130E+03  0.00000000000E+00 0.  1.
         -6    2    1    2    0  503  0.85183952503E+02  0.98229105670E+02 -0.29748306193E+03  0.36734878443E+03  0.17188279239E+03 0.  0.
        -24    2    3    3    0    0  0.22070010570E+02  0.11441736663E+03 -0.24216429006E+03  0.28174688036E+03  0.84612895335E+02 0.  0.
          6    2    1    2  501    0 -0.85183952503E+02 -0.98229105670E+02  0.59367122915E+02  0.22314945916E+03  0.17136499899E+03 0.  0.
         24    2    5    5    0    0 -0.12338255568E+03 -0.90053561443E+02  0.56326709180E+02  0.18368673088E+03  0.85060084422E+02 0.  0.
          5    1    5    5  501    0  0.38198603173E+02 -0.81755442266E+01  0.30404137348E+01  0.39462728281E+02  0.47000000000E+01 0. -1.
        -13    1    6    6    0    0 -0.61219912910E+02 -0.17755417731E+02 -0.13933857485E+02  0.65247873375E+02  0.00000000000E+00 0.  1.
         14    1    6    6    0    0 -0.62162642766E+02 -0.72298143712E+02  0.70260566665E+02  0.11843885751E+03  0.00000000000E+00 0. -1.
         -5    1    3    3    0  503  0.63113941933E+02 -0.16188260962E+02 -0.55318771864E+02  0.85601904067E+02  0.47000000000E+01 0.  1.
         11    1    4    4    0    0 -0.15427424169E+02  0.80981952535E+02 -0.92644479079E+02  0.12401242501E+03  0.00000000000E+00 0. -1.
        -12    1    4    4    0    0  0.37497434739E+02  0.33435414097E+02 -0.14951981099E+03  0.15773445535E+03  0.00000000000E+00 0.  1.
</event>
<event>
12    1  0.8494789E-002  0.2321054E+03  0.7818608E-02  0.1125205E+00
         21   -1    0    0  501  502  0.00000000000E+00  0.00000000000E+00  0.35432433057E+03  0.35432433057E+03  0.00000000000E+00 0.  1.
         21   -1    0    0  502  503 -0.00000000000E+00 -0.00000000000E+00 -0.18319532347E+03  0.18319532347E+03  0.00000000000E+00 0.  1.
         -6    2    1    2    0  503 -0.15530903270E+03 -0.70014274575E+01 -0.25483208555E+02  0.23350012169E+03  0.17234557519E+03 0.  0.
        -24    2    3    3    0    0 -0.86029732280E+02 -0.48289352522E+02  0.35539093290E+02  0.13225721801E+03  0.80597569202E+02 0.  0.
          6    2    1    2  501    0  0.15530903270E+03  0.70014274575E+01  0.19661221566E+03  0.30401953235E+03  0.17205114670E+03 0.  0.
         24    2    5    5    0    0  0.16668213006E+03  0.40449040925E+02  0.13393660322E+03  0.23191951443E+03  0.80178488993E+02 0.  0.
          5    1    5    5  501    0 -0.11373097362E+02 -0.33447613467E+02  0.62675612435E+02  0.72100017922E+02  0.47000000000E+01 0. -1.
        -11    1    6    6    0    0  0.14713853560E+03  0.57859198164E+01  0.89714926587E+02  0.17242967720E+03  0.00000000000E+00 0.  1.
         12    1    6    6    0    0  0.19543594464E+02  0.34663121108E+02  0.44221676634E+02  0.59489837231E+02  0.00000000000E+00 0. -1.
         -5    1    3    3    0  503 -0.69279300419E+02  0.41287925064E+02 -0.61022301844E+02  0.10124290368E+03  0.47000000000E+01 0.  1.
         13    1    4    4    0    0 -0.55043947561E+01 -0.12908141832E+01  0.38558752922E+02  0.38971040399E+02  0.00000000000E+00 0. -1.
        -14    1    4    4    0    0 -0.80525337524E+02 -0.46998538338E+02 -0.30196596326E+01  0.93286177613E+02  0.00000000000E+00 0.  1.
</event>
<event>
12    1  0.8494789E-002  0.1943385E+03  0.7818608E-02  0.1154715E+00
         21   -1    0    0  503  502  0.00000000000E+00  0.00000000000E+00  0.21861342381E+03  0.21861342381E+03  0.00000000000E+00 0.  1.
         21   -1    0    0  501  503 -0.00000000000E+00 -0.00000000000E+00 -0.19057244805E+03  0.19057244805E+03  0.00000000000E+00 0. -1.
          6    2    1    2  501    0  0.17348615662E+02 -0.86984149883E+02 -0.49322922764E+02  0.20001456547E+03  0.17235387693E+03 0.  0.
         24    2    3    3    0    0  0.56248765434E+02 -0.55598923182E+02  0.19939492162E+02  0.11447144050E+03  0.80317890104E+02 0.  0.
         -6    2    1    2    0  502 -0.17348615662E+02  0.86984149883E+02  0.77363898516E+02  0.20917130639E+03  0.17291687549E+03 0.  0.
        -24    2    5    5    0    0 -0.52101330800E+02  0.16470311963E+01  0.65490348812E+02  0.11614848007E+03  0.80524668589E+02 0.  0.
          5    1    3    3  501    0 -0.38900149772E+02 -0.31385226702E+02 -0.69262414926E+02  0.85543124965E+02  0.47000000000E+01 0. -1.
        -11    1    4    4    0    0  0.10538273519E+02 -0.64184562853E+02  0.19697320140E+02  0.67961001597E+02  0.00000000000E+00 0.  1.
         12    1    4    4    0    0  0.45710491915E+02  0.85856396710E+01  0.24217202178E+00  0.46510438903E+02  0.00000000000E+00 0. -1.
         -5    1    5    5    0  502  0.34752715138E+02  0.85337118687E+02  0.11873549704E+02  0.93022826327E+02  0.47000000000E+01 0.  1.
         11    1    6    6    0    0 -0.57371246459E+02  0.23982264601E+02  0.20208327474E+02  0.65383372771E+02  0.00000000000E+00 0. -1.
        -12    1    6    6    0    0  0.52699156590E+01 -0.22335233404E+02  0.45282021338E+02  0.50765107296E+02  0.00000000000E+00 0.  1.
</event>
<event>
12    1  0.8494789E-002  0.2787712E+03  0.7818608E-02  0.1096415E+00
         21   -1    0    0  501  502  0.00000000000E+00  0.00000000000E+00  0.99316775558E+03  0.99316775558E+03  0.00000000000E+00 0. -1.
         21   -1    0    0  502  503 -0.00000000000E+00 -0.00000000000E+00 -0.82006083495E+02  0.82006083495E+02  0.00000000000E+00 0.  1.
         -6    2    1    2    0  503  0.10186898174E+03  0.19411448534E+03  0.57199928844E+03  0.63614704730E+03  0.17158717014E+03 0.  0.
        -24    2    3    3    0    0  0.13998796317E+03  0.14658586117E+03  0.44130988765E+03  0.49187703538E+03  0.78131661128E+02 0.  0.
          6    2    1    2  501    0 -0.10186898174E+03 -0.19411448534E+03  0.33916238365E+03  0.43902679178E+03  0.17220824184E+03 0.  0.
         24    2    5    5    0    0 -0.22107947606E+01 -0.96875657362E+02  0.96217080956E+02  0.15897027248E+03  0.81388207152E+02 0.  0.
          5    1    5    5  501    0 -0.99658186979E+02 -0.97238827975E+02  0.24294530269E+03  0.28005651929E+03  0.47000000000E+01 0. -1.
        -13    1    6    6    0    0 -0.41729780216E+02 -0.53567745776E+02  0.50473130550E+02  0.84607416057E+02  0.00000000000E+00 0.  1.
         14    1    6    6    0    0  0.39518985455E+02 -0.43307911586E+02  0.45743950406E+02  0.74362856428E+02  0.00000000000E+00 0. -1.
         -5    1    3    3    0  503 -0.38118981430E+02  0.47528624166E+02  0.13068940079E+03  0.14427001192E+03  0.47000000000E+01 0.  1.
         11    1    4    4    0    0  0.67772273871E+02  0.10361708506E+03  0.32961411294E+03  0.35210090155E+03  0.00000000000E+00 0. -1.
        -12    1    4    4    0    0  0.72215689298E+02  0.42968776111E+02  0.11169577471E+03  0.13977613383E+03  0.00000000000E+00 0.  1.
</event>
<event>
12    1  0.8494789E-002  0.1997802E+03  0.7818608E-02  0.1149966E+00
         21   -1    0    0  501  502  0.00000000000E+00  0.00000000000E+00  0.19331225432E+04  0.19331225432E+04  0.00000000000E+00 0.  1.
         21   -1    0    0  502  503 -0.00000000000E+00 -0.00000000000E+00 -0.70286435440E+02  0.70286435440E+02  0.00000000000E+00 0. -1.
         -6    2    1    2    0  503 -0.17750233366E+02  0.99136652836E+02  0.89294892140E+02  0.21865113191E+03  0.17231248650E+03 0.  0.
        -24    2    3    3    0    0 -0.23767038413E+02 -0.45207510833E+01  0.18915447667E+02  0.93126570434E+02  0.87917317151E+02 0.  0.
          6    2    1    2  501    0  0.17750233366E+02 -0.99136652836E+02  0.17735412156E+04  0.17847578467E+04  0.17253689817E+03 0.  0.
         24    2    5    5    0    0 -0.11625485074E+02 -0.10520757091E+01  0.11505383647E+04  0.11533798621E+04  0.80064468354E+02 0.  0.
          5    1    5    5  501    0  0.29375718441E+02 -0.98084577127E+02  0.62300285097E+03  0.63137798458E+03  0.47000000000E+01 0. -1.
        -11    1    6    6    0    0  0.12758599460E+01 -0.12396099418E+02  0.10986668353E+04  0.10987375056E+04  0.00000000000E+00 0.  1.
         12    1    6    6    0    0 -0.12901345020E+02  0.11344023709E+02  0.51871529326E+02  0.54642356573E+02  0.00000000000E+00 0. -1.
         -5    1    3    3    0  503  0.60168050468E+01  0.10365740392E+03  0.70379444473E+02  0.12552456148E+03  0.47000000000E+01 0.  1.
         13    1    4    4    0    0 -0.28563338505E+02  0.94669424445E+01 -0.29719427958E+02  0.42293400241E+02  0.00000000000E+00 0. -1.
        -14    1    4    4    0    0  0.47963000918E+01 -0.13987693528E+02  0.48634875625E+02  0.50833170193E+02  0.00000000000E+00 0.  1.
</event>
<event>
12    1  0.8494789E-002  0.1949483E+03  0.7818608E-02  0.1154275E+00
         21   -1    0    0  503  502  0.00000000000E+00  0.00000000000E+00  0.68562492044E+03  0.68562492044E+03  0.00000000000E+00 0.  1.
         21   -1    0    0  501  503 -0.00000000000E+00 -0.00000000000E+00 -0.80344290285E+02  0.80344290285E+02  0.00000000000E+00 0.  1.
          6    2    1    2  501    0 -0.45958645743E+02  0.78856417785E+02  0.88746630854E+02  0.21419806824E+03  0.17226234704E+03 0.  0.
         24    2    3    3    0    0  0.26686541628E+01  0.80806714328E+02  0.17485406765E+01  0.11440239876E+03  0.80919742042E+02 0.  0.
         -6    2    1    2    0  502  0.45958645743E+02 -0.78856417785E+02  0.51653399930E+03  0.55177114248E+03  0.17121182639E+03 0.  0.
        -24    2    5    5    0    0  0.34784834604E+02 -0.46105996235E+02  0.50549157117E+03  0.51514506726E+03  0.80727716339E+02 0.  0.
          5    1    3    3  501    0 -0.48627299906E+02 -0.19502965425E+01  0.86998090178E+02  0.99795669482E+02  0.47000000000E+01 0. -1.
        -13    1    4    4    0    0 -0.38699466194E+02  0.31583772598E+02 -0.20353483823E+01  0.49993259728E+02  0.00000000000E+00 0.  1.
         14    1    4    4    0    0  0.41368120357E+02  0.49222941730E+02  0.37838890588E+01  0.64409139032E+02  0.00000000000E+00 0. -1.
         -5    1    5    5    0  502  0.11173811139E+02 -0.32750421551E+02  0.11042428122E+02  0.36626075219E+02  0.47000000000E+01 0.  1.
         11    1    6    6    0    0 -0.18917405882E+02  0.93551311901E+01  0.81857907302E+02  0.84534630258E+02  0.00000000000E+00 0. -1.
        -12    1    6    6    0    0  0.53702240486E+02 -0.55461127425E+02  0.42363366387E+03  0.43061043700E+03  0.00000000000E+00 0.  1.
</event>
<event>
12    1  0.8494789E-002  0.2018646E+03  0.7818608E-02  0.1148536E+00
         21   -1    0    0  501  502  0.00000000000E+00  0.00000000000E+00  0.50247502767E+02  0.50247502767E+02  0.00000000000E+00 0.  1.
         21   -1    0    0  502  503 -0.00000000000E+00 -0.00000000000E+00 -0.11055516081E+04  0.11055516081E+04  0.00000000000E+00 0.  1.
         -6    2    1    2    0  503  0.99406404117E+02 -0.27581133787E+02 -0.83108525370E+03  0.85524968610E+03  0.17351361487E+03 0.  0.
        -24    2    3    3    0    0 -0.16187260657E+02 -0.10230051591E+02 -0.27811111540E+03  0.29003694473E+03  0.80055951895E+02 0.  0.
          6    2    1    2  501    0 -0.99406404117E+02  0.27581133787E+02 -0.22421885168E+03  0.30054942481E+03  0.17150367688E+03 0.  0.
         24    2    5    5    0    0 -0.10693416999E+03 -0.15753815492E+02 -0.91772932925E+02  0.16091204986E+03  0.76074418557E+02 0.  0.
          5    1    5    5  501    0  0.75277658706E+01  0.43334949279E+02 -0.13244591876E+03  0.13963737495E+03  0.47000000000E+01 0. -1.
        -13    1    6    6    0    0 -0.93094543739E+02 -0.42268590877E+02 -0.72310951254E+02  0.12522819778E+03  0.00000000000E+00 0.  1.
         14    1    6    6    0    0 -0.13839626249E+02  0.26514775385E+02 -0.19461981671E+02  0.35683852076E+02  0.00000000000E+00 0. -1.
         -5    1    3    3    0  503  0.11559366477E+03 -0.17351082196E+02 -0.55297413829E+03  0.56521274137E+03  0.47000000000E+01 0.  1.
         11    1    4    4    0    0  0.66929724446E+01 -0.11142232451E+02 -0.22066244893E+01  0.13183869530E+02  0.00000000000E+00 0. -1.
        -12    1    4    4    0    0 -0.22880233101E+02  0.91218086020E+00 -0.27590449092E+03  0.27685307520E+03  0.00000000000E+00 0.  1.
</event>
<event>
12    1  0.8494789E-002  0.1781540E+03  0.7818608E-02  0.1169622E+00
         21   -1    0    0  501  502  0.00000000000E+00  0.00000000000E+00  0.28664048806E+03  0.28664048806E+03  0.00000000000E+00 0.  1.
         21   -1    0    0  502  503 -0.00000000000E+00 -0.00000000000E+00 -0.11071445352E+03  0.11071445352E+03  0.00000000000E+00 0.  1.
         -6    2    1    2    0  503 -0.34917520888E+02  0.25532673089E+02  0.91669733373E+02  0.20035514012E+03  0.17282271695E+03 0.  0.
        -24    2    3    3    0    0 -0.30503751125E+02 -0.22607510885E+02  0.11651646151E+03  0.14579866868E+03  0.78991060292E+02 0.  0.
          6    2    1    2  501    0  0.34917520888E+02 -0.25532673089E+02  0.84256301165E+02  0.19699980147E+03  0.17273866629E+03 0.  0.
         24    2    5    5    0    0  0.72268653772E+02  0.11949485237E+01  0.11536240887E+02  0.11086171435E+03  0.83264930407E+02 0.  0.
          5    1    5    5  501    0 -0.37351132884E+02 -0.26727621612E+02  0.72720060278E+02  0.86138087114E+02  0.47000000000E+01 0. -1.
        -13    1    6    6    0    0  0.53070113285E+02 -0.37498520610E+02 -0.36282581691E+01  0.65082564711E+02  0.00000000000E+00 0.  1.
         14    1    6    6    0    0  0.19198540487E+02  0.38693469134E+02  0.15164499056E+02  0.45779149643E+02  0.00000000000E+00 0. -1.
         -5    1    3    3    0  503 -0.44137697636E+01  0.48140183973E+02 -0.24846728136E+02  0.54556471436E+02  0.47000000000E+01 0.  1.
         13    1    4    4    0    0 -0.19861546302E+02 -0.17445841214E+02 -0.21698439793E+01  0.26524453248E+02  0.00000000000E+00 0. -1.
        -14    1    4    4    0    0 -0.10642204822E+02 -0.51616696706E+01  0.11868630549E+03  0.11927421544E+03  0.00000000000E+00 0.  1.
</event>
<event>
12    1  0.8494789E-002  0.2557539E+03  0.7818608E-02  0.1110975E+00
         21   -1    0    0  501  502  0.00000000000E+00  0.00000000000E+00  0.56142284856E+02  0.56142284856E+02  0.00000000000E+00 0.  1.
         21   -1    0    0  502  503 -0.00000000000E+00 -0.00000000000E+00 -0.13754638733E+04  0.13754638733E+04  0.00000000000E+00 0.  1.
         -6    2    1    2    0  503  0.17935500124E+03 -0.39478420711E+01 -0.95413283676E+03  0.98576660914E+03  0.17082896589E+03 0.  0.
        -24    2    3    3    0    0  0.19345196522E+03 -0.23425744585E+02 -0.91932940207E+03  0.94320509900E+03  0.80603231326E+02 0.  0.
          6    2    1    2  501    0 -0.17935500124E+03  0.39478420711E+01 -0.36518875164E+03  0.44583954898E+03  0.18228076469E+03 0.  0.
         24    2    5    5    0    0 -0.62346339686E+02  0.19859643179E+02 -0.29048088506E+03  0.30602693287E+03  0.70653149664E+02 0.  0.
          5    1    5    5  501    0 -0.11700866155E+03 -0.15911801108E+02 -0.74707866587E+02  0.13981261611E+03  0.47000000000E+01 0. -1.
        -13    1    6    6    0    0 -0.20111798037E+02  0.15486923445E+02 -0.20224816358E+02  0.32455699265E+02  0.00000000000E+00 0.  1.
         14    1    6    6    0    0 -0.42234541649E+02  0.43727197343E+01 -0.27025606870E+03  0.27357123360E+03  0.00000000000E+00 0. -1.
         -5    1    3    3    0  503 -0.14096963982E+02  0.19477902513E+02 -0.34803434688E+02  0.42561510146E+02  0.47000000000E+01 0.  1.
         11    1    4    4    0    0  0.80943663092E+02  0.29766573294E+02 -0.35702913901E+03  0.36729787854E+03  0.00000000000E+00 0. -1.
        -12    1    4    4    0    0  0.11250830213E+03 -0.53192317879E+02 -0.56230026306E+03  0.57590722045E+03  0.00000000000E+00 0.  1.
</event>
<event>
12    1  0.8494789E-002  0.1727966E+03  0.7818608E-02  0.1175008E+00
         21   -1    0    0  501  502  0.00000000000E+00  0.00000000000E+00  0.41846979829E+03  0.41846979829E+03  0.00000000000E+00 0.  1.
         21   -1    0    0  502  503 -0.00000000000E+00 -0.00000000000E+00 -0.13190342439E+03  0.13190342439E+03  0.00000000000E+00 0.  1.
         -6    2    1    2    0  503  0.61368904074E+01  0.48693188049E+01 -0.43240358804E+02  0.17812470216E+03  0.17261897115E+03 0.  0.
        -24    2    3    3    0    0 -0.57670555593E+02 -0.37815378647E+01  0.43122627356E+01  0.97940107000E+02  0.78952364995E+02 0.  0.
          6    2    1    2  501    0 -0.61368904074E+01 -0.48693188049E+01  0.32980673271E+03  0.37224852051E+03  0.17243870910E+03 0.  0.
         24    2    5    5    0    0 -0.33281884718E+02 -0.11039988920E+02  0.33230873996E+03  0.34390636241E+03  0.81319876073E+02 0.  0.
          5    1    5    5  501    0  0.27144994311E+02  0.61706701150E+01 -0.25020072537E+01  0.28342158106E+02  0.47000000000E+01 0. -1.
        -11    1    6    6    0    0  0.19905027227E+01 -0.41617663362E+02  0.14491139424E+03  0.15078230727E+03  0.00000000000E+00 0.  1.
         12    1    6    6    0    0 -0.35272387441E+02  0.30577674442E+02  0.18739734572E+03  0.19312405514E+03  0.00000000000E+00 0. -1.
         -5    1    3    3    0  503  0.63807446000E+02  0.86508566696E+01 -0.47552621540E+02  0.80184595163E+02  0.47000000000E+01 0.  1.
         11    1    4    4    0    0  0.17044204569E+02 -0.14142267716E+02 -0.20525970502E+01  0.22242342507E+02  0.00000000000E+00 0. -1.
        -12    1    4    4    0    0 -0.74714760162E+02  0.10360729851E+02  0.63648597858E+01  0.75697764493E+02  0.00000000000E+00 0.  1.
</event>
<event>
12    1  0.8494789E-002  0.1956037E+03  0.7818608E-02  0.1153730E+00
         21   -1    0    0  501  502  0.00000000000E+00  0.00000000000E+00  0.49019030345E+03  0.49019030345E+03  0.00000000000E+00 0.  1.
         21   -1    0    0  502  503 -0.00000000000E+00 -0.00000000000E+00 -0.79844579148E+02  0.79844579148E+02  0.00000000000E+00 0. -1.
         -6    2    1    2    0  503  0.56854695385E+02  0.73670911828E+02  0.15830488183E+03  0.25163710291E+03  0.17204922643E+03 0.  0.
        -24    2    3    3    0    0  0.42090379292E+02 -0.21186702085E+02  0.11378364498E+03  0.14571174015E+03  0.77876292780E+02 0.  0.
          6    2    1    2  501    0 -0.56854695385E+02 -0.73670911828E+02  0.25204084247E+03  0.31839777968E+03  0.17085871413E+03 0.  0.
         24    2    5    5    0    0 -0.41477271350E+02  0.20234335895E+02  0.78395645769E+02  0.12033363589E+03  0.78768739118E+02 0.  0.
          5    1    5    5  501    0 -0.15377424035E+02 -0.93905247723E+02  0.17364519670E+03  0.19806414380E+03  0.47000000000E+01 0. -1.
        -11    1    6    6    0    0 -0.14809899083E+02 -0.12939273970E+02  0.75111956494E+02  0.77643827379E+02  0.00000000000E+00 0.  1.
         12    1    6    6    0    0 -0.26667372267E+02  0.33173609865E+02  0.32836892752E+01  0.42689808507E+02  0.00000000000E+00 0. -1.
         -5    1    3    3    0  503  0.14764316093E+02  0.94857613913E+02  0.44521236846E+02  0.10592536277E+03  0.47000000000E+01 0.  1.
         11    1    4    4    0    0 -0.71917204180E+01 -0.37632848344E+02  0.39176603563E+02  0.54797430449E+02  0.00000000000E+00 0. -1.
        -12    1    4    4    0    0  0.49282099710E+02  0.16446146259E+02  0.74607041419E+02  0.90914309698E+02  0.00000000000E+00 0.  1.
</event>
<event>
12    1  0.8494789E-002  0.1827759E+03  0.7818608E-02  0.1165163E+00
         21   -1    0    0  501  502  0.00000000000E+00  0.00000000000E+00  0.48591423424E+02  0.48591423424E+02  0.00000000000E+00 0. -1.
         21   -1    0    0  502  503 -0.00000000000E+00 -0.00000000000E+00 -0.80737457467E+03  0.80737457467E+03  0.00000000000E+00 0. -1.
         -6    2    1    2    0  503  0.44684982571E+01 -0.63804576826E+02 -0.54458612141E+03  0.57443979820E+03  0.17121929395E+03 0.  0.
        -24    2    3    3    0    0  0.68638877587E+02 -0.27188746085E+02 -0.32528059188E+03  0.34297584436E+03  0.79840108528E+02 0.  0.
          6    2    1    2  501    0 -0.44684982571E+01  0.63804576826E+02 -0.21419702983E+03  0.28152619989E+03  0.17113048278E+03 0.  0.
         24    2    5    5    0    0 -0.53664148708E+00 -0.26756795157E+02 -0.61103474441E+02  0.10354713288E+03  0.79196970065E+02 0.  0.
          5    1    5    5  501    0 -0.39318567700E+01  0.90561371983E+02 -0.15309355539E+03  0.17797906701E+03  0.47000000000E+01 0. -1.
        -11    1    6    6    0    0 -0.26403365378E+02 -0.18042929684E+02 -0.68216588586E+02  0.75340480309E+02  0.00000000000E+00 0.  1.
         12    1    6    6    0    0  0.25866723891E+02 -0.87138654732E+01  0.71131141450E+01  0.28206652570E+02  0.00000000000E+00 0. -1.
         -5    1    3    3    0  503 -0.64170379330E+02 -0.36615830741E+02 -0.21930552953E+03  0.23146395384E+03  0.47000000000E+01 0.  1.
         11    1    4    4    0    0 -0.29508246656E+01 -0.77136182101E+01 -0.17678621688E+03  0.17697902065E+03  0.00000000000E+00 0. -1.
        -12    1    4    4    0    0  0.71589702252E+02 -0.19475127875E+02 -0.14849437500E+03  0.16599682371E+03  0.00000000000E+00 0.  1.
</event>
<event>
12    1  0.8494789E-002  0.1995455E+03  0.7818608E-02  0.1150538E+00
         21   -1    0    0  503  502  0.00000000000E+00  0.00000000000E+00  0.36099039647E+03  0.36099039647E+03  0.00000000000E+00 0.  1.
         21   -1    0    0  501  503 -0.00000000000E+00 -0.00000000000E+00 -0.23380243754E+03  0.23380243754E+03  0.00000000000E+00 0.  1.
          6    2    1    2  501    0  0.51605946692E+02 -0.89708670902E+02 -0.15363396219E+03  0.25029410982E+03  0.16832387740E+03 0.  0.
         24    2    3    3    0    0 -0.33726500228E+02 -0.55438975846E+02 -0.10684834953E+03  0.14701283345E+03  0.77364375145E+02 0.  0.
         -6    2    1    2    0  502 -0.51605946692E+02  0.89708670902E+02  0.28082192113E+03  0.34449872418E+03  0.17060949624E+03 0.  0.
        -24    2    5    5    0    0 -0.81485980241E+02  0.12539555904E+02  0.13851379745E+03  0.17981241395E+03  0.79682034907E+02 0.  0.
          5    1    3    3  501    0  0.85332446920E+02 -0.34269695056E+02 -0.46785612667E+02  0.10328127637E+03  0.47000000000E+01 0. -1.
        -11    1    4    4    0    0 -0.63626785786E+01 -0.44863031239E+02 -0.10795994207E+02  0.46580347160E+02  0.00000000000E+00 0.  1.
         12    1    4    4    0    0 -0.27363821650E+02 -0.10575944607E+02 -0.96052355321E+02  0.10043248629E+03  0.00000000000E+00 0. -1.
         -5    1    5    5    0  502  0.29880033549E+02  0.77169114998E+02  0.14230812367E+03  0.16468631023E+03  0.47000000000E+01 0.  1.
         13    1    6    6    0    0 -0.21682647870E+02  0.10451344175E+02 -0.47672668375E+01  0.24537616975E+02  0.00000000000E+00 0. -1.
        -14    1    6    6    0    0 -0.59803332371E+02  0.20882117293E+01  0.14328106429E+03  0.15527479697E+03  0.00000000000E+00 0.  1.
</event>
<event>
12    1  0.8494789E-002  0.2500306E+03  0.7818608E-02  0.1113452E+00
         21   -1    0    0  501  502  0.00000000000E+00  0.00000000000E+00  0.84845495757E+03  0.84845495757E+03  0.00000000000E+00 0.  1.
         21   -1    0    0  502  503 -0.00000000000E+00 -0.00000000000E+00 -0.14846848338E+03  0.14846848338E+03  0.00000000000E+00 0. -1.
         -6    2    1    2    0  503  0.15259790367E+03 -0.96477085141E+02 -0.41493149323E+01  0.25006500693E+03  0.17297786770E+03 0.  0.
        -24    2    3    3    0    0  0.16567235749E+02 -0.52625803395E+02 -0.36001119021E+02  0.10355935874E+03  0.79903139670E+02 0.  0.
          6    2    1    2  501    0 -0.15259790367E+03  0.96477085141E+02  0.70413578912E+03  0.74685843402E+03  0.17145367534E+03 0.  0.
         24    2    5    5    0    0 -0.48196490909E+02 -0.15946157072E+02  0.30936609163E+03  0.32329752408E+03  0.78972962223E+02 0.  0.
          5    1    5    5  501    0 -0.10440141276E+03  0.11242324221E+03  0.39476969749E+03  0.42356090994E+03  0.47000000000E+01 0. -1.
        -13    1    6    6    0    0 -0.53101297197E+02  0.11514743970E+02  0.11800004255E+03  0.12990899559E+03  0.00000000000E+00 0.  1.
         14    1    6    6    0    0  0.49048062888E+01 -0.27460901042E+02  0.19136604908E+03  0.19338852849E+03  0.00000000000E+00 0. -1.
         -5    1    3    3    0  503  0.13603066792E+03 -0.43851281746E+02  0.31851804089E+02  0.14650564818E+03  0.47000000000E+01 0.  1.
         11    1    4    4    0    0  0.39802556746E+02 -0.47627906812E+02 -0.46521006074E+02  0.77568453878E+02  0.00000000000E+00 0. -1.
        -12    1    4    4    0    0 -0.23235320997E+02 -0.49978965831E+01  0.10519887053E+02  0.25990904865E+02  0.00000000000E+00 0.  1.
</event>
<event>
12    1  0.8494789E-002  0.2028056E+03  0.7818608E-02  0.1148130E+00
         21   -1    0    0  503  502  0.00000000000E+00  0.00000000000E+00  0.11823117972E+03  0.11823117972E+03  0.00000000000E+00 0. -1.
         21   -1    0    0  501  503 -0.00000000000E+00 -0.00000000000E+00 -0.34221939434E+03  0.34221939434E+03  0.00000000000E+00 0.  1.
          6    2    1    2  501    0 -0.87406693744E+02  0.48426367812E+02 -0.11850152185E+03  0.23185144125E+03  0.17241646360E+03 0.  0.
         24    2    3    3    0    0 -0.12244225272E+03  0.63798226220E+02 -0.10384189900E+03  0.19061093973E+03  0.80542358033E+02 0.  0.
         -6    2    1    2    0  502  0.87406693744E+02 -0.48426367812E+02 -0.10548669276E+03  0.22859913281E+03  0.17647968143E+03 0.  0.
        -24    2    5    5    0    0  0.73113426429E+02  0.14957773031E+01  0.29633068791E+01  0.10826621758E+03  0.79780838603E+02 0.  0.
          5    1    3    3  501    0  0.35035558975E+02 -0.15371858408E+02 -0.14659622852E+02  0.41240501522E+02  0.47000000000E+01 0. -1.
        -13    1    4    4    0    0  0.11300605534E+02  0.11794050539E+02 -0.99726132565E+01  0.19137824556E+02  0.00000000000E+00 0.  1.
         14    1    4    4    0    0 -0.13374285825E+03  0.52004175681E+02 -0.93869285740E+02  0.17147311517E+03  0.00000000000E+00 0. -1.
         -5    1    5    5    0  502  0.14293267315E+02 -0.49922145115E+02 -0.10844999964E+03  0.12033291522E+03  0.47000000000E+01 0.  1.
         13    1    6    6    0    0  0.34477675457E+02 -0.39136264612E+02  0.14778090649E+01  0.52177976507E+02  0.00000000000E+00 0. -1.
        -14    1    6    6    0    0  0.38635750972E+02  0.40632041915E+02  0.14854978142E+01  0.56088241077E+02  0.00000000000E+00 0.  1.
</event>
<event>
12    1  0.8494789E-002  0.1888251E+03  0.7818608E-02  0.1159852E+00
         21   -1    0    0  501  502  0.00000000000E+00  0.00000000000E+00  0.13058502663E+04  0.13058502663E+04  0.00000000000E+00 0.  1.
         21   -1    0    0  502  503 -0.00000000000E+00 -0.00000000000E+00 -0.33547505581E+03  0.33547505581E+03  0.00000000000E+00 0.  1.
         -6    2    1    2    0  503 -0.76185261387E+02  0.13993735953E+02 -0.30178211097E+03  0.35523078383E+03  0.17063542594E+03 0.  0.
        -24    2    3    3    0    0 -0.93678515074E+01 -0.50904491414E+02 -0.17328375863E+03  0.19645338390E+03  0.76731005140E+02 0.  0.
          6    2    1    2  501    0  0.76185261387E+02 -0.13993735953E+02  0.12721573215E+04  0.12860945383E+04  0.17220595849E+03 0.  0.
         24    2    5    5    0    0  0.78045963778E+02 -0.10514687398E+02  0.12745401150E+04  0.12795117048E+04  0.80597559857E+02 0.  0.
          5    1    5    5  501    0 -0.18607023905E+01 -0.34790485551E+01 -0.23827935591E+01  0.65828335373E+01  0.47000000000E+01 0. -1.
        -13    1    6    6    0    0  0.16732654023E+02 -0.40215570238E+02  0.41662967284E+03  0.41890041549E+03  0.00000000000E+00 0.  1.
         14    1    6    6    0    0  0.61313309755E+02  0.29700882839E+02  0.85791044220E+03  0.86061128927E+03  0.00000000000E+00 0. -1.
         -5    1    3    3    0  503 -0.66817409880E+02  0.64898227367E+02 -0.12849835233E+03  0.15877739994E+03  0.47000000000E+01 0.  1.
         11    1    4    4    0    0  0.79625913463E+01 -0.57436114660E+02 -0.67173082534E+02  0.88738566279E+02  0.00000000000E+00 0. -1.
        -12    1    4    4    0    0 -0.17330442854E+02  0.65316232460E+01 -0.10611067610E+03  0.10771481762E+03  0.00000000000E+00 0.  1.
</event>
<event>
12    1  0.8494789E-002  0.1789237E+03  0.7818608E-02  0.1169702E+00
         21   -1    0    0  503  502  0.00000000000E+00  0.00000000000E+00  0.94591057350E+03  0.94591057350E+03  0.00000000000E+00 0.  1.
         21   -1    0    0  501  503 -0.00000000000E+00 -0.00000000000E+00 -0.45091988615E+02  0.45091988615E+02  0.00000000000E+00 0.  1.
          6    2    1    2  501    0 -0.38307348802E+02 -0.19858232740E+02  0.19911738413E+03  0.26769649613E+03  0.17364296416E+03 0.  0.
         24    2    3    3    0    0 -0.64136423955E+02 -0.66884286297E+02  0.13575768523E+03  0.18453922177E+03  0.83890325059E+02 0.  0.
         -6    2    1    2    0  502  0.38307348802E+02  0.19858232740E+02  0.70170120076E+03  0.72330606598E+03  0.17007435892E+03 0.  0.
        -24    2    5    5    0    0  0.46526709891E+02 -0.32245922380E+02  0.60638038562E+03  0.61426227352E+03  0.80102648850E+02 0.  0.
          5    1    3    3  501    0  0.25829075153E+02  0.47026053557E+02  0.63359698892E+02  0.83157274367E+02  0.47000000000E+01 0. -1.
        -13    1    4    4    0    0 -0.26646467256E+02 -0.30511126443E+02  0.15654771647E+01  0.40539040107E+02  0.00000000000E+00 0.  1.
         14    1    4    4    0    0 -0.37489956699E+02 -0.36373159854E+02  0.13419220807E+03  0.14400018166E+03  0.00000000000E+00 0. -1.
         -5    1    5    5    0  502 -0.82193610894E+01  0.52104155120E+02  0.95320815131E+02  0.10904379246E+03  0.47000000000E+01 0.  1.
         13    1    6    6    0    0  0.16035060404E+01  0.21455220071E+02  0.67327086649E+02  0.70681216009E+02  0.00000000000E+00 0. -1.
        -14    1    6    6    0    0  0.44923203851E+02 -0.53701142451E+02  0.53905329898E+03  0.54358105751E+03  0.00000000000E+00 0.  1.
</event>
<event>
12    1  0.8494789E-002  0.1816395E+03  0.7818608E-02  0.1166567E+00
         21   -1    0    0  503  502  0.00000000000E+00  0.00000000000E+00  0.72810691851E+03  0.72810691851E+03  0.00000000000E+00 0. -1.
         21   -1    0    0  501  503 -0.00000000000E+00 -0.00000000000E+00 -0.47189107196E+02  0.47189107196E+02  0.00000000000E+00 0. -1.
          6    2    1    2  501    0 -0.70969061143E+01 -0.56337928274E+02  0.25747054579E+03  0.31509361533E+03  0.17253572451E+03 0.  0.
         24    2    3    3    0    0 -0.21462114703E+02 -0.79215779937E+02  0.69743142896E+02  0.12537428813E+03  0.64178220491E+02 0.  0.
         -6    2    1    2    0  502  0.70969061143E+01  0.56337928274E+02  0.42344726553E+03  0.46020241038E+03  0.17103901192E+03 0.  0.
        -24    2    5    5    0    0 -0.49934484847E+02  0.48466162358E+02  0.17113644251E+03  0.20136387834E+03  0.80108101192E+02 0.  0.
          5    1    3    3  501    0  0.14365208588E+02  0.22877851664E+02  0.18772740289E+03  0.18971932720E+03  0.47000000000E+01 0. -1.
        -13    1    4    4    0    0 -0.38891903011E+02 -0.23920144292E+02  0.24389988581E+02  0.51765094086E+02  0.00000000000E+00 0.  1.
         14    1    4    4    0    0  0.17429788309E+02 -0.55295635645E+02  0.45353154316E+02  0.73609194047E+02  0.00000000000E+00 0. -1.
         -5    1    5    5    0  502  0.57031390961E+02  0.78717659155E+01  0.25231082302E+03  0.25883853204E+03  0.47000000000E+01 0.  1.
         13    1    6    6    0    0 -0.51012087065E+02  0.26450833042E+02  0.16982518793E+03  0.17928322301E+03  0.00000000000E+00 0. -1.
        -14    1    6    6    0    0  0.10776022187E+01  0.22015329316E+02  0.13112545725E+01  0.22080655334E+02  0.00000000000E+00 0.  1.
</event>
<event>
12    1  0.8494789E-002  0.1883637E+03  0.7818608E-02  0.1160370E+00
         21   -1    0    0  501  502  0.00000000000E+00  0.00000000000E+00  0.16581662458E+03  0.16581662458E+03  0.00000000000E+00 0. -1.
         21   -1    0    0  502  503 -0.00000000000E+00 -0.00000000000E+00 -0.21296504405E+03  0.21296504405E+03  0.00000000000E+00 0.  1.
         -6    2    1    2    0  503  0.51050404168E+02  0.60061146496E+02 -0.99429787313E+01  0.18677875336E+03  0.16903832346E+03 0.  0.
        -24    2    3    3    0    0  0.56080380775E+02  0.10358891920E+03 -0.13336395841E+02  0.14257951196E+03  0.79217324418E+02 0.  0.
          6    2    1    2  501    0 -0.51050404168E+02 -0.60061146496E+02 -0.37205440742E+02  0.19200291528E+03  0.17107714508E+03 0.  0.
         24    2    5    5    0    0 -0.27967994444E+02 -0.17087564264E+02 -0.86729488145E+02  0.12233048400E+03  0.79803193145E+02 0.  0.
          5    1    5    5  501    0 -0.23082409723E+02 -0.42973582232E+02  0.49524047403E+02  0.69672431274E+02  0.47000000000E+01 0. -1.
        -13    1    6    6    0    0  0.23126016127E+02  0.89228852512E+00 -0.40599228143E+01  0.23496633248E+02  0.00000000000E+00 0.  1.
         14    1    6    6    0    0 -0.51094010572E+02 -0.17979852789E+02 -0.82669565331E+02  0.98833850753E+02  0.00000000000E+00 0. -1.
         -5    1    3    3    0  503 -0.50299766073E+01 -0.43527772700E+02  0.33934171094E+01  0.44199241402E+02  0.47000000000E+01 0.  1.
         11    1    4    4    0    0  0.15530949624E+02  0.36099087973E+02  0.32918029365E+02  0.51263546561E+02  0.00000000000E+00 0. -1.
        -12    1    4    4    0    0  0.40549431151E+02  0.67489831223E+02 -0.46254425206E+02  0.91315965396E+02  0.00000000000E+00 0.  1.
</event>
<event>
12    1  0.8494789E-002  0.1783130E+03  0.7818608E-02  0.1169679E+00
         21   -1    0    0  501  502  0.00000000000E+00  0.00000000000E+00  0.97353230251E+03  0.97353230251E+03  0.00000000000E+00 0. -1.
         21   -1    0    0  502  503 -0.00000000000E+00 -0.00000000000E+00 -0.62802076778E+02  0.62802076778E+02  0.00000000000E+00 0. -1.
         -6    2    1    2    0  503 -0.15042972498E+02  0.43361968072E+02  0.94726066342E+02  0.20107495530E+03  0.17132296609E+03 0.  0.
        -24    2    3    3    0    0 -0.21595805256E+02 -0.38426755314E+02  0.69818202656E+02  0.11519814491E+03  0.80330796331E+02 0.  0.
          6    2    1    2  501    0  0.15042972498E+02 -0.43361968072E+02  0.81600415939E+03  0.83525942399E+03  0.17230486331E+03 0.  0.
         24    2    5    5    0    0  0.56055196622E+02 -0.91454378856E+01  0.28923506817E+03  0.30576859410E+03  0.81312264626E+02 0.  0.
          5    1    5    5  501    0 -0.41012224124E+02 -0.34216530186E+02  0.52676909123E+03  0.52949082989E+03  0.47000000000E+01 0. -1.
        -13    1    6    6    0    0  0.21704042240E+02  0.30254738181E+02  0.18993805760E+03  0.19355330107E+03  0.00000000000E+00 0.  1.
         14    1    6    6    0    0  0.34351154382E+02 -0.39400176067E+02  0.99297010566E+02  0.11221529303E+03  0.00000000000E+00 0. -1.
         -5    1    3    3    0  503  0.65528327580E+01  0.81788723386E+02  0.24907863686E+02  0.85876810395E+02  0.47000000000E+01 0.  1.
         11    1    4    4    0    0  0.30160959781E+02 -0.17609606004E+02  0.19121256265E+02  0.39817133996E+02  0.00000000000E+00 0. -1.
        -12    1    4    4    0    0 -0.51756765037E+02 -0.20817149310E+02  0.50696946391E+02  0.75381010910E+02  0.00000000000E+00 0.  1.
</event>
<event>
12    1  0.8494789E-002  0.2286355E+03  0.7818608E-02  0.1127911E+00
         21   -1    0    0  501  502  0.00000000000E+00  0.00000000000E+00  0.31074082939E+03  0.31074082939E+03  0.00000000000E+00 0. -1.
         21   -1    0    0  502  503 -0.00000000000E+00 -0.00000000000E+00 -0.18635315771E+03  0.18635315771E+03  0.00000000000E+00 0.  1.
         -6    2    1    2    0  503 -0.10029815683E+02 -0.15018995505E+03 -0.18198502476E+02  0.22764083672E+03  0.16979854313E+03 0.  0.
        -24    2    3    3    0    0 -0.50004518340E+01 -0.15777015113E+03  0.28711697106E+02  0.17962614420E+03  0.80776017628E+02 0.  0.
          6    2    1    2  501    0  0.10029815683E+02  0.15018995505E+03  0.14258617416E+03  0.26945315037E+03  0.17209463496E+03 0.  0.
         24    2    5    5    0    0 -0.19556819809E+02  0.16855837063E+03  0.13840041839E+03  0.23406419387E+03  0.82686017761E+02 0.  0.
          5    1    5    5  501    0  0.29586635492E+02 -0.18368415577E+02  0.41857557688E+01  0.35388956496E+02  0.47000000000E+01 0. -1.
        -11    1    6    6    0    0 -0.20421360726E+02  0.14768385627E+03  0.74166384858E+02  0.16651788499E+03  0.00000000000E+00 0.  1.
         12    1    6    6    0    0  0.86454091732E+00  0.20874514355E+02  0.64234033528E+02  0.67546308884E+02  0.00000000000E+00 0. -1.
         -5    1    3    3    0  503 -0.50293638489E+01  0.75801960752E+01 -0.46910199582E+02  0.48014692523E+02  0.47000000000E+01 0.  1.
         13    1    4    4    0    0 -0.51510625341E+01 -0.38775144986E+01  0.24862960693E+02  0.25685314449E+02  0.00000000000E+00 0. -1.
        -14    1    4    4    0    0  0.15061070011E+00 -0.15389263663E+03  0.38487364127E+01  0.15394082975E+03  0.00000000000E+00 0.  1.
</event>
<event>
12    1  0.8494789E-002  0.1828687E+03  0.7818608E-02  0.1165389E+00
         21   -1    0    0  501  502  0.00000000000E+00  0.00000000000E+00  0.71083523806E+03  0.71083523806E+03  0.00000000000E+00 0.  1.
         21   -1    0    0  502  503 -0.00000000000E+00 -0.00000000000E+00 -0.48507307531E+02  0.48507307531E+02  0.00000000000E+00 0. -1.
         -6    2    1    2    0  503 -0.46642479162E+02  0.39299227782E+02  0.25633570094E+03  0.31406660847E+03  0.17090901912E+03 0.  0.
        -24    2    3    3    0    0 -0.92510180090E+02  0.73545179971E+00  0.17635783157E+03  0.21401881792E+03  0.78379176808E+02 0.  0.
          6    2    1    2  501    0  0.46642479162E+02 -0.39299227782E+02  0.40599222959E+03  0.44527593712E+03  0.17239785242E+03 0.  0.
         24    2    5    5    0    0 -0.32426865668E+02 -0.38691791244E+02  0.28592649319E+03  0.30143504818E+03  0.80997360702E+02 0.  0.
          5    1    5    5  501    0  0.79069344829E+02 -0.60743653840E+00  0.12006573640E+03  0.14384088893E+03  0.47000000000E+01 0. -1.
        -11    1    6    6    0    0  0.30600409246E+01 -0.52176564159E+02  0.21179266320E+03  0.21814648721E+03  0.00000000000E+00 0.  1.
         12    1    6    6    0    0 -0.35486906593E+02  0.13484772915E+02  0.74133829983E+02  0.83288560968E+02  0.00000000000E+00 0. -1.
         -5    1    3    3    0  503  0.45867700929E+02  0.38563775982E+02  0.79977869361E+02  0.10004779055E+03  0.47000000000E+01 0.  1.
         13    1    4    4    0    0 -0.33196177776E+02 -0.37256927165E+02  0.60439697965E+02  0.78377432536E+02  0.00000000000E+00 0. -1.
        -14    1    4    4    0    0 -0.59314002314E+02  0.37992378965E+02  0.11591813361E+03  0.13564138539E+03  0.00000000000E+00 0.  1.
</event>
<event>
12    1  0.8494789E-002  0.2091033E+03  0.7818608E-02  0.1142587E+00
         21   -1    0    0  501  502  0.00000000000E+00  0.00000000000E+00  0.85704653641E+03  0.85704653641E+03  0.00000000000E+00 0.  1.
         21   -1    0    0  502  503 -0.00000000000E+00 -0.00000000000E+00 -0.52367797600E+02  0.52367797600E+02  0.00000000000E+00 0. -1.
         -6    2    1    2    0  503  0.11545779068E+03 -0.17874675722E+02  0.48634062673E+03  0.52938777293E+03  0.17341915539E+03 0.  0.
        -24    2    3    3    0    0  0.49829906571E+02 -0.73591324457E+02  0.32745141004E+03  0.34861377784E+03  0.80052717258E+02 0.  0.
          6    2    1    2  501    0 -0.11545779068E+03  0.17874675722E+02  0.31833811208E+03  0.38002656108E+03  0.17155473781E+03 0.  0.
         24    2    5    5    0    0 -0.91894225684E+02 -0.32824163156E+02  0.12564158712E+03  0.17932864234E+03  0.82770641815E+02 0.  0.
          5    1    5    5  501    0 -0.23563564992E+02  0.50698838878E+02  0.19269652496E+03  0.20069791875E+03  0.47000000000E+01 0. -1.
        -13    1    6    6    0    0 -0.58711821410E+02  0.11445734619E+02  0.10389190601E+03  0.11988165393E+03  0.00000000000E+00 0.  1.
         14    1    6    6    0    0 -0.33182404274E+02 -0.44269897775E+02  0.21749681116E+02  0.59446988411E+02  0.00000000000E+00 0. -1.
         -5    1    3    3    0  503  0.65627884105E+02  0.55716648735E+02  0.15888921669E+03  0.18077399509E+03  0.47000000000E+01 0.  1.
         13    1    4    4    0    0  0.61204731725E+02 -0.75449810116E+02  0.21938281618E+03  0.23993230935E+03  0.00000000000E+00 0. -1.
        -14    1    4    4    0    0 -0.11374825154E+02  0.18584856584E+01  0.10806859386E+03  0.10868146849E+03  0.00000000000E+00 0.  1.
</event>
<event>
12    1  0.8494789E-002  0.2077996E+03  0.7818608E-02  0.1143342E+00
         21   -1    0    0  503  502  0.00000000000E+00  0.00000000000E+00  0.48918156139E+03  0.48918156139E+03  0.00000000000E+00 0.  1.
         21   -1    0    0  501  503 -0.00000000000E+00 -0.00000000000E+00 -0.94488996421E+02  0.94488996421E+02  0.00000000000E+00 0.  1.
          6    2    1    2  501    0  0.91347408207E+02 -0.72858920994E+02  0.27253003947E+03  0.34271460040E+03  0.17183685157E+03 0.  0.
         24    2    3    3    0    0  0.74809536017E+01 -0.88083752522E+02  0.19472972271E+03  0.22721413723E+03  0.76758629003E+02 0.  0.
         -6    2    1    2    0  502 -0.91347408207E+02  0.72858920994E+02  0.12216252549E+03  0.24095595741E+03  0.17170707446E+03 0.  0.
        -24    2    5    5    0    0 -0.11988420923E+03  0.85189378691E+02  0.71874672834E+02  0.18164872914E+03  0.78745402031E+02 0.  0.
          5    1    3    3  501    0  0.83866454606E+02  0.15224831528E+02  0.77800316762E+02  0.11550046317E+03  0.47000000000E+01 0. -1.
        -11    1    4    4    0    0 -0.10952445090E+02 -0.40853659180E+02  0.16065051596E+03  0.16612515101E+03  0.00000000000E+00 0.  1.
         12    1    4    4    0    0  0.18433398691E+02 -0.47230093343E+02  0.34079206753E+02  0.61088986220E+02  0.00000000000E+00 0. -1.
         -5    1    5    5    0  502  0.28536801019E+02 -0.12330457697E+02  0.50287852659E+02  0.59307228265E+02  0.47000000000E+01 0.  1.
         13    1    6    6    0    0 -0.91418873179E+02  0.19288913582E+02  0.28085367667E+02  0.97561572545E+02  0.00000000000E+00 0. -1.
        -14    1    6    6    0    0 -0.28465336047E+02  0.65900465109E+02  0.43789305167E+02  0.84087156599E+02  0.00000000000E+00 0.  1.
</event>
<event>
12    1  0.8494789E-002  0.2190379E+03  0.7818608E-02  0.1136579E+00
         21   -1    0    0  501  502  0.00000000000E+00  0.00000000000E+00  0.10081177371E+04  0.10081177371E+04  0.00000000000E+00 0.  1.
         21   -1    0    0  502  503 -0.00000000000E+00 -0.00000000000E+00 -0.48703907390E+02  0.48703907390E+02  0.00000000000E+00 0.  1.
         -6    2    1    2    0  503  0.12149648432E+03 -0.47115938060E+02  0.35253465180E+03  0.41504011892E+03  0.17605769587E+03 0.  0.
        -24    2    3    3    0    0  0.24656055771E+01 -0.59114456522E+02  0.15310002831E+03  0.18242762230E+03  0.79621734024E+02 0.  0.
          6    2    1    2  501    0 -0.12149648432E+03  0.47115938060E+02  0.60687917794E+03  0.64178152560E+03  0.16309470457E+03 0.  0.
         24    2    5    5    0    0 -0.31358909396E+01  0.32896818153E+02  0.31246661758E+03  0.32411462594E+03  0.79516471216E+02 0.  0.
          5    1    5    5  501    0 -0.11836059338E+03  0.14219119907E+02  0.29441256037E+03  0.31766689966E+03  0.47000000000E+01 0. -1.
        -13    1    6    6    0    0 -0.33975958441E+02  0.86624920380E+01  0.23158653831E+03  0.23422580824E+03  0.00000000000E+00 0.  1.
         14    1    6    6    0    0  0.30840067501E+02  0.24234326115E+02  0.80880079269E+02  0.89888817705E+02  0.00000000000E+00 0. -1.
         -5    1    3    3    0  503  0.11903087874E+03  0.11998518462E+02  0.19943462349E+03  0.23261249662E+03  0.47000000000E+01 0.  1.
         11    1    4    4    0    0  0.26690758220E+02 -0.48884977785E+02  0.14433564327E+03  0.15470913207E+03  0.00000000000E+00 0. -1.
        -12    1    4    4    0    0 -0.24225152643E+02 -0.10229478737E+02  0.87643850464E+01  0.27718490237E+02  0.00000000000E+00 0.  1.
</event>
<event>
12    1  0.8494789E-002  0.2338091E+03  0.7818608E-02  0.1123998E+00
         21   -1    0    0  501  502  0.00000000000E+00  0.00000000000E+00  0.89359859309E+03  0.89359859309E+03  0.00000000000E+00 0.  1.
         21   -1    0    0  502  503 -0.00000000000E+00 -0.00000000000E+00 -0.88617727528E+02  0.88617727528E+02  0.00000000000E+00 0. -1.
         -6    2    1    2    0  503 -0.14939031859E+03  0.52147522371E+02  0.12908214011E+03  0.26701999245E+03  0.17204838300E+03 0.  0.
        -24    2    3    3    0    0 -0.13289938838E+03 -0.15284540890E+02  0.52083372409E+02  0.16324169914E+03  0.77712997844E+02 0.  0.
          6    2    1    2  501    0  0.14939031859E+03 -0.52147522371E+02  0.67589872545E+03  0.71519632817E+03  0.17213328957E+03 0.  0.
         24    2    5    5    0    0  0.14278622884E+03 -0.89799007208E+02  0.61865675848E+03  0.64620371194E+03  0.79945504325E+02 0.  0.
          5    1    5    5  501    0  0.66040897574E+01  0.37651484837E+02  0.57241966968E+02  0.68992616230E+02  0.47000000000E+01 0. -1.
        -13    1    6    6    0    0  0.78934761553E+02 -0.39495271585E+02  0.45487944630E+03  0.46336366250E+03  0.00000000000E+00 0.  1.
         14    1    6    6    0    0  0.63851467284E+02 -0.50303735624E+02  0.16377731219E+03  0.18284004944E+03  0.00000000000E+00 0. -1.
         -5    1    3    3    0  503 -0.16490930210E+02  0.67432063262E+02  0.76998767701E+02  0.10377829331E+03  0.47000000000E+01 0.  1.
         11    1    4    4    0    0 -0.11223907405E+03  0.18078078723E+02  0.27597850557E+02  0.11698746954E+03  0.00000000000E+00 0. -1.
        -12    1    4    4    0    0 -0.20660314337E+02 -0.33362619613E+02  0.24485521852E+02  0.46254229605E+02  0.00000000000E+00 0.  1.
</event>
<event>
12    1  0.8494789E-002  0.1795339E+03  0.7818608E-02  0.1169578E+00
         21   -1    0    0  501  502  0.00000000000E+00  0.00000000000E+00  0.61343713617E+03  0.61343713617E+03  0.00000000000E+00 0. -1.
         21   -1    0    0  502  503 -0.00000000000E+00 -0.00000000000E+00 -0.61376380877E+02  0.61376380877E+02  0.00000000000E+00 0. -1.
         -6    2    1    2    0  503  0.39417826246E+02  0.30698557544E+01  0.13374295094E+03  0.21959683901E+03  0.16962430762E+03 0.  0.
        -24    2    3    3    0    0  0.82759533582E+02  0.32512569778E+02  0.81782945994E+02  0.14565558450E+03  0.81368860441E+02 0.  0.
          6    2    1    2  501    0 -0.39417826246E+02 -0.30698557544E+01  0.41831780436E+03  0.45521667804E+03  0.17512638146E+03 0.  0.
         24    2    5    5    0    0 -0.72674191898E+02 -0.47788717111E+02  0.23070203335E+03  0.25944249704E+03  0.80756928031E+02 0.  0.
          5    1    5    5  501    0  0.33256365652E+02  0.44718861357E+02  0.18761577101E+03  0.19577418101E+03  0.47000000000E+01 0. -1.
        -13    1    6    6    0    0 -0.82072242632E+02 -0.15673756471E+02  0.14368470104E+03  0.16621315521E+03  0.00000000000E+00 0.  1.
         14    1    6    6    0    0  0.93980507341E+01 -0.32114960640E+02  0.87017332310E+02  0.93229341824E+02  0.00000000000E+00 0. -1.
         -5    1    3    3    0  503 -0.43341707336E+02 -0.29442714024E+02  0.51960004943E+02  0.73941254504E+02  0.47000000000E+01 0.  1.
         13    1    4    4    0    0  0.50796785449E+02  0.49719908125E+02  0.83073384548E+02  0.10933238265E+03  0.00000000000E+00 0. -1.
        -14    1    4    4    0    0  0.31962748133E+02 -0.17207338347E+02 -0.12904385539E+01  0.36323201853E+02  0.00000000000E+00 0.  1.
</event>
<event>
12    1  0.8494789E-002  0.1743876E+03  0.7818608E-02  0.1173568E+00
         21   -1    0    0  501  502  0.00000000000E+00  0.00000000000E+00  0.15494339736E+02  0.15494339736E+02  0.00000000000E+00 0.  1.
         21   -1    0    0  502  503 -0.00000000000E+00 -0.00000000000E+00 -0.22043903619E+04  0.22043903619E+04  0.00000000000E+00 0.  1.
         -6    2    1    2    0  503  0.27243746389E+02  0.70134771391E+01 -0.14668864595E+04  0.14771136357E+04  0.17122323784E+03 0.  0.
        -24    2    3    3    0    0  0.45218584511E+02 -0.18229144735E+02 -0.14018851592E+04  0.14049503223E+04  0.78907454671E+02 0.  0.
          6    2    1    2  501    0 -0.27243746389E+02 -0.70134771391E+01 -0.72200956271E+03  0.74277106596E+03  0.17210356537E+03 0.  0.
         24    2    5    5    0    0  0.46575546054E+02 -0.30575567762E+02 -0.43883304299E+03  0.44914632013E+03  0.77806364939E+02 0.  0.
          5    1    5    5  501    0 -0.73819292442E+02  0.23562090623E+02 -0.28317651971E+03  0.29362474584E+03  0.47000000000E+01 0. -1.
        -13    1    6    6    0    0 -0.13204495176E+02 -0.33331841461E+02 -0.16310977587E+03  0.16700350096E+03  0.00000000000E+00 0.  1.
         14    1    6    6    0    0  0.59780041230E+02  0.27562736988E+01 -0.27572326712E+03  0.28214281917E+03  0.00000000000E+00 0. -1.
         -5    1    3    3    0  503 -0.17974838122E+02  0.25242621874E+02 -0.65001300298E+02  0.72163313429E+02  0.47000000000E+01 0.  1.
         11    1    4    4    0    0 -0.13976283521E+02 -0.18243413228E+02 -0.75841979666E+03  0.75876791352E+03  0.00000000000E+00 0. -1.
        -12    1    4    4    0    0  0.59194868031E+02  0.14268492911E-01 -0.64346536254E+03  0.64618240877E+03  0.00000000000E+00 0.  1.
</event>
<event>
12    1  0.8494789E-002  0.3371313E+03  0.7818608E-02  0.1068224E+00
         21   -1    0    0  503  502  0.00000000000E+00  0.00000000000E+00  0.58808855855E+03  0.58808855855E+03  0.00000000000E+00 0.  1.
         21   -1    0    0  501  503 -0.00000000000E+00 -0.00000000000E+00 -0.19224568461E+03  0.19224568461E+03  0.00000000000E+00 0.  1.
          6    2    1    2  501    0 -0.22767817504E+03  0.17917463207E+03  0.20281315833E+03  0.39185262800E+03  0.16874360643E+03 0.  0.
         24    2    3    3    0    0 -0.18584696165E+03  0.62386793937E+02  0.13514210209E+03  0.25046411573E+03  0.77702511530E+02 0.  0.
         -6    2    1    2    0  502  0.22767817504E+03 -0.17917463207E+03  0.19302971561E+03  0.38848161516E+03  0.17238501688E+03 0.  0.
        -24    2    5    5    0    0  0.42497961455E+02 -0.10082456744E+03  0.74683808201E+02  0.15511861910E+03  0.80699719064E+02 0.  0.
          5    1    3    3  501    0 -0.41831213390E+02  0.11678783814E+03  0.67671056241E+02  0.14138851227E+03  0.47000000000E+01 0. -1.
        -13    1    4    4    0    0 -0.85403449649E+02  0.52134162316E+02  0.29462681628E+02  0.10430613453E+03  0.00000000000E+00 0.  1.
         14    1    4    4    0    0 -0.10044351200E+03  0.10252631621E+02  0.10567942046E+03  0.14615798120E+03  0.00000000000E+00 0. -1.
         -5    1    5    5    0  502  0.18518021359E+03 -0.78350064635E+02  0.11834590741E+03  0.23336299606E+03  0.47000000000E+01 0.  1.
         11    1    6    6    0    0 -0.48398071901E+01 -0.45286373125E+01  0.42614107364E+02  0.43126493435E+02  0.00000000000E+00 0. -1.
        -12    1    6    6    0    0  0.47337768645E+02 -0.96295930126E+02  0.32069700837E+02  0.11199212566E+03  0.00000000000E+00 0.  1.
</event>
<event>
12    1  0.8494789E-002  0.1738272E+03  0.7818608E-02  0.1174098E+00
         21   -1    0    0  501  502  0.00000000000E+00  0.00000000000E+00  0.80951811496E+02  0.80951811496E+02  0.00000000000E+00 0.  1.
         21   -1    0    0  502  503 -0.00000000000E+00 -0.00000000000E+00 -0.92048981602E+03  0.92048981602E+03  0.00000000000E+00 0.  1.
         -6    2    1    2    0  503 -0.33601895055E+01  0.21891836501E+02 -0.80603735028E+03  0.82441564352E+03  0.17168109932E+03 0.  0.
        -24    2    3    3    0    0 -0.23608688326E+02 -0.45964953304E+02 -0.56298439561E+03  0.57121340341E+03  0.81628275951E+02 0.  0.
          6    2    1    2  501    0  0.33601895055E+01 -0.21891836501E+02 -0.33500654251E+02  0.17702598400E+03  0.17241044573E+03 0.  0.
         24    2    5    5    0    0 -0.48438184392E+02  0.21196040858E+02  0.11227704061E+02  0.96017634113E+02  0.79358647083E+02 0.  0.
          5    1    5    5  501    0  0.51798373898E+02 -0.43087877359E+02 -0.44728358312E+02  0.81008349885E+02  0.47000000000E+01 0. -1.
        -11    1    6    6    0    0  0.15321103323E+02  0.15867186226E+02  0.21980080997E+02  0.31138846582E+02  0.00000000000E+00 0.  1.
         12    1    6    6    0    0 -0.63759287716E+02  0.53288546316E+01 -0.10752376937E+02  0.64878787531E+02  0.00000000000E+00 0. -1.
         -5    1    3    3    0  503  0.20248498820E+02  0.67856789805E+02 -0.24305295466E+03  0.25320224011E+03  0.47000000000E+01 0.  1.
         11    1    4    4    0    0  0.14361604983E+02  0.16576569078E+02 -0.91890030184E+02  0.94471244235E+02  0.00000000000E+00 0. -1.
        -12    1    4    4    0    0 -0.37970293309E+02 -0.62541522382E+02 -0.47109436543E+03  0.47674215917E+03  0.00000000000E+00 0.  1.
</event>
<event>
12    1  0.8494789E-002  0.1964106E+03  0.7818608E-02  0.1153559E+00
         21   -1    0    0  501  502  0.00000000000E+00  0.00000000000E+00  0.44833004884E+03  0.44833004884E+03  0.00000000000E+00 0. -1.
         21   -1    0    0  502  503 -0.00000000000E+00 -0.00000000000E+00 -0.84946649892E+02  0.84946649892E+02  0.00000000000E+00 0. -1.
         -6    2    1    2    0  503 -0.78283981828E+02  0.38526064234E+02  0.20187264500E+03  0.28165529888E+03  0.17596733546E+03 0.  0.
        -24    2    3    3    0    0 -0.72906800249E+01  0.61671518880E+02  0.17240190274E+03  0.20124152132E+03  0.83181750274E+02 0.  0.
          6    2    1    2  501    0  0.78283981828E+02 -0.38526064234E+02  0.16151075395E+03  0.25162139986E+03  0.17208999329E+03 0.  0.
         24    2    5    5    0    0  0.67567735752E+02  0.27407187093E+02  0.14751473896E+03  0.18321080129E+03  0.80554619248E+02 0.  0.
          5    1    5    5  501    0  0.10716246075E+02 -0.65933251327E+02  0.13996014997E+02  0.68410598567E+02  0.47000000000E+01 0. -1.
        -11    1    6    6    0    0  0.60503426318E+02  0.31170193874E+02  0.47785027642E+02  0.83160413955E+02  0.00000000000E+00 0.  1.
         12    1    6    6    0    0  0.70643094344E+01 -0.37630067807E+01  0.99729711313E+02  0.10005038734E+03  0.00000000000E+00 0. -1.
         -5    1    3    3    0  503 -0.70993301803E+02 -0.23145454646E+02  0.29470742262E+02  0.80413777558E+02  0.47000000000E+01 0.  1.
         13    1    4    4    0    0 -0.27628377566E+02  0.64813500875E+02  0.16492858870E+03  0.17934758575E+03  0.00000000000E+00 0. -1.
        -14    1    4    4    0    0  0.20337697541E+02 -0.31419819945E+01  0.74733140383E+01  0.21893935572E+02  0.00000000000E+00 0.  1.
</event>
<event>
12    1  0.8494789E-002  0.1749775E+03  0.7818608E-02  0.1172824E+00
         21   -1    0    0  503  502  0.00000000000E+00  0.00000000000E+00  0.13693703168E+03  0.13693703168E+03  0.00000000000E+00 0. -1.
         21   -1    0    0  501  503 -0.00000000000E+00 -0.00000000000E+00 -0.70035481928E+03  0.70035481928E+03  0.00000000000E+00 0. -1.
          6    2    1    2  501    0  0.22963930082E+02 -0.21927531399E+02 -0.62732324062E+03  0.65126921094E+03  0.17207259563E+03 0.  0.
         24    2    3    3    0    0 -0.10783218075E+02 -0.49213941807E+02 -0.19484059493E+03  0.21658915960E+03  0.80060706742E+02 0.  0.
         -6    2    1    2    0  502 -0.22963930082E+02  0.21927531399E+02  0.63905453027E+02  0.18602264003E+03  0.17179160910E+03 0.  0.
        -24    2    5    5    0    0  0.54109729079E+01 -0.51586324072E+02  0.24398024831E+02  0.97748357541E+02  0.79177334682E+02 0.  0.
          5    1    3    3  501    0  0.33747148157E+02  0.27286410408E+02 -0.43248264569E+03  0.43468005133E+03  0.47000000000E+01 0. -1.
        -11    1    4    4    0    0  0.17875857339E+02  0.15583521407E+02 -0.46655277361E+02  0.52336481738E+02  0.00000000000E+00 0.  1.
         12    1    4    4    0    0 -0.28659075414E+02 -0.64797463214E+02 -0.14818531757E+03  0.16425267787E+03  0.00000000000E+00 0. -1.
         -5    1    5    5    0  502 -0.28374902990E+02  0.73513855471E+02  0.39507428197E+02  0.88274282487E+02  0.47000000000E+01 0.  1.
         13    1    6    6    0    0 -0.15824887564E+02 -0.58007896313E+02 -0.56555264620E+01  0.60393112858E+02  0.00000000000E+00 0. -1.
        -14    1    6    6    0    0  0.21235860472E+02  0.64215722413E+01  0.30053551293E+02  0.37355244683E+02  0.00000000000E+00 0.  1.
</event>
<event>
12    1  0.8494789E-002  0.2900563E+03  0.7818608E-02  0.1090334E+00
         21   -1    0    0  503  502  0.00000000000E+00  0.00000000000E+00  0.19130324337E+03  0.19130324337E+03  0.00000000000E+00 0. -1.
         21   -1    0    0  501  503 -0.00000000000E+00 -0.00000000000E+00 -0.43992488189E+03  0.43992488189E+03  0.00000000000E+00 0.  1.
          6    2    1    2  501    0  0.22375461474E+03 -0.66434642055E+02 -0.13254475584E+03  0.31880774719E+03  0.17201912127E+03 0.  0.
         24    2    3    3    0    0  0.17667043409E+03 -0.10281253911E+03 -0.13739601194E+03  0.25892539463E+03  0.79886390636E+02 0.  0.
         -6    2    1    2    0  502 -0.22375461474E+03  0.66434642055E+02 -0.11607688269E+03  0.31242037808E+03  0.17220035035E+03 0.  0.
        -24    2    5    5    0    0 -0.22104301103E+03  0.27799731184E+02 -0.59380337124E+02  0.24359743560E+03  0.78618371982E+02 0.  0.
          5    1    3    3  501    0  0.47084180654E+02  0.36377897056E+02  0.48512561024E+01  0.59882352558E+02  0.47000000000E+01 0. -1.
        -11    1    4    4    0    0  0.16555510781E+03 -0.10616620055E+03 -0.10174450340E+03  0.22143102726E+03  0.00000000000E+00 0.  1.
         12    1    4    4    0    0  0.11115326282E+02  0.33536614428E+01 -0.35651508543E+02  0.37494367374E+02  0.00000000000E+00 0. -1.
         -5    1    5    5    0  502 -0.27116037091E+01  0.38634910870E+02 -0.56696545562E+02  0.68822942478E+02  0.47000000000E+01 0.  1.
         13    1    6    6    0    0 -0.18556976532E+03  0.13337137328E+02 -0.77097928641E+02  0.20139043581E+03  0.00000000000E+00 0. -1.
        -14    1    6    6    0    0 -0.35473245709E+02  0.14462593856E+02  0.17717591516E+02  0.42206999791E+02  0.00000000000E+00 0.  1.
</event>
<event>
12    1  0.8494789E-002  0.4385647E+03  0.7818608E-02  0.1031278E+00
         21   -1    0    0  501  502  0.00000000000E+00  0.00000000000E+00  0.19184293576E+04  0.19184293576E+04  0.00000000000E+00 0.  1.
         21   -1    0    0  502  503 -0.00000000000E+00 -0.00000000000E+00 -0.21976054193E+03  0.21976054193E+03  0.00000000000E+00 0.  1.
         -6    2    1    2    0  503  0.28665836678E+03  0.28380056347E+03  0.60601381228E+02  0.44273190604E+03  0.17211401497E+03 0.  0.
        -24    2    3    3    0    0  0.25777365008E+03  0.18704448225E+03  0.85365038421E+02  0.33865791876E+03  0.77259971132E+02 0.  0.
          6    2    1    2  501    0 -0.28665836678E+03 -0.28380056347E+03  0.16380674344E+04  0.16954579935E+04  0.16910679714E+03 0.  0.
         24    2    5    5    0    0 -0.25635002786E+03 -0.29984243443E+03  0.15244653592E+04  0.15767000105E+04  0.79796424329E+02 0.  0.
          5    1    5    5  501    0 -0.30308338919E+02  0.16041870966E+02  0.11360207523E+03  0.11875798301E+03  0.47000000000E+01 0. -1.
        -13    1    6    6    0    0 -0.12290281521E+03 -0.85277400242E+02  0.54255487352E+03  0.56279936723E+03  0.00000000000E+00 0.  1.
         14    1    6    6    0    0 -0.13344721266E+03 -0.21456503419E+03  0.98191048569E+03  0.10139006432E+04  0.00000000000E+00 0. -1.
         -5    1    3    3    0  503  0.28884716705E+02  0.96756081211E+02 -0.24763657193E+02  0.10407398728E+03  0.47000000000E+01 0.  1.
         13    1    4    4    0    0  0.68860674891E+02  0.18126083323E+02  0.38476694416E+02  0.80937033898E+02  0.00000000000E+00 0. -1.
        -14    1    4    4    0    0  0.18891297519E+03  0.16891839893E+03  0.46888344005E+02  0.25772088486E+03  0.00000000000E+00 0.  1.
</event>
<event>
12    1  0.8494789E-002  0.1970698E+03  0.7818608E-02  0.1152706E+00
         21   -1    0    0  503  502  0.00000000000E+00  0.00000000000E+00  0.49362234540E+03  0.49362234540E+03  0.00000000000E+00 0.  1.
         21   -1    0    0  501  503 -0.00000000000E+00 -0.00000000000E+00 -0.80913083897E+02  0.80913083897E+02  0.00000000000E+00 0. -1.
          6    2    1    2  501    0  0.71053186791E+02  0.58088549458E+02  0.15120221682E+03  0.24839202436E+03  0.17439510448E+03 0.  0.
         24    2    3    3    0    0  0.29541692834E+02  0.38997419520E+02  0.17362020897E+03  0.19728104957E+03  0.79889456182E+02 0.  0.
         -6    2    1    2    0  502 -0.71053186791E+02 -0.58088549458E+02  0.26150704469E+03  0.32614340494E+03  0.17193240309E+03 0.  0.
        -24    2    5    5    0    0 -0.79390207781E+02 -0.10079014095E+03  0.21415221861E+03  0.26166471553E+03  0.78395108343E+02 0.  0.
          5    1    3    3  501    0  0.41511493956E+02  0.19091129937E+02 -0.22417992152E+02  0.51110974799E+02  0.47000000000E+01 0. -1.
        -13    1    4    4    0    0  0.22932421560E+02 -0.13661900786E+02  0.11562909842E+03  0.11867026541E+03  0.00000000000E+00 0.  1.
         14    1    4    4    0    0  0.66092712741E+01  0.52659320306E+02  0.57991110552E+02  0.78610784152E+02  0.00000000000E+00 0. -1.
         -5    1    5    5    0  502  0.83370209907E+01  0.42701591495E+02  0.47354826078E+02  0.64478689411E+02  0.47000000000E+01 0.  1.
         13    1    6    6    0    0  0.42629651989E+01 -0.14166769452E+02 -0.12910464735E+01  0.14850489217E+02  0.00000000000E+00 0. -1.
        -14    1    6    6    0    0 -0.83653172980E+02 -0.86623371501E+02  0.21544326508E+03  0.24681422631E+03  0.00000000000E+00 0.  1.
</event>
<event>
12    1  0.8494789E-002  0.2329752E+03  0.7818608E-02  0.1124596E+00
         21   -1    0    0  501  502  0.00000000000E+00  0.00000000000E+00  0.44203170162E+03  0.44203170162E+03  0.00000000000E+00 0.  1.
         21   -1    0    0  502  503 -0.00000000000E+00 -0.00000000000E+00 -0.22893360208E+03  0.22893360208E+03  0.00000000000E+00 0. -1.
         -6    2    1    2    0  503 -0.14929510688E+03  0.42188789185E+02 -0.12196877667E+03  0.26297113180E+03  0.17380595733E+03 0.  0.
        -24    2    3    3    0    0 -0.12606488611E+03 -0.39188131175E+01 -0.14259637270E+03  0.20717559555E+03  0.81733036643E+02 0.  0.
          6    2    1    2  501    0  0.14929510688E+03 -0.42188789185E+02  0.33506687622E+03  0.40799417191E+03  0.17355261423E+03 0.  0.
         24    2    5    5    0    0  0.99164702318E+02 -0.92871582610E+02  0.26187981563E+03  0.30571886283E+03  0.80151208422E+02 0.  0.
          5    1    5    5  501    0  0.50130404562E+02  0.50682793425E+02  0.73187060587E+02  0.10227530908E+03  0.47000000000E+01 0. -1.
        -11    1    6    6    0    0  0.69083327701E+02 -0.29734048532E+02  0.19478799850E+03  0.20880369769E+03  0.00000000000E+00 0.  1.
         12    1    6    6    0    0  0.30081374617E+02 -0.63137534077E+02  0.67091817130E+02  0.96915165140E+02  0.00000000000E+00 0. -1.
         -5    1    3    3    0  503 -0.23230220769E+02  0.46107602302E+02  0.20627596026E+02  0.55795536245E+02  0.47000000000E+01 0.  1.
         13    1    4    4    0    0 -0.43169740083E+02  0.18989640583E+02 -0.10136719234E+03  0.11180134431E+03  0.00000000000E+00 0. -1.
        -14    1    4    4    0    0 -0.82895146028E+02 -0.22908453701E+02 -0.41229180366E+02  0.95374251240E+02  0.00000000000E+00 0.  1.
</event>
<event>
12    1  0.8494789E-002  0.2013536E+03  0.7818608E-02  0.1148864E+00
         21   -1    0    0  503  502  0.00000000000E+00  0.00000000000E+00  0.60132268156E+02  0.60132268156E+02  0.00000000000E+00 0. -1.
         21   -1    0    0  501  503 -0.00000000000E+00 -0.00000000000E+00 -0.91137569920E+03  0.91137569920E+03  0.00000000000E+00 0. -1.
          6    2    1    2  501    0 -0.87875039838E+02 -0.58214568893E+02 -0.67654455005E+03  0.70587235732E+03  0.17155843892E+03 0.  0.
         24    2    3    3    0    0 -0.20972638156E+02 -0.11914283494E+02 -0.54997403955E+03  0.55533388414E+03  0.73092249868E+02 0.  0.
         -6    2    1    2    0  502  0.87875039838E+02  0.58214568893E+02 -0.17469888099E+03  0.26563561004E+03  0.17009297352E+03 0.  0.
        -24    2    5    5    0    0  0.11403167213E+02 -0.21637592265E+02 -0.54173136970E+02  0.10201146782E+03  0.82905929678E+02 0.  0.
          5    1    3    3  501    0 -0.66902401682E+02 -0.46300285399E+02 -0.12657051050E+03  0.15053847318E+03  0.47000000000E+01 0. -1.
        -11    1    4    4    0    0 -0.88132357212E+01  0.29726322236E+02 -0.16184114987E+03  0.16478435954E+03  0.00000000000E+00 0.  1.
         12    1    4    4    0    0 -0.12159402435E+02 -0.41640605730E+02 -0.38813288968E+03  0.39054952460E+03  0.00000000000E+00 0. -1.
         -5    1    5    5    0  502  0.76471872625E+02  0.79852161158E+02 -0.12052574402E+03  0.16362414222E+03  0.47000000000E+01 0.  1.
         13    1    6    6    0    0 -0.22431161566E+02  0.17866732202E+02 -0.26496142939E+01  0.28799263613E+02  0.00000000000E+00 0. -1.
        -14    1    6    6    0    0  0.33834328779E+02 -0.39504324468E+02 -0.51523522676E+02  0.73212204204E+02  0.00000000000E+00 0.  1.
</event>
<event>
12    1  0.8494789E-002  0.1781309E+03  0.7818608E-02  0.1169715E+00
         21   -1    0    0  503  502  0.00000000000E+00  0.00000000000E+00  0.76506073313E+03  0.76506073313E+03  0.00000000000E+00 0. -1.
         21   -1    0    0  501  503 -0.00000000000E+00 -0.00000000000E+00 -0.81647838755E+02  0.81647838755E+02  0.00000000000E+00 0.  1.
          6    2    1    2  501    0 -0.47101779069E+02  0.42717345678E+01  0.44246308835E+02  0.18318422606E+03  0.17135314274E+03 0.  0.
         24    2    3    3    0    0 -0.82958999760E+02 -0.37952507068E+02  0.20091144382E+02  0.12256913861E+03  0.79353331518E+02 0.  0.
         -6    2    1    2    0  502  0.47101779069E+02 -0.42717345678E+01  0.63916658554E+03  0.66352434582E+03  0.17173761416E+03 0.  0.
        -24    2    5    5    0    0 -0.17168575849E+01  0.13431497736E+02  0.13724656860E+03  0.15890324329E+03  0.78932042940E+02 0.  0.
          5    1    3    3  501    0  0.35857220691E+02  0.42224241636E+02  0.24155164453E+02  0.60615087455E+02  0.47000000000E+01 0. -1.
        -11    1    4    4    0    0 -0.97161090961E+02 -0.26427309264E+02  0.88007435640E+01  0.10107488985E+03  0.00000000000E+00 0.  1.
         12    1    4    4    0    0  0.14202091202E+02 -0.11525197804E+02  0.11290400818E+02  0.21494248755E+02  0.00000000000E+00 0. -1.
         -5    1    5    5    0  502  0.48818636654E+02 -0.17703232304E+02  0.50192001694E+03  0.50462110254E+03  0.47000000000E+01 0.  1.
         13    1    6    6    0    0 -0.58236399309E+01  0.36844708823E+02  0.12812157565E+03  0.13344131856E+03  0.00000000000E+00 0. -1.
        -14    1    6    6    0    0  0.41067823460E+01 -0.23413211087E+02  0.91249929488E+01  0.25461924730E+02  0.00000000000E+00 0.  1.
</event>
<event>
12    1  0.8494789E-002  0.1988305E+03  0.7818608E-02  0.1151030E+00
         21   -1    0    0  501  502  0.00000000000E+00  0.00000000000E+00  0.59113165732E+03  0.59113165732E+03  0.00000000000E+00 0. -1.
         21   -1    0    0  502  503 -0.00000000000E+00 -0.00000000000E+00 -0.83965995414E+02  0.83965995414E+02  0.00000000000E+00 0. -1.
         -6    2    1    2    0  503 -0.97567342322E+02 -0.15218779256E+02  0.98503356864E+02  0.22063265486E+03  0.17095279918E+03 0.  0.
        -24    2    3    3    0    0 -0.11430965739E+03 -0.36107113187E+02  0.30686488943E+02  0.14757209653E+03  0.80407970227E+02 0.  0.
          6    2    1    2  501    0  0.97567342322E+02  0.15218779256E+02  0.40866230504E+03  0.45446499787E+03  0.17257623590E+03 0.  0.
         24    2    5    5    0    0  0.29793405174E+02 -0.37405727473E+02  0.13608702264E+03  0.16866433335E+03  0.87413638371E+02 0.  0.
          5    1    5    5  501    0  0.67773937148E+02  0.52624506730E+02  0.27257528240E+03  0.28580066453E+03  0.47000000000E+01 0. -1.
        -13    1    6    6    0    0 -0.23582833013E+02 -0.39602395268E+02  0.67265172310E+02  0.81542032901E+02  0.00000000000E+00 0.  1.
         14    1    6    6    0    0  0.53376238187E+02  0.21966677942E+01  0.68821850327E+02  0.87122300444E+02  0.00000000000E+00 0. -1.
         -5    1    3    3    0  503  0.16742315071E+02  0.20888333930E+02  0.67816867921E+02  0.73060558326E+02  0.47000000000E+01 0.  1.
         11    1    4    4    0    0 -0.31755683034E+02  0.25894564068E+02  0.59372514355E+01  0.41402932358E+02  0.00000000000E+00 0. -1.
        -12    1    4    4    0    0 -0.82553974358E+02 -0.62001677255E+02  0.24749237507E+02  0.10616916418E+03  0.00000000000E+00 0.  1.
</event>
<event>
12    1  0.8494789E-002  0.2044798E+03  0.7818608E-02  0.1146655E+00
         21   -1    0    0  501  502  0.00000000000E+00  0.00000000000E+00  0.16429210640E+03  0.16429210640E+03  0.00000000000E+00 0.  1.
         21   -1    0    0  502  503 -0.00000000000E+00 -0.00000000000E+00 -0.42257690181E+03  0.42257690181E+03  0.00000000000E+00 0. -1.
         -6    2    1    2    0  503 -0.34280509326E+02  0.11058407803E+03 -0.31689213138E+03  0.37713741217E+03  0.16854676827E+03 0.  0.
        -24    2    3    3    0    0  0.12452254096E+02  0.12683252175E+03 -0.27198353023E+03  0.31015356667E+03  0.77321711024E+02 0.  0.
          6    2    1    2  501    0  0.34280509326E+02 -0.11058407803E+03  0.58607335977E+02  0.20973159604E+03  0.16476811256E+03 0.  0.
         24    2    5    5    0    0 -0.39094418251E+02 -0.58288537226E+02  0.93799825333E+01  0.10694966227E+03  0.80151850109E+02 0.  0.
          5    1    5    5  501    0  0.73374927577E+02 -0.52295540800E+02  0.49227353444E+02  0.10278193378E+03  0.47000000000E+01 0. -1.
        -13    1    6    6    0    0 -0.30424473617E+02 -0.72376016866E+02  0.26769693549E+02  0.82949098277E+02  0.00000000000E+00 0.  1.
         14    1    6    6    0    0 -0.86699446334E+01  0.14087479640E+02 -0.17389711015E+02  0.24000563988E+02  0.00000000000E+00 0. -1.
         -5    1    3    3    0  503 -0.46732763422E+02 -0.16248443723E+02 -0.44908601152E+02  0.66983845499E+02  0.47000000000E+01 0.  1.
         11    1    4    4    0    0  0.72141977504E+01  0.11646515337E+03 -0.27449664919E+03  0.29826931960E+03  0.00000000000E+00 0. -1.
        -12    1    4    4    0    0  0.52380563460E+01  0.10367368382E+02  0.25131189612E+01  0.11884247068E+02  0.00000000000E+00 0.  1.
</event>
<event>
12    1  0.8494789E-002  0.2122150E+03  0.7818608E-02  0.1139927E+00
         21   -1    0    0  501  502  0.00000000000E+00  0.00000000000E+00  0.46835552567E+02  0.46835552567E+02  0.00000000000E+00 0.  1.
         21   -1    0    0  502  503 -0.00000000000E+00 -0.00000000000E+00 -0.10807303780E+04  0.10807303780E+04  0.00000000000E+00 0. -1.
         -6    2    1    2    0  503  0.11593472508E+03  0.43424480510E+02 -0.70545952551E+03  0.73653529011E+03  0.17171064457E+03 0.  0.
        -24    2    3    3    0    0 -0.10385769584E+02  0.31376912666E+02 -0.26971191544E+03  0.28266297222E+03  0.77855402361E+02 0.  0.
          6    2    1    2  501    0 -0.11593472508E+03 -0.43424480510E+02 -0.32843529988E+03  0.39103064042E+03  0.17236203048E+03 0.  0.
         24    2    5    5    0    0 -0.98717322103E+02 -0.41048923541E+02 -0.34286591351E+03  0.36795652406E+03  0.80030276433E+02 0.  0.
          5    1    5    5  501    0 -0.17217402973E+02 -0.23755569692E+01  0.14430613626E+02  0.23074116357E+02  0.47000000000E+01 0. -1.
        -13    1    6    6    0    0 -0.19027931948E+01 -0.11062706880E+02 -0.87028347280E+00  0.11258840916E+02  0.00000000000E+00 0.  1.
         14    1    6    6    0    0 -0.96814528908E+02 -0.29986216661E+02 -0.34199563003E+03  0.35669768314E+03  0.00000000000E+00 0. -1.
         -5    1    3    3    0  503  0.12632049466E+03  0.12047567844E+02 -0.43574761008E+03  0.45387231789E+03  0.47000000000E+01 0.  1.
         11    1    4    4    0    0  0.32579531461E+02  0.29275282126E+01 -0.11729684398E+03  0.12177251701E+03  0.00000000000E+00 0. -1.
        -12    1    4    4    0    0 -0.42965301046E+02  0.28449384454E+02 -0.15241507146E+03  0.16089045521E+03  0.00000000000E+00 0.  1.
</event>
<event>
12    1  0.8494789E-002  0.1767264E+03  0.7818608E-02  0.1171135E+00
         21   -1    0    0  501  502  0.00000000000E+00  0.00000000000E+00  0.75315468854E+03  0.75315468854E+03  0.00000000000E+00 0. -1.
         21   -1    0    0  502  503 -0.00000000000E+00 -0.00000000000E+00 -0.97956360349E+02  0.97956360349E+02  0.00000000000E+00 0. -1.
         -6    2    1    2    0  503 -0.25893557723E+02  0.28658760043E+02  0.38999167401E+01  0.17626155179E+03  0.17193348839E+03 0.  0.
        -24    2    3    3    0    0 -0.57330339130E+02  0.61706079155E+02 -0.28228237503E+02  0.12027311708E+03  0.81082558608E+02 0.  0.
          6    2    1    2  501    0  0.25893557723E+02 -0.28658760043E+02  0.65129841145E+03  0.67484949711E+03  0.17245411600E+03 0.  0.
         24    2    5    5    0    0 -0.11080251400E+01 -0.95235754773E+00  0.13607375381E+03  0.15815300200E+03  0.80586418579E+02 0.  0.
          5    1    5    5  501    0  0.27001582863E+02 -0.27706402495E+02  0.51522465764E+03  0.51669649511E+03  0.47000000000E+01 0. -1.
        -13    1    6    6    0    0  0.89992792862E+01  0.38470517460E+02  0.59243046468E+02  0.71208891974E+02  0.00000000000E+00 0.  1.
         14    1    6    6    0    0 -0.10107304426E+02 -0.39422875008E+02  0.76830707343E+02  0.86944110022E+02  0.00000000000E+00 0. -1.
         -5    1    3    3    0  503  0.31436781407E+02 -0.33047319112E+02  0.32128154243E+02  0.55988434705E+02  0.47000000000E+01 0.  1.
         13    1    4    4    0    0  0.19963387725E+02  0.55511186520E+01 -0.10012533437E+02  0.23013096132E+02  0.00000000000E+00 0. -1.
        -14    1    4    4    0    0 -0.77293726855E+02  0.56154960503E+02 -0.18215704066E+02  0.97260020948E+02  0.00000000000E+00 0.  1.
</event>
<event>
12    1  0.8494789E-002  0.1826891E+03  0.7818608E-02  0.1165269E+00
         21   -1    0    0  503  502  0.00000000000E+00  0.00000000000E+00  0.83522056926E+03  0.83522056926E+03  0.00000000000E+00 0.  1.
         21   -1    0    0  501  503 -0.00000000000E+00 -0.00000000000E+00 -0.10448547739E+03  0.10448547739E+03  0.00000000000E+00 0.  1.
          6    2    1    2  501    0 -0.46512050508E+02  0.39785934384E+02 -0.40491243948E+01  0.18255139536E+03  0.17193698009E+03 0.  0.
         24    2    3    3    0    0 -0.32269397252E+01 -0.39923465217E+02  0.79455178152E+01  0.90937255396E+02  0.81253658075E+02 0.  0.
         -6    2    1    2    0  502  0.46512050508E+02 -0.39785934384E+02  0.73478421626E+03  0.75715465129E+03  0.17213085165E+03 0.  0.
        -24    2    5    5    0    0  0.20524232606E+02 -0.74473597706E+02  0.32862047709E+03  0.34865780469E+03  0.87196822930E+02 0.  0.
          5    1    3    3  501    0 -0.43285110783E+02  0.79709399601E+02 -0.11994642210E+02  0.91614139968E+02  0.47000000000E+01 0. -1.
        -11    1    4    4    0    0 -0.24330644337E+02 -0.19666044712E+02 -0.29784449533E+02  0.43195451178E+02  0.00000000000E+00 0.  1.
         12    1    4    4    0    0  0.21103704612E+02 -0.20257420506E+02  0.37729967348E+02  0.47741804218E+02  0.00000000000E+00 0. -1.
         -5    1    5    5    0  502  0.25987817903E+02  0.34687663323E+02  0.40616373917E+03  0.40849684660E+03  0.47000000000E+01 0.  1.
         11    1    6    6    0    0 -0.27049280342E+02  0.10022833439E+01  0.67996058550E+02  0.73185600478E+02  0.00000000000E+00 0. -1.
        -12    1    6    6    0    0  0.47573512947E+02 -0.75475881050E+02  0.26062441854E+03  0.27547220421E+03  0.00000000000E+00 0.  1.
</event>
<event>
12    1  0.8494789E-002  0.2254270E+03  0.7818608E-02  0.1130260E+00
         21   -1    0    0  501  502  0.00000000000E+00  0.00000000000E+00  0.20437464789E+04  0.20437464789E+04  0.00000000000E+00 0. -1.
         21   -1    0    0  502  503 -0.00000000000E+00 -0.00000000000E+00 -0.25402531000E+02  0.25402531000E+02  0.00000000000E+00 0.  1.
         -6    2    1    2    0  503  0.14444056185E+03 -0.13502379745E+02  0.11832905813E+04  0.12042030853E+04  0.16995023007E+03 0.  0.
        -24    2    3    3    0    0  0.16635599071E+03 -0.49610465742E+01  0.11399447290E+04  0.11546632700E+04  0.77938143117E+02 0.  0.
          6    2    1    2  501    0 -0.14444056185E+03  0.13502379745E+02  0.83505336655E+03  0.86494592454E+03  0.17254546424E+03 0.  0.
         24    2    5    5    0    0 -0.15777106318E+03  0.12050258334E+02  0.52311309823E+03  0.55268220280E+03  0.82300587119E+02 0.  0.
          5    1    5    5  501    0  0.13330501329E+02  0.14521214106E+01  0.31194026832E+03  0.31226372175E+03  0.47000000000E+01 0. -1.
        -13    1    6    6    0    0 -0.34646007346E+02 -0.35835542751E+00  0.35477698858E+02  0.49589730387E+02  0.00000000000E+00 0.  1.
         14    1    6    6    0    0 -0.12312505584E+03  0.12408613762E+02  0.48763539938E+03  0.50309247241E+03  0.00000000000E+00 0. -1.
         -5    1    3    3    0  503 -0.21915428856E+02 -0.85413331708E+01  0.43345852263E+02  0.49539815328E+02  0.47000000000E+01 0.  1.
         13    1    4    4    0    0  0.88754625657E+02  0.21981231056E+02  0.78655354995E+03  0.79185039309E+03  0.00000000000E+00 0. -1.
        -14    1    4    4    0    0  0.77601365054E+02 -0.26942277630E+02  0.35339117909E+03  0.36281287689E+03  0.00000000000E+00 0.  1.
</event>
<event>
12    1  0.8494789E-002  0.2057824E+03  0.7818608E-02  0.1145094E+00
         21   -1    0    0  503  502  0.00000000000E+00  0.00000000000E+00  0.90980279536E+02  0.90980279536E+02  0.00000000000E+00 0.  1.
         21   -1    0    0  501  503 -0.00000000000E+00 -0.00000000000E+00 -0.47695365249E+03  0.47695365249E+03  0.00000000000E+00 0.  1.
          6    2    1    2  501    0  0.73224143528E+02  0.83811213353E+02 -0.24038827481E+03  0.31643786454E+03  0.17309045255E+03 0.  0.
         24    2    3    3    0    0  0.55889946789E+02  0.43342221369E+02 -0.24962488157E+03  0.27120934927E+03  0.78991742133E+02 0.  0.
         -6    2    1    2    0  502 -0.73224143528E+02 -0.83811213353E+02 -0.14558509814E+03  0.25149606749E+03  0.17224737003E+03 0.  0.
        -24    2    5    5    0    0  0.20698422918E+02 -0.91657395970E+01 -0.77006175595E+02  0.11322620867E+03  0.79861052818E+02 0.  0.
          5    1    3    3  501    0  0.17334196739E+02  0.40468991984E+02  0.92366067604E+01  0.45228515267E+02  0.47000000000E+01 0. -1.
        -13    1    4    4    0    0  0.27902567259E+02 -0.99874673420E+01 -0.25383744734E+02  0.39020984871E+02  0.00000000000E+00 0.  1.
         14    1    4    4    0    0  0.27987379530E+02  0.53329688711E+02 -0.22424113684E+03  0.23218836440E+03  0.00000000000E+00 0. -1.
         -5    1    5    5    0  502 -0.93922566446E+02 -0.74645473756E+02 -0.68578922550E+02  0.13826985882E+03  0.47000000000E+01 0.  1.
         13    1    6    6    0    0  0.36194142020E+01  0.31358491845E+02 -0.56463884880E+02  0.64688681125E+02  0.00000000000E+00 0. -1.
        -14    1    6    6    0    0  0.17079008716E+02 -0.40524231442E+02 -0.20542290715E+02  0.48537527548E+02  0.00000000000E+00 0.  1.
</event>
<event>
12    1  0.8494789E-002  0.1884016E+03  0.7818608E-02  0.1159935E+00
         21   -1    0    0  503  502  0.00000000000E+00  0.00000000000E+00  0.24756204385E+03  0.24756204385E+03  0.00000000000E+00 0. -1.
         21   -1    0    0  501  503 -0.00000000000E+00 -0.00000000000E+00 -0.20725984063E+03  0.20725984063E+03  0.00000000000E+00 0. -1.
          6    2    1    2  501    0 -0.14681936713E+02 -0.74841278612E+02 -0.10617610538E+03  0.21626029753E+03  0.17227412657E+03 0.  0.
         24    2    3    3    0    0 -0.10471823071E+02 -0.87592231757E+00 -0.11698169615E+03  0.14124396744E+03  0.78451990329E+02 0.  0.
         -6    2    1    2    0  502  0.14681936713E+02  0.74841278612E+02  0.14647830860E+03  0.23856158695E+03  0.17215969223E+03 0.  0.
        -24    2    5    5    0    0  0.69072610660E+01  0.11051403646E+03  0.60277148255E+02  0.14482940849E+03  0.71282259038E+02 0.  0.
          5    1    3    3  501    0 -0.42101136421E+01 -0.73965356295E+02  0.10805590769E+02  0.75016330093E+02  0.47000000000E+01 0. -1.
        -11    1    4    4    0    0 -0.17698733225E+02 -0.24700258243E+02 -0.10903938150E+02  0.32283800616E+02  0.00000000000E+00 0.  1.
         12    1    4    4    0    0  0.72269101539E+01  0.23824335926E+02 -0.10607775800E+03  0.10896016682E+03  0.00000000000E+00 0. -1.
         -5    1    5    5    0  502  0.77746756469E+01 -0.35672757845E+02  0.86201160344E+02  0.93732178457E+02  0.47000000000E+01 0.  1.
         13    1    6    6    0    0  0.12629594446E+02  0.35638715976E+02  0.58572618257E+02  0.69716399375E+02  0.00000000000E+00 0. -1.
        -14    1    6    6    0    0 -0.57223333798E+01  0.74875320481E+02  0.17045299977E+01  0.75113009120E+02  0.00000000000E+00 0.  1.
</event>
<event>
12    1  0.8494789E-002  0.1835272E+03  0.7818608E-02  0.1164499E+00
         21   -1    0    0  501  502  0.00000000000E+00  0.00000000000E+00  0.14726441749E+03  0.14726441749E+03  0.00000000000E+00 0. -1.
         21   -1    0    0  502  503 -0.00000000000E+00 -0.00000000000E+00 -0.30833420669E+03  0.30833420669E+03  0.00000000000E+00 0.  1.
         -6    2    1    2    0  503  0.15375416364E+02 -0.63822904336E+02 -0.19659217173E+03  0.26894372806E+03  0.17138401422E+03 0.  0.
        -24    2    3    3    0    0  0.25843483916E+02  0.65815557903E+01 -0.18034238219E+03  0.19578284982E+03  0.71388703136E+02 0.  0.
          6    2    1    2  501    0 -0.15375416364E+02  0.63822904336E+02  0.35522382527E+02  0.18665489612E+03  0.17108022691E+03 0.  0.
         24    2    5    5    0    0  0.43004113337E+01  0.48661819741E+02  0.88182886080E+02  0.12824072561E+03  0.79265352265E+02 0.  0.
          5    1    5    5  501    0 -0.19675827698E+02  0.15161084594E+02 -0.52660503553E+02  0.58414170508E+02  0.47000000000E+01 0. -1.
        -13    1    6    6    0    0  0.48431952475E+01 -0.81380542631E+01 -0.10647473417E+02  0.14249672192E+02  0.00000000000E+00 0.  1.
         14    1    6    6    0    0 -0.54278391372E+00  0.56799874004E+02  0.98830359498E+02  0.11399105342E+03  0.00000000000E+00 0. -1.
         -5    1    3    3    0  503 -0.10468067552E+02 -0.70404460126E+02 -0.16249789548E+02  0.73160878236E+02  0.47000000000E+01 0.  1.
         13    1    4    4    0    0 -0.20249343377E+02  0.18652262766E+02 -0.51223773372E+02  0.58153398628E+02  0.00000000000E+00 0. -1.
        -14    1    4    4    0    0  0.46092827293E+02 -0.12070706976E+02 -0.12911860881E+03  0.13762945120E+03  0.00000000000E+00 0.  1.
</event>
<event>
12    1  0.8494789E-002  0.2040947E+03  0.7818608E-02  0.1146764E+00
         21   -1    0    0  503  502  0.00000000000E+00  0.00000000000E+00  0.24138257021E+03  0.24138257021E+03  0.00000000000E+00 0.  1.
         21   -1    0    0  501  503 -0.00000000000E+00 -0.00000000000E+00 -0.17157447063E+03  0.17157447063E+03  0.00000000000E+00 0.  1.
          6    2    1    2  501    0  0.55878475734E+02  0.91945062153E+02  0.20803692648E+02  0.20306161772E+03  0.17095300073E+03 0.  0.
         24    2    3    3    0    0  0.21235777439E+02  0.11493703951E+03 -0.23697137511E+02  0.14197838390E+03  0.77037821065E+02 0.  0.
         -6    2    1    2    0  502 -0.55878475734E+02 -0.91945062153E+02  0.49004406927E+02  0.20989542313E+03  0.17343113402E+03 0.  0.
        -24    2    5    5    0    0 -0.73945848034E+02  0.15146334954E+01  0.23132956680E+02  0.11114033926E+03  0.79666547367E+02 0.  0.
          5    1    3    3  501    0  0.34642698295E+02 -0.22991977360E+02  0.44500830159E+02  0.61083233812E+02  0.47000000000E+01 0. -1.
        -11    1    4    4    0    0  0.47839845419E+02  0.55460851211E+02 -0.23171687499E+02  0.76821116422E+02  0.00000000000E+00 0.  1.
         12    1    4    4    0    0 -0.26604067980E+02  0.59476188302E+02 -0.52545001210E+00  0.65157267482E+02  0.00000000000E+00 0. -1.
         -5    1    5    5    0  502  0.18067372300E+02 -0.93459695648E+02  0.25871450247E+02  0.98755083871E+02  0.47000000000E+01 0.  1.
         11    1    6    6    0    0 -0.61394915382E+02  0.25090922229E+02 -0.11594340067E+02  0.67329924511E+02  0.00000000000E+00 0. -1.
        -12    1    6    6    0    0 -0.12550932652E+02 -0.23576288733E+02  0.34727296747E+02  0.43810414747E+02  0.00000000000E+00 0.  1.
</event>
<event>
12    1  0.8494789E-002  0.2026214E+03  0.7818608E-02  0.1147828E+00
         21   -1    0    0  501  502  0.00000000000E+00  0.00000000000E+00  0.51929061581E+02  0.51929061581E+02  0.00000000000E+00 0.  1.
         21   -1    0    0  502  503 -0.00000000000E+00 -0.00000000000E+00 -0.98093161927E+03  0.98093161927E+03  0.00000000000E+00 0.  1.
         -6    2    1    2    0  503 -0.29603835541E+02 -0.10467372374E+03 -0.69636107340E+03  0.72524075730E+03  0.17094571061E+03 0.  0.
        -24    2    3    3    0    0  0.49562735210E+02 -0.63395889281E+02 -0.42733969220E+03  0.44175213480E+03  0.77783240939E+02 0.  0.
          6    2    1    2  501    0  0.29603835541E+02  0.10467372374E+03 -0.23264148429E+03  0.30761992356E+03  0.16933688799E+03 0.  0.
         24    2    5    5    0    0 -0.91944194863E+01  0.12757297923E+03 -0.14636370891E+03  0.21017442587E+03  0.79947180215E+02 0.  0.
          5    1    5    5  501    0  0.38798255027E+02 -0.22899255485E+02 -0.86277775383E+02  0.97445497689E+02  0.47000000000E+01 0. -1.
        -11    1    6    6    0    0  0.31782610384E+02  0.28743103619E+02 -0.31367939494E+02  0.53106006784E+02  0.00000000000E+00 0.  1.
         12    1    6    6    0    0 -0.40977029870E+02  0.98829875610E+02 -0.11499576942E+03  0.15706841908E+03  0.00000000000E+00 0. -1.
         -5    1    3    3    0  503 -0.79166570751E+02 -0.41277834463E+02 -0.26902138120E+03  0.28348862250E+03  0.47000000000E+01 0.  1.
         11    1    4    4    0    0  0.60720160167E+02 -0.30636298468E+02 -0.18800910972E+03  0.19993235349E+03  0.00000000000E+00 0. -1.
        -12    1    4    4    0    0 -0.11157424957E+02 -0.32759590813E+02 -0.23933058248E+03  0.24181978131E+03  0.00000000000E+00 0.  1.
</event>
<event>
12    1  0.8494789E-002  0.2508141E+03  0.7818608E-02  0.1112862E+00
         21   -1    0    0  503  502  0.00000000000E+00  0.00000000000E+00  0.25092136202E+03  0.25092136202E+03  0.00000000000E+00 0. -1.
         21   -1    0    0  501  503 -0.00000000000E+00 -0.00000000000E+00 -0.25092549695E+03  0.25092549695E+03  0.00000000000E+00 0. -1.
          6    2    1    2  501    0  0.14416008146E+03 -0.11251654767E+03 -0.12945153731E+02  0.25069917683E+03  0.17099823880E+03 0.  0.
         24    2    3    3    0    0  0.15873872620E+02 -0.58066564294E+02 -0.44801004107E+02  0.10766408578E+03  0.77205697184E+02 0.  0.
         -6    2    1    2    0  502 -0.14416008146E+03  0.11251654767E+03  0.12941018798E+02  0.25114768214E+03  0.17165542721E+03 0.  0.
        -24    2    5    5    0    0 -0.16141785123E+03  0.52617416796E+02  0.11504347896E+02  0.18861856476E+03  0.81365211883E+02 0.  0.
          5    1    3    3  501    0  0.12828620884E+03 -0.54449983376E+02  0.31855850376E+02  0.14303509105E+03  0.47000000000E+01 0. -1.
        -13    1    4    4    0    0  0.11813256048E+02 -0.45377396137E+02  0.12748902413E+02  0.48592135283E+02  0.00000000000E+00 0.  1.
         14    1    4    4    0    0  0.40606165724E+01 -0.12689168157E+02 -0.57549906520E+02  0.59071950500E+02  0.00000000000E+00 0. -1.
         -5    1    5    5    0  502  0.17257769776E+02  0.59899130874E+02  0.14366709022E+01  0.62529117380E+02  0.47000000000E+01 0.  1.
         13    1    6    6    0    0 -0.54669055194E+02  0.16926449921E+02  0.43176850673E+02  0.71689962595E+02  0.00000000000E+00 0. -1.
        -14    1    6    6    0    0 -0.10674879604E+03  0.35690966875E+02 -0.31672502777E+02  0.11692860216E+03  0.00000000000E+00 0.  1.
</event>
<event>
12    1  0.8494789E-002  0.3007163E+03  0.7818608E-02  0.1085532E+00
         21   -1    0    0  501  502  0.00000000000E+00  0.00000000000E+00  0.11801746982E+03  0.11801746982E+03  0.00000000000E+00 0. -1.
         21   -1    0    0  502  503 -0.00000000000E+00 -0.00000000000E+00 -0.89168204106E+03  0.89168204106E+03  0.00000000000E+00 0.  1.
         -6    2    1    2    0  503 -0.21857394690E+03  0.97715500782E+02 -0.58298631676E+03  0.65362576657E+03  0.17329370399E+03 0.  0.
        -24    2    3    3    0    0 -0.14822797955E+03  0.83159598905E+02 -0.53053967804E+03  0.56455742587E+03  0.91464114952E+02 0.  0.
          6    2    1    2  501    0  0.21857394690E+03 -0.97715500782E+02 -0.19067825448E+03  0.35607374431E+03  0.18195445940E+03 0.  0.
         24    2    5    5    0    0  0.24461344634E+03 -0.94560126837E+02 -0.16554047601E+03  0.31944029208E+03  0.76557790523E+02 0.  0.
          5    1    5    5  501    0 -0.26039499436E+02 -0.31553739445E+01 -0.25137778470E+02  0.36633452226E+02  0.47000000000E+01 0. -1.
        -13    1    6    6    0    0 -0.24779771284E+01  0.32683686688E+01  0.26993731119E+01  0.49101140110E+01  0.00000000000E+00 0.  1.
         14    1    6    6    0    0  0.24709142347E+03 -0.97828495506E+02 -0.16823984912E+03  0.31453017807E+03  0.00000000000E+00 0. -1.
         -5    1    3    3    0  503 -0.70345967349E+02  0.14555901876E+02 -0.52446638718E+02  0.89068340696E+02  0.47000000000E+01 0.  1.
         13    1    4    4    0    0  0.12010770971E+02  0.10399906460E+02 -0.29437565629E+02  0.33451262216E+02  0.00000000000E+00 0. -1.
        -14    1    4    4    0    0 -0.16023875052E+03  0.72759692445E+02 -0.50110211241E+03  0.53110616366E+03  0.00000000000E+00 0.  1.
</event>
<event>
12    1  0.8494789E-002  0.1856566E+03  0.7818608E-02  0.1162509E+00
         21   -1    0    0  503  502  0.00000000000E+00  0.00000000000E+00  0.48543968195E+03  0.48543968195E+03  0.00000000000E+00 0. -1.
         21   -1    0    0  501  503 -0.00000000000E+00 -0.00000000000E+00 -0.17940441633E+03  0.17940441633E+03  0.00000000000E+00 0. -1.
          6    2    1    2  501    0  0.68542480837E+01 -0.69028679165E+02 -0.10556829858E+03  0.21330686002E+03  0.17188138818E+03 0.  0.
         24    2    3    3    0    0 -0.33305781294E+02 -0.37733475803E+02 -0.12670443839E+03  0.15798015654E+03  0.79816194399E+02 0.  0.
         -6    2    1    2    0  502 -0.68542480837E+01  0.69028679165E+02  0.41160356421E+03  0.45153723826E+03  0.17221046484E+03 0.  0.
        -24    2    5    5    0    0  0.29093529599E+02  0.19356117223E+01  0.10384939854E+03  0.13447503789E+03  0.80303537782E+02 0.  0.
          5    1    3    3  501    0  0.40160029378E+02 -0.31295203362E+02  0.21136139801E+02  0.55326703487E+02  0.47000000000E+01 0. -1.
        -11    1    4    4    0    0 -0.10013684544E+02 -0.20773254276E+02  0.46311121528E+01  0.23521249353E+02  0.00000000000E+00 0.  1.
         12    1    4    4    0    0 -0.23292096750E+02 -0.16960221527E+02 -0.13133555054E+03  0.13445890718E+03  0.00000000000E+00 0. -1.
         -5    1    5    5    0  502 -0.35947777683E+02  0.67093067443E+02  0.30775416566E+03  0.31706220037E+03  0.47000000000E+01 0.  1.
         13    1    6    6    0    0  0.27703765201E+02 -0.13682106886E+02  0.11243194291E+03  0.11660034495E+03  0.00000000000E+00 0. -1.
        -14    1    6    6    0    0  0.13897643981E+01  0.15617718608E+02 -0.85825443746E+01  0.17874692936E+02  0.00000000000E+00 0.  1.
</event>
<event>
12    1  0.8494789E-002  0.2309874E+03  0.7818608E-02  0.1126120E+00
         21   -1    0    0  501  502  0.00000000000E+00  0.00000000000E+00  0.19327209298E+03  0.19327209298E+03  0.00000000000E+00 0. -1.
         21   -1    0    0  502  503 -0.00000000000E+00 -0.00000000000E+00 -0.41765634219E+03  0.41765634219E+03  0.00000000000E+00 0. -1.
         -6    2    1    2    0  503  0.56994064932E+02 -0.14204370749E+03 -0.29062943597E+03  0.37062947179E+03  0.17168575373E+03 0.  0.
        -24    2    3    3    0    0  0.25526888898E+01 -0.40375220393E+02 -0.21412864299E+03  0.23215634797E+03  0.80055102982E+02 0.  0.
          6    2    1    2  501    0 -0.56994064932E+02  0.14204370749E+03  0.66245186759E+02  0.24029896338E+03  0.17300412932E+03 0.  0.
         24    2    5    5    0    0 -0.36181379671E+02  0.68670365264E+00  0.19546510220E+02  0.89906720261E+02  0.79947410775E+02 0.  0.
          5    1    5    5  501    0 -0.20812685261E+02  0.14135700383E+03  0.46698676539E+02  0.15039224312E+03  0.47000000000E+01 0. -1.
        -11    1    6    6    0    0 -0.52767455838E+01  0.80138468673E+01  0.46972711372E+02  0.47942688694E+02  0.00000000000E+00 0.  1.
         12    1    6    6    0    0 -0.30904634087E+02 -0.73271432146E+01 -0.27426201152E+02  0.41964031567E+02  0.00000000000E+00 0. -1.
         -5    1    3    3    0  503  0.54441376042E+02 -0.10166848709E+03 -0.76500792979E+02  0.13847312382E+03  0.47000000000E+01 0.  1.
         13    1    4    4    0    0  0.15314463856E+02 -0.59237159581E+02 -0.18689623150E+03  0.19665649043E+03  0.00000000000E+00 0. -1.
        -14    1    4    4    0    0 -0.12761774966E+02  0.18861939188E+02 -0.27232411489E+02  0.35499857545E+02  0.00000000000E+00 0.  1.
</event>
<event>
12    1  0.8494789E-002  0.1958824E+03  0.7818608E-02  0.1154026E+00
         21   -1    0    0  503  502  0.00000000000E+00  0.00000000000E+00  0.42040711124E+02  0.42040711124E+02  0.00000000000E+00 0. -1.
         21   -1    0    0  501  503 -0.00000000000E+00 -0.00000000000E+00 -0.21336878782E+04  0.21336878782E+04  0.00000000000E+00 0.  1.
          6    2    1    2  501    0  0.88071270952E+02  0.31172221372E+02 -0.18702401613E+04  0.18801089679E+04  0.16817614045E+03 0.  0.
         24    2    3    3    0    0  0.44647814340E+02 -0.47081065762E+02 -0.10642808624E+04  0.10691825502E+04  0.79041238958E+02 0.  0.
         -6    2    1    2    0  502 -0.88071270952E+02 -0.31172221372E+02 -0.22140700584E+03  0.29561962145E+03  0.17216748299E+03 0.  0.
        -24    2    5    5    0    0 -0.92767174753E+02 -0.65949911595E+02 -0.10354963388E+03  0.17255870412E+03  0.78095071160E+02 0.  0.
          5    1    3    3  501    0  0.43423456612E+02  0.78253287134E+02 -0.80595929886E+03  0.81092641772E+03  0.47000000000E+01 0. -1.
        -13    1    4    4    0    0  0.32486028014E+02 -0.53872528002E+01 -0.84503294341E+03  0.84567431080E+03  0.00000000000E+00 0.  1.
         14    1    4    4    0    0  0.12161786326E+02 -0.41693812962E+02 -0.21924791900E+03  0.22350823938E+03  0.00000000000E+00 0. -1.
         -5    1    5    5    0  502  0.46959038004E+01  0.34777690223E+02 -0.11785737196E+03  0.12306091734E+03  0.47000000000E+01 0.  1.
         13    1    6    6    0    0 -0.52204343548E+02  0.88149648557E+01 -0.41573107967E+02  0.67315082981E+02  0.00000000000E+00 0. -1.
        -14    1    6    6    0    0 -0.40562831205E+02 -0.74764876450E+02 -0.61976525912E+02  0.10524362114E+03  0.00000000000E+00 0.  1.
</event>
<event>
12    1  0.8494789E-002  0.1759038E+03  0.7818608E-02  0.1172250E+00
         21   -1    0    0  503  502  0.00000000000E+00  0.00000000000E+00  0.29004089164E+04  0.29004089164E+04  0.00000000000E+00 0.  1.
         21   -1    0    0  501  503 -0.00000000000E+00 -0.00000000000E+00 -0.12114332324E+02  0.12114332324E+02  0.00000000000E+00 0.  1.
          6    2    1    2  501    0  0.18771259543E+02 -0.26879840164E+02  0.92961607146E+03  0.94611215072E+03  0.17282151318E+03 0.  0.
         24    2    3    3    0    0  0.58205956657E+02  0.27514220115E+02  0.45196527345E+03  0.46373658752E+03  0.81449668490E+02 0.  0.
         -6    2    1    2    0  502 -0.18771259543E+02  0.26879840164E+02  0.19586785126E+04  0.19664110980E+04  0.17110290648E+03 0.  0.
        -24    2    5    5    0    0 -0.63411461819E+02  0.59431737552E+02  0.12520043452E+04  0.12575649634E+04  0.80010073197E+02 0.  0.
          5    1    3    3  501    0 -0.39434697114E+02 -0.54394060278E+02  0.47765079801E+03  0.48237556320E+03  0.47000000000E+01 0. -1.
        -11    1    4    4    0    0  0.36308413906E+02  0.96221434131E+00  0.39849879106E+03  0.40015061321E+03  0.00000000000E+00 0.  1.
         12    1    4    4    0    0  0.21897542751E+02  0.26552005773E+02  0.53466482390E+02  0.63585974304E+02  0.00000000000E+00 0. -1.
         -5    1    5    5    0  502  0.44640202276E+02 -0.32551897389E+02  0.70667416739E+03  0.70884613460E+03  0.47000000000E+01 0.  1.
         13    1    6    6    0    0 -0.32910982574E+02  0.71787578947E+02  0.67135207047E+03  0.67598091082E+03  0.00000000000E+00 0. -1.
        -14    1    6    6    0    0 -0.30500479245E+02 -0.12355841395E+02  0.58065227474E+03  0.58158405257E+03  0.00000000000E+00 0.  1.
</event>
<event>
12    1  0.8494789E-002  0.1747303E+03  0.7818608E-02  0.1173618E+00
         21   -1    0    0  503  502  0.00000000000E+00  0.00000000000E+00  0.27649876706E+03  0.27649876706E+03  0.00000000000E+00 0.  1.
         21   -1    0    0  501  503 -0.00000000000E+00 -0.00000000000E+00 -0.13083240632E+03  0.13083240632E+03  0.00000000000E+00 0.  1.
          6    2    1    2  501    0  0.21861457579E+02 -0.30552882373E+02 -0.10147176746E+02  0.17502467237E+03  0.17064368958E+03 0.  0.
         24    2    3    3    0    0  0.23154624935E+02 -0.85610492378E+02 -0.22156425275E+02  0.11846209860E+03  0.75346324147E+02 0.  0.
         -6    2    1    2    0  502 -0.21861457579E+02  0.30552882373E+02  0.15581353749E+03  0.23230650102E+03  0.16815781279E+03 0.  0.
        -24    2    5    5    0    0 -0.32596762223E+02 -0.30576065713E+02  0.14122533472E+03  0.16837762867E+03  0.80056142597E+02 0.  0.
          5    1    3    3  501    0 -0.12931673558E+01  0.55057610005E+02  0.12009248529E+02  0.56562573770E+02  0.47000000000E+01 0. -1.
        -11    1    4    4    0    0  0.39400289985E+02 -0.31898405624E+02  0.12883267771E+02  0.52305541969E+02  0.00000000000E+00 0.  1.
         12    1    4    4    0    0 -0.16245665050E+02 -0.53712086754E+02 -0.35039693047E+02  0.66156556630E+02  0.00000000000E+00 0. -1.
         -5    1    5    5    0  502  0.10735304644E+02  0.61128948086E+02  0.14588202772E+02  0.63928872350E+02  0.47000000000E+01 0.  1.
         13    1    6    6    0    0  0.17432119296E+02  0.17259156449E+01  0.28704139786E+01  0.17750967420E+02  0.00000000000E+00 0. -1.
        -14    1    6    6    0    0 -0.50028881519E+02 -0.32301981357E+02  0.13835492074E+03  0.15062666125E+03  0.00000000000E+00 0.  1.
</event>
<event>
12    1  0.8494789E-002  0.1776857E+03  0.7818608E-02  0.1170185E+00
         21   -1    0    0  503  502  0.00000000000E+00  0.00000000000E+00  0.18776398907E+03  0.18776398907E+03  0.00000000000E+00 0.  1.
         21   -1    0    0  501  503 -0.00000000000E+00 -0.00000000000E+00 -0.25444479517E+03  0.25444479517E+03  0.00000000000E+00 0.  1.
          6    2    1    2  501    0 -0.11365561291E+02 -0.46273659999E+02 -0.16242652530E+03  0.24036863160E+03  0.17065835855E+03 0.  0.
         24    2    3    3    0    0  0.57161947608E+02 -0.10445038565E+02 -0.75752550166E+02  0.12411813674E+03  0.79311259765E+02 0.  0.
         -6    2    1    2    0  502  0.11365561291E+02  0.46273659999E+02  0.95745719208E+02  0.20184015264E+03  0.17117761792E+03 0.  0.
        -24    2    5    5    0    0  0.19595945974E+02  0.55549831407E+02 -0.48289131379E+01  0.10039492969E+03  0.81154412305E+02 0.  0.
          5    1    3    3  501    0 -0.68527508899E+02 -0.35828621435E+02 -0.86673975138E+02  0.11625049486E+03  0.47000000000E+01 0. -1.
        -13    1    4    4    0    0  0.29266529729E+02 -0.44905181451E+02 -0.35975813630E+02  0.64554351131E+02  0.00000000000E+00 0.  1.
         14    1    4    4    0    0  0.27895417878E+02  0.34460142886E+02 -0.39776736536E+02  0.59563785606E+02  0.00000000000E+00 0. -1.
         -5    1    5    5    0  502 -0.82303846830E+01 -0.92761714073E+01  0.10057463235E+03  0.10144522295E+03  0.47000000000E+01 0.  1.
         13    1    6    6    0    0  0.30814864419E+02  0.23353578447E+02 -0.37001603082E+02  0.53516951764E+02  0.00000000000E+00 0. -1.
        -14    1    6    6    0    0 -0.11218918445E+02  0.32196252960E+02  0.32172689945E+02  0.46877977921E+02  0.00000000000E+00 0.  1.
</event>
<event>
12    1  0.8494789E-002  0.1919292E+03  0.7818608E-02  0.1156948E+00
         21   -1    0    0  503  502  0.00000000000E+00  0.00000000000E+00  0.35579909702E+03  0.35579909702E+03  0.00000000000E+00 0. -1.
         21   -1    0    0  501  503 -0.00000000000E+00 -0.00000000000E+00 -0.45662894074E+03  0.45662894074E+03  0.00000000000E+00 0. -1.
          6    2    1    2  501    0  0.31058660386E+02  0.80425674165E+02 -0.40785526262E+03  0.45034874676E+03  0.17039703346E+03 0.  0.
         24    2    3    3    0    0  0.73426661126E+02  0.95160603867E+02 -0.32770163894E+03  0.35837669107E+03  0.81230988188E+02 0.  0.
         -6    2    1    2    0  502 -0.31058660386E+02 -0.80425674165E+02  0.30702541889E+03  0.36207929100E+03  0.17147558333E+03 0.  0.
        -24    2    5    5    0    0 -0.50399229712E+02 -0.22830390750E+02  0.27859153994E+03  0.29483459035E+03  0.79075156931E+02 0.  0.
          5    1    3    3  501    0 -0.42368000739E+02 -0.14734929702E+02 -0.80153623675E+02  0.91972055692E+02  0.47000000000E+01 0. -1.
        -11    1    4    4    0    0  0.65103079281E+02  0.91303535830E+02 -0.19187294342E+03  0.22223854977E+03  0.00000000000E+00 0.  1.
         12    1    4    4    0    0  0.83235818444E+01  0.38570680373E+01 -0.13582869552E+03  0.13613814130E+03  0.00000000000E+00 0. -1.
         -5    1    5    5    0  502  0.19340569325E+02 -0.57595283415E+02  0.28433878949E+02  0.67244700650E+02  0.47000000000E+01 0.  1.
         11    1    6    6    0    0 -0.18801592934E+02  0.23933402033E+02  0.16735029386E+03  0.17009535116E+03  0.00000000000E+00 0. -1.
        -12    1    6    6    0    0 -0.31597636778E+02 -0.46763792784E+02  0.11124124608E+03  0.12473923919E+03  0.00000000000E+00 0.  1.
</event>
<event>
12    1  0.8494789E-002  0.2365086E+03  0.7818608E-02  0.1123249E+00
         21   -1    0    0  501  502  0.00000000000E+00  0.00000000000E+00  0.55438375146E+02  0.55438375146E+02  0.00000000000E+00 0.  1.
         21   -1    0    0  502  503 -0.00000000000E+00 -0.00000000000E+00 -0.21612164869E+04  0.21612164869E+04  0.00000000000E+00 0.  1.
         -6    2    1    2    0  503  0.68109478528E+02 -0.13665177549E+03 -0.18650385145E+04  0.18791761727E+04  0.17210990189E+03 0.  0.
        -24    2    3    3    0    0 -0.61359777359E+01 -0.19489212104E+02 -0.44084272235E+03  0.44823410585E+03  0.78447614309E+02 0.  0.
          6    2    1    2  501    0 -0.68109478528E+02  0.13665177549E+03 -0.24073959724E+03  0.33747868942E+03  0.18062032921E+03 0.  0.
         24    2    5    5    0    0 -0.46888627263E+02  0.14462160025E+03 -0.10417834375E+03  0.19896909196E+03  0.74977474105E+02 0.  0.
          5    1    5    5  501    0 -0.21220851264E+02 -0.79698247558E+01 -0.13656125349E+03  0.13850959746E+03  0.47000000000E+01 0. -1.
        -11    1    6    6    0    0  0.18080372058E+02  0.59082768346E+02 -0.32266302294E+02  0.69705004360E+02  0.00000000000E+00 0.  1.
         12    1    6    6    0    0 -0.64968999322E+02  0.85538831902E+02 -0.71912041458E+02  0.12926408760E+03  0.00000000000E+00 0. -1.
         -5    1    3    3    0  503  0.74245456263E+02 -0.11716256339E+03 -0.14241957922E+04  0.14309420668E+04  0.47000000000E+01 0.  1.
         13    1    4    4    0    0  0.35320452691E+02 -0.80175605422E+01 -0.24956561456E+03  0.25218011743E+03  0.00000000000E+00 0. -1.
        -14    1    4    4    0    0 -0.41456430427E+02 -0.11471651562E+02 -0.19127710779E+03  0.19605398843E+03  0.00000000000E+00 0.  1.
</event>
<event>
12    1  0.8494789E-002  0.2077127E+03  0.7818608E-02  0.1143561E+00
         21   -1    0    0  501  502  0.00000000000E+00  0.00000000000E+00  0.29655965214E+03  0.29655965214E+03  0.00000000000E+00 0. -1.
         21   -1    0    0  502  503 -0.00000000000E+00 -0.00000000000E+00 -0.16643622956E+03  0.16643622956E+03  0.00000000000E+00 0.  1.
         -6    2    1    2    0  503 -0.11654154348E+03 -0.26526944419E+01 -0.18114660235E+02  0.20850110830E+03  0.17191743106E+03 0.  0.
        -24    2    3    3    0    0 -0.41998617700E+02  0.59124486404E+02  0.53147977582E+01  0.10878101324E+03  0.80904097453E+02 0.  0.
          6    2    1    2  501    0  0.11654154348E+03  0.26526944419E+01  0.14823808282E+03  0.25449477340E+03  0.17089204880E+03 0.  0.
         24    2    5    5    0    0  0.12220951537E+03 -0.47847654394E+02  0.95060387806E+02  0.18079017120E+03  0.80150140338E+02 0.  0.
          5    1    5    5  501    0 -0.56679718815E+01  0.50500348836E+02  0.53177695014E+02  0.73704602196E+02  0.47000000000E+01 0. -1.
        -13    1    6    6    0    0  0.83784765990E+02 -0.24733277530E+01  0.22129236225E+02  0.86693179997E+02  0.00000000000E+00 0.  1.
         14    1    6    6    0    0  0.38424749376E+02 -0.45374326642E+02  0.72931151581E+02  0.94096991204E+02  0.00000000000E+00 0. -1.
         -5    1    3    3    0  503 -0.74542925784E+02 -0.61777180845E+02 -0.23429457994E+02  0.99720095063E+02  0.47000000000E+01 0.  1.
         13    1    4    4    0    0  0.24136837986E+02  0.22760483233E+02  0.13208132256E+01  0.33201974227E+02  0.00000000000E+00 0. -1.
        -14    1    4    4    0    0 -0.66135455687E+02  0.36364003171E+02  0.39939845327E+01  0.75579039012E+02  0.00000000000E+00 0.  1.
</event>
<event>
12    1  0.8494789E-002  0.1880979E+03  0.7818608E-02  0.1161205E+00
         21   -1    0    0  503  502  0.00000000000E+00  0.00000000000E+00  0.55865119196E+03  0.55865119196E+03  0.00000000000E+00 0.  1.
         21   -1    0    0  501  503 -0.00000000000E+00 -0.00000000000E+00 -0.13053373023E+03  0.13053373023E+03  0.00000000000E+00 0.  1.
          6    2    1    2  501    0  0.47493387368E+02 -0.43235907605E+02 -0.34673583233E+02  0.19126706708E+03  0.17679329180E+03 0.  0.
         24    2    3    3    0    0 -0.44098227204E+01 -0.60501590393E+02  0.32715842732E+02  0.10434485040E+03  0.78343043493E+02 0.  0.
         -6    2    1    2    0  502 -0.47493387368E+02  0.43235907605E+02  0.46279104497E+03  0.49791785511E+03  0.17210948140E+03 0.  0.
        -24    2    5    5    0    0 -0.93754758049E+02  0.20652758523E+02  0.24932925711E+03  0.27828603156E+03  0.77855929911E+02 0.  0.
          5    1    3    3  501    0  0.51903210088E+02  0.17265682788E+02 -0.67389425965E+02  0.86922216674E+02  0.47000000000E+01 0. -1.
        -13    1    4    4    0    0 -0.39783164382E+01 -0.90412315463E+01 -0.25081770846E+02  0.26956744951E+02  0.00000000000E+00 0.  1.
         14    1    4    4    0    0 -0.43150628219E+00 -0.51460358847E+02  0.57797613578E+02  0.77388105453E+02  0.00000000000E+00 0. -1.
         -5    1    5    5    0  502  0.46261370681E+02  0.22583149082E+02  0.21346178786E+03  0.21963182355E+03  0.47000000000E+01 0.  1.
         13    1    6    6    0    0 -0.98683610351E+02  0.29006327834E+02  0.24801496386E+03  0.26849812719E+03  0.00000000000E+00 0. -1.
        -14    1    6    6    0    0  0.49288523021E+01 -0.83535693107E+01  0.13142932451E+01  0.97879043711E+01  0.00000000000E+00 0.  1.
</event>
<event>
12    1  0.8494789E-002  0.3269969E+03  0.7818608E-02  0.1072569E+00
         21   -1    0    0  501  502  0.00000000000E+00  0.00000000000E+00  0.15025596459E+03  0.15025596459E+03  0.00000000000E+00 0.  1.
         21   -1    0    0  502  503 -0.00000000000E+00 -0.00000000000E+00 -0.10200703398E+04  0.10200703398E+04  0.00000000000E+00 0. -1.
         -6    2    1    2    0  503  0.10276824401E+03 -0.25776208820E+03 -0.75724776615E+03  0.82449651993E+03  0.17137014310E+03 0.  0.
        -24    2    3    3    0    0 -0.92243243291E+01 -0.15673143663E+03 -0.42456831741E+03  0.45919221728E+03  0.77132385390E+02 0.  0.
          6    2    1    2  501    0 -0.10276824401E+03  0.25776208820E+03 -0.11256660903E+03  0.34582978443E+03  0.17298668226E+03 0.  0.
         24    2    5    5    0    0 -0.32668626171E+02  0.19955254410E+03 -0.25642147162E+02  0.21981288272E+03  0.82290501914E+02 0.  0.
          5    1    5    5  501    0 -0.70099617839E+02  0.58209544092E+02 -0.86924461863E+02  0.12601690170E+03  0.47000000000E+01 0. -1.
        -11    1    6    6    0    0  0.17086513299E+02  0.12900307448E+02  0.95849151777E+01  0.23457141086E+02  0.00000000000E+00 0.  1.
         12    1    6    6    0    0 -0.49755139470E+02  0.18665223666E+03 -0.35227062340E+02  0.19635574164E+03  0.00000000000E+00 0. -1.
         -5    1    3    3    0  503  0.11199256834E+03 -0.10103065157E+03 -0.33267944874E+03  0.36530430265E+03  0.47000000000E+01 0.  1.
         13    1    4    4    0    0  0.48995542072E+01  0.29736037578E+01 -0.41249348531E+00  0.57461379738E+01  0.00000000000E+00 0. -1.
        -14    1    4    4    0    0 -0.14123878536E+02 -0.15970504038E+03 -0.42415582392E+03  0.45344607930E+03  0.00000000000E+00 0.  1.
</event>
<event>
12    1  0.8494789E-002  0.1934506E+03  0.7818608E-02  0.1155388E+00
         21   -1    0    0  503  502  0.00000000000E+00  0.00000000000E+00  0.24206185351E+03  0.24206185351E+03  0.00000000000E+00 0. -1.
         21   -1    0    0  501  503 -0.00000000000E+00 -0.00000000000E+00 -0.21426627486E+03  0.21426627486E+03  0.00000000000E+00 0. -1.
          6    2    1    2  501    0  0.25619508848E+02 -0.85497532046E+02 -0.10651069152E+03  0.22083400125E+03  0.17163024640E+03 0.  0.
         24    2    3    3    0    0  0.81325549337E+02 -0.73572264074E+02 -0.90151633557E+02  0.16137743104E+03  0.76737443272E+02 0.  0.
         -6    2    1    2    0  502 -0.25619508848E+02  0.85497532046E+02  0.13430627017E+03  0.23549412712E+03  0.17161912039E+03 0.  0.
        -24    2    5    5    0    0 -0.49964040757E+02  0.95326520793E+02  0.39686318235E+02  0.13718700348E+03  0.75244396032E+02 0.  0.
          5    1    3    3  501    0 -0.55706040490E+02 -0.11925267972E+02 -0.16359057967E+02  0.59456570207E+02  0.47000000000E+01 0. -1.
        -13    1    4    4    0    0  0.81444279897E+01  0.16126880471E+02 -0.11298781193E+02  0.21308928585E+02  0.00000000000E+00 0.  1.
         14    1    4    4    0    0  0.73181121348E+02 -0.89699144546E+02 -0.78852852364E+02  0.14006850245E+03  0.00000000000E+00 0. -1.
         -5    1    5    5    0  502  0.24344531909E+02 -0.98289887470E+01  0.94619951939E+02  0.98307123641E+02  0.47000000000E+01 0.  1.
         13    1    6    6    0    0  0.33562700164E+00  0.52171461040E+01  0.33390707270E+02  0.33797493856E+02  0.00000000000E+00 0. -1.
        -14    1    6    6    0    0 -0.50299667758E+02  0.90109374689E+02  0.62956109652E+01  0.10338950963E+03  0.00000000000E+00 0.  1.
</event>
<event>
12    1  0.8494789E-002  0.4138807E+03  0.7818608E-02  0.1039235E+00
         21   -1    0    0  501  502  0.00000000000E+00  0.00000000000E+00  0.78631686373E+03  0.78631686373E+03  0.00000000000E+00 0. -1.
         21   -1    0    0  502  503 -0.00000000000E+00 -0.00000000000E+00 -0.28846978140E+03  0.28846978140E+03  0.00000000000E+00 0. -1.
         -6    2    1    2    0  503  0.13616978357E+03 -0.35102937767E+03  0.51626578629E+03  0.66049633707E+03  0.16721607352E+03 0.  0.
        -24    2    3    3    0    0  0.20086317874E+02 -0.22881815520E+03  0.30706860809E+03  0.39180226703E+03  0.80353457061E+02 0.  0.
          6    2    1    2  501    0 -0.13616978357E+03  0.35102937767E+03 -0.18418703958E+02  0.41429030806E+03  0.17185277636E+03 0.  0.
         24    2    5    5    0    0 -0.64459233265E+02  0.80667541118E+02  0.20837327902E+02  0.13179950869E+03  0.79212822904E+02 0.  0.
          5    1    5    5  501    0 -0.71710550310E+02  0.27036183656E+03 -0.39256031860E+02  0.28249079937E+03  0.47000000000E+01 0. -1.
        -11    1    6    6    0    0 -0.11939930094E+02 -0.13810735249E+02  0.14860270096E+02  0.23539880333E+02  0.00000000000E+00 0.  1.
         12    1    6    6    0    0 -0.52519303171E+02  0.94478276368E+02  0.59770578058E+01  0.10825962835E+03  0.00000000000E+00 0. -1.
         -5    1    3    3    0  503  0.11608346570E+03 -0.12221122247E+03  0.20919717820E+03  0.26869407004E+03  0.47000000000E+01 0.  1.
         11    1    4    4    0    0  0.10005207887E+02 -0.73738007293E+02  0.44542624406E+02  0.86726254925E+02  0.00000000000E+00 0. -1.
        -12    1    4    4    0    0  0.10081109987E+02 -0.15508014791E+03  0.26252598368E+03  0.30507601211E+03  0.00000000000E+00 0.  1.
</event>
<event>
12    1  0.8494789E-002  0.2573719E+03  0.7818608E-02  0.1108829E+00
         21   -1    0    0  503  502  0.00000000000E+00  0.00000000000E+00  0.38703674590E+03  0.38703674590E+03  0.00000000000E+00 0.  1.
         21   -1    0    0  501  503 -0.00000000000E+00 -0.00000000000E+00 -0.20189846711E+03  0.20189846711E+03  0.00000000000E+00 0. -1.
          6    2    1    2  501    0 -0.14423733855E+03  0.12456276242E+03 -0.23040021933E+02  0.25840111107E+03  0.17297398641E+03 0.  0.
         24    2    3    3    0    0 -0.50070845231E+02  0.60338874887E+02  0.51163138831E+02  0.12231204001E+03  0.78706410102E+02 0.  0.
         -6    2    1    2    0  502  0.14423733855E+03 -0.12456276242E+03  0.20817830073E+03  0.33053410195E+03  0.17202992775E+03 0.  0.
        -24    2    5    5    0    0  0.75544886098E+01 -0.40765524515E+02  0.44113897533E+02  0.10109261280E+03  0.80961608922E+02 0.  0.
          5    1    3    3  501    0 -0.94166493322E+02  0.64223887532E+02 -0.74203160764E+02  0.13608907106E+03  0.47000000000E+01 0. -1.
        -13    1    4    4    0    0 -0.59298245062E+01 -0.19096651530E+02  0.62975417606E+01  0.20964349515E+02  0.00000000000E+00 0.  1.
         14    1    4    4    0    0 -0.44141020724E+02  0.79435526417E+02  0.44865597071E+02  0.10134769049E+03  0.00000000000E+00 0. -1.
         -5    1    5    5    0  502  0.13668284994E+03 -0.83797237904E+02  0.16406440319E+03  0.22944148915E+03  0.47000000000E+01 0.  1.
         13    1    6    6    0    0 -0.28002005846E+02 -0.48640111495E+01  0.41753257694E+02  0.50508469230E+02  0.00000000000E+00 0. -1.
        -14    1    6    6    0    0  0.35556494456E+02 -0.35901513366E+02  0.23606398393E+01  0.50584143567E+02  0.00000000000E+00 0.  1.
</event>
<event>
12    1  0.8494789E-002  0.2200810E+03  0.7818608E-02  0.1136686E+00
         21   -1    0    0  501  502  0.00000000000E+00  0.00000000000E+00  0.13838946466E+03  0.13838946466E+03  0.00000000000E+00 0. -1.
         21   -1    0    0  502  503 -0.00000000000E+00 -0.00000000000E+00 -0.37632788722E+03  0.37632788722E+03  0.00000000000E+00 0. -1.
         -6    2    1    2    0  503  0.98289103684E+02  0.53505182766E+02 -0.20864783802E+03  0.29269575467E+03  0.17208524633E+03 0.  0.
        -24    2    3    3    0    0 -0.10671371313E+02  0.73438829892E+01 -0.51802593400E+02  0.96161351908E+02  0.79973033798E+02 0.  0.
          6    2    1    2  501    0 -0.98289103684E+02 -0.53505182766E+02 -0.29290584540E+02  0.22202159721E+03  0.18950487803E+03 0.  0.
         24    2    5    5    0    0 -0.21075515213E+02 -0.69940765151E+02  0.41502207143E+02  0.11588123746E+03  0.79813156973E+02 0.  0.
          5    1    5    5  501    0 -0.77213588471E+02  0.16435582385E+02 -0.70792791684E+02  0.10614035975E+03  0.47000000000E+01 0. -1.
        -11    1    6    6    0    0 -0.18999676381E+01 -0.73965085439E+02  0.46393684582E+01  0.74134792647E+02  0.00000000000E+00 0.  1.
         12    1    6    6    0    0 -0.19175547575E+02  0.40243202880E+01  0.36862838685E+02  0.41746444813E+02  0.00000000000E+00 0. -1.
         -5    1    3    3    0  503  0.10896047500E+03  0.46161299777E+02 -0.15684524462E+03  0.19653440276E+03  0.47000000000E+01 0.  1.
         13    1    4    4    0    0  0.80238441896E+00 -0.27574147744E+02 -0.52603455285E+02  0.59397819425E+02  0.00000000000E+00 0. -1.
        -14    1    4    4    0    0 -0.11473755732E+02  0.34918030733E+02  0.80086188497E+00  0.36763532483E+02  0.00000000000E+00 0.  1.
</event>
<event>
12    1  0.8494789E-002  0.2016342E+03  0.7818608E-02  0.1148696E+00
         21   -1    0    0  501  502  0.00000000000E+00  0.00000000000E+00  0.56372426298E+02  0.56372426298E+02  0.00000000000E+00 0.  1.
         21   -1    0    0  502  503 -0.00000000000E+00 -0.00000000000E+00 -0.14827313141E+04  0.14827313141E+04  0.00000000000E+00 0.  1.
         -6    2    1    2    0  503  0.94563229467E+02 -0.44974651940E+02 -0.12680426316E+04  0.12839737057E+04  0.17231203610E+03 0.  0.
        -24    2    3    3    0    0 -0.65149795946E+00 -0.14814812367E+01 -0.81899809908E+03  0.82286571144E+03  0.79671033214E+02 0.  0.
          6    2    1    2  501    0 -0.94563229467E+02  0.44974651940E+02 -0.15831625625E+03  0.25513003471E+03  0.17047690147E+03 0.  0.
         24    2    5    5    0    0 -0.11339140226E+03  0.77297330678E+02 -0.14417627632E+03  0.21486485517E+03  0.80917364623E+02 0.  0.
          5    1    5    5  501    0  0.18828172788E+02 -0.32322678738E+02 -0.14139979933E+02  0.40265179546E+02  0.47000000000E+01 0. -1.
        -11    1    6    6    0    0 -0.85470461541E+01  0.80595961239E+01  0.10383743583E+02  0.15679005658E+02  0.00000000000E+00 0.  1.
         12    1    6    6    0    0 -0.10484435610E+03  0.69237734554E+02 -0.15456001990E+03  0.19918584951E+03  0.00000000000E+00 0. -1.
         -5    1    3    3    0  503  0.95214727426E+02 -0.43493170703E+02 -0.44904453251E+03  0.46110799429E+03  0.47000000000E+01 0.  1.
         13    1    4    4    0    0  0.10857316654E+02  0.37374754063E+02 -0.36918799425E+03  0.37123379246E+03  0.00000000000E+00 0. -1.
        -14    1    4    4    0    0 -0.11508814614E+02 -0.38856235300E+02 -0.44981010483E+03  0.45163191898E+03  0.00000000000E+00 0.  1.
</event>
<event>
12    1  0.8494789E-002  0.2526674E+03  0.7818608E-02  0.1111679E+00
         21   -1    0    0  501  502  0.00000000000E+00  0.00000000000E+00  0.11493944771E+04  0.11493944771E+04  0.00000000000E+00 0. -1.
         21   -1    0    0  502  503 -0.00000000000E+00 -0.00000000000E+00 -0.11901163082E+03  0.11901163082E+03  0.00000000000E+00 0. -1.
         -6    2    1    2    0  503  0.18554326387E+03 -0.82318309619E+01  0.51657447545E+02  0.25759246894E+03  0.17085468200E+03 0.  0.
        -24    2    3    3    0    0  0.18796181703E+03 -0.13094356569E+02 -0.16315692606E+01  0.20382163236E+03  0.77714149069E+02 0.  0.
          6    2    1    2  501    0 -0.18554326387E+03  0.82318309619E+01  0.97872539876E+03  0.10108136390E+04  0.17130890460E+03 0.  0.
         24    2    5    5    0    0 -0.63632470663E+02 -0.47447803762E+02  0.34015028816E+03  0.35830867725E+03  0.79890576755E+02 0.  0.
          5    1    5    5  501    0 -0.12191079321E+03  0.55679634723E+02  0.63857511060E+03  0.65250496174E+03  0.47000000000E+01 0. -1.
        -11    1    6    6    0    0 -0.70854402059E+02 -0.31711941211E+02  0.16548693933E+03  0.18278927922E+03  0.00000000000E+00 0.  1.
         12    1    6    6    0    0  0.72219313968E+01 -0.15735862550E+02  0.17466334883E+03  0.17551939804E+03  0.00000000000E+00 0. -1.
         -5    1    3    3    0  503 -0.24185531601E+01  0.48625256075E+01  0.53289016806E+02  0.53770836583E+02  0.47000000000E+01 0.  1.
         13    1    4    4    0    0  0.11091513759E+03 -0.18130524574E+02 -0.37780260544E+02  0.11856741439E+03  0.00000000000E+00 0. -1.
        -14    1    4    4    0    0  0.77046679438E+02  0.50361680042E+01  0.36148691283E+02  0.85254217972E+02  0.00000000000E+00 0.  1.
</event>
<event>
12    1  0.8494789E-002  0.2051065E+03  0.7818608E-02  0.1149551E+00
         21   -1    0    0  501  502  0.00000000000E+00  0.00000000000E+00  0.17261361145E+03  0.17261361145E+03  0.00000000000E+00 0. -1.
         21   -1    0    0  502  503 -0.00000000000E+00 -0.00000000000E+00 -0.30028264717E+03  0.30028264717E+03  0.00000000000E+00 0. -1.
         -6    2    1    2    0  503  0.35068996533E+02  0.62648342116E+02 -0.18231312612E+03  0.26063548484E+03  0.17186660732E+03 0.  0.
        -24    2    3    3    0    0 -0.23468897466E+02  0.82450528700E+02 -0.15068464667E+03  0.19105630447E+03  0.80298006865E+02 0.  0.
          6    2    1    2  501    0 -0.35068996533E+02 -0.62648342116E+02  0.54644090392E+02  0.21226077379E+03  0.19213019072E+03 0.  0.
         24    2    5    5    0    0 -0.95515829542E+02 -0.72320692235E+02  0.33027877726E+02  0.14717064683E+03  0.78834017796E+02 0.  0.
          5    1    5    5  501    0  0.60446833008E+02  0.96723501191E+01  0.21616212666E+02  0.65090126959E+02  0.47000000000E+01 0. -1.
        -11    1    6    6    0    0 -0.12882359881E+02  0.14962865214E+02 -0.62682457325E+01  0.20715536104E+02  0.00000000000E+00 0.  1.
         12    1    6    6    0    0 -0.82633469660E+02 -0.87283557449E+02  0.39296123459E+02  0.12645511072E+03  0.00000000000E+00 0. -1.
         -5    1    3    3    0  503  0.58537894000E+02 -0.19802186583E+02 -0.31628479453E+02  0.69579180363E+02  0.47000000000E+01 0.  1.
         11    1    4    4    0    0 -0.24461665983E+02  0.97014943304E+02 -0.11459449535E+03  0.15212550967E+03  0.00000000000E+00 0. -1.
        -12    1    4    4    0    0  0.99276851638E+00 -0.14564414605E+02 -0.36090151318E+02  0.38930794806E+02  0.00000000000E+00 0.  1.
</event>
<event>
12    1  0.8494789E-002  0.1745725E+03  0.7818608E-02  0.1173743E+00
         21   -1    0    0  501  502  0.00000000000E+00  0.00000000000E+00  0.44547944599E+02  0.44547944599E+02  0.00000000000E+00 0.  1.
         21   -1    0    0  502  503 -0.00000000000E+00 -0.00000000000E+00 -0.78576937148E+03  0.78576937148E+03  0.00000000000E+00 0.  1.
         -6    2    1    2    0  503 -0.10670892306E+01 -0.72677811627E+01 -0.52427124272E+03  0.55185197686E+03  0.17212294760E+03 0.  0.
        -24    2    3    3    0    0 -0.84028659108E+01  0.60719803561E+02 -0.23566972525E+03  0.25522249218E+03  0.76425116366E+02 0.  0.
          6    2    1    2  501    0  0.10670892306E+01  0.72677811627E+01 -0.21695018415E+03  0.27846533922E+03  0.17441789879E+03 0.  0.
         24    2    5    5    0    0 -0.28490897171E+02  0.33923225559E+02 -0.21914144044E+03  0.23832709212E+03  0.82548867131E+02 0.  0.
          5    1    5    5  501    0  0.29557986401E+02 -0.26655444396E+02  0.21912562890E+01  0.40138247099E+02  0.47000000000E+01 0. -1.
        -11    1    6    6    0    0 -0.31659751874E+02  0.38836238592E+02 -0.56248181017E+02  0.75328953162E+02  0.00000000000E+00 0.  1.
         12    1    6    6    0    0  0.31688547030E+01 -0.49130130334E+01 -0.16289325943E+03  0.16299813896E+03  0.00000000000E+00 0. -1.
         -5    1    3    3    0  503  0.73357766802E+01 -0.67987584724E+02 -0.28860151747E+03  0.29662948468E+03  0.47000000000E+01 0.  1.
         13    1    4    4    0    0 -0.37945383266E+02  0.38217295980E+02 -0.18311864428E+03  0.19087391573E+03  0.00000000000E+00 0. -1.
        -14    1    4    4    0    0  0.29542517356E+02  0.22502507581E+02 -0.52551080973E+02  0.64348576446E+02  0.00000000000E+00 0.  1.
</event>
<event>
12    1  0.8494789E-002  0.2093662E+03  0.7818608E-02  0.1142130E+00
         21   -1    0    0  501  502  0.00000000000E+00  0.00000000000E+00  0.34633881151E+03  0.34633881151E+03  0.00000000000E+00 0.  1.
         21   -1    0    0  502  503 -0.00000000000E+00 -0.00000000000E+00 -0.12773287762E+03  0.12773287762E+03  0.00000000000E+00 0.  1.
         -6    2    1    2    0  503  0.13684612960E+02  0.11745824774E+03  0.84804718940E+02  0.22560239315E+03  0.17239747923E+03 0.  0.
        -24    2    3    3    0    0  0.18651129758E+02 -0.76464646801E+01  0.49778410853E+02  0.95507091087E+02  0.78977092865E+02 0.  0.
          6    2    1    2  501    0 -0.13684612960E+02 -0.11745824774E+03  0.13380121495E+03  0.24846929598E+03  0.17277302257E+03 0.  0.
         24    2    5    5    0    0 -0.42787903659E+01 -0.72082919519E+02  0.12175995773E+01  0.10794209230E+03  0.80223172510E+02 0.  0.
          5    1    5    5  501    0 -0.94058225946E+01 -0.45375328225E+02  0.13258361537E+03  0.14052720368E+03  0.47000000000E+01 0. -1.
        -11    1    6    6    0    0 -0.25133887714E+02 -0.34057389455E+02  0.33415171321E+02  0.53927653042E+02  0.00000000000E+00 0.  1.
         12    1    6    6    0    0  0.20855097349E+02 -0.38025530063E+02 -0.32197571744E+02  0.54014439257E+02  0.00000000000E+00 0. -1.
         -5    1    3    3    0  503 -0.49665167978E+01  0.12510471242E+03  0.35026308088E+02  0.13009530206E+03  0.47000000000E+01 0.  1.
         13    1    4    4    0    0  0.35967891969E+02  0.23313139994E+02  0.13917652231E+02  0.45065427910E+02  0.00000000000E+00 0. -1.
        -14    1    4    4    0    0 -0.17316762211E+02 -0.30959604674E+02  0.35860758622E+02  0.50441663177E+02  0.00000000000E+00 0.  1.
</event>
<event>
12    1  0.8494789E-002  0.2054064E+03  0.7818608E-02  0.1145453E+00
         21   -1    0    0  501  502  0.00000000000E+00  0.00000000000E+00  0.32872639369E+03  0.32872639369E+03  0.00000000000E+00 0.  1.
         21   -1    0    0  502  503 -0.00000000000E+00 -0.00000000000E+00 -0.50136489203E+03  0.50136489203E+03  0.00000000000E+00 0.  1.
         -6    2    1    2    0  503 -0.82816400223E+02  0.75677201257E+02 -0.44465853801E+03  0.48980917015E+03  0.17206455999E+03 0.  0.
        -24    2    3    3    0    0 -0.91368004032E+02 -0.94106785809E+01 -0.19643172266E+03  0.22722257666E+03  0.67882285208E+02 0.  0.
          6    2    1    2  501    0  0.82816400223E+02 -0.75677201257E+02  0.27202003967E+03  0.34028211557E+03  0.17091349057E+03 0.  0.
         24    2    5    5    0    0  0.12087402965E+03 -0.70218611022E+02  0.19208476760E+03  0.25145691033E+03  0.82418659497E+02 0.  0.
          5    1    5    5  501    0 -0.38057629422E+02 -0.54585902357E+01  0.79935272065E+02  0.88825205233E+02  0.47000000000E+01 0. -1.
        -13    1    6    6    0    0  0.36533031449E+02  0.12069060160E+02  0.21331099994E+02  0.43992504213E+02  0.00000000000E+00 0.  1.
         14    1    6    6    0    0  0.84340998197E+02 -0.82287671182E+02  0.17075366761E+03  0.20746440612E+03  0.00000000000E+00 0. -1.
         -5    1    3    3    0  503  0.85516038091E+01  0.85087879838E+02 -0.24822681534E+03  0.26258659349E+03  0.47000000000E+01 0.  1.
         11    1    4    4    0    0 -0.58381546604E+02  0.35594686358E+01 -0.51217479540E+02  0.77745128538E+02  0.00000000000E+00 0. -1.
        -12    1    4    4    0    0 -0.32986457428E+02 -0.12970147217E+02 -0.14521424312E+03  0.14947744813E+03  0.00000000000E+00 0.  1.
</event>
<event>
12    1  0.8494789E-002  0.1814423E+03  0.7818608E-02  0.1167062E+00
         21   -1    0    0  503  502  0.00000000000E+00  0.00000000000E+00  0.13468719657E+03  0.13468719657E+03  0.00000000000E+00 0. -1.
         21   -1    0    0  501  503 -0.00000000000E+00 -0.00000000000E+00 -0.24695104555E+03  0.24695104555E+03  0.00000000000E+00 0.  1.
          6    2    1    2  501    0  0.36657073890E+02 -0.22371614350E+02 -0.25672416091E+02  0.18059249869E+03  0.17352333399E+03 0.  0.
         24    2    3    3    0    0  0.50976002893E+02 -0.60494193707E+02  0.24878412505E+02  0.11550917474E+03  0.80407298780E+02 0.  0.
         -6    2    1    2    0  502 -0.36657073890E+02  0.22371614350E+02 -0.86591432894E+02  0.20104574343E+03  0.17628693799E+03 0.  0.
        -24    2    5    5    0    0 -0.65764686075E+02 -0.18725797738E+02 -0.17027017941E+01  0.10223057741E+03  0.75977248754E+02 0.  0.
          5    1    3    3  501    0 -0.14318929003E+02  0.38122579358E+02 -0.50550828596E+02  0.65083323950E+02  0.47000000000E+01 0. -1.
        -13    1    4    4    0    0  0.51380767429E+02 -0.64935732969E+02 -0.72046279420E+01  0.83117623532E+02  0.00000000000E+00 0.  1.
         14    1    4    4    0    0 -0.40476453561E+00  0.44415392617E+01  0.32083040447E+02  0.32391551208E+02  0.00000000000E+00 0. -1.
         -5    1    5    5    0  502  0.29107612185E+02  0.41097412087E+02 -0.84888731100E+02  0.98815166018E+02  0.47000000000E+01 0.  1.
         13    1    6    6    0    0  0.17351430801E+02 -0.29306026499E+01  0.38046286571E+00  0.17601287871E+02  0.00000000000E+00 0. -1.
        -14    1    6    6    0    0 -0.83116116877E+02 -0.15795195088E+02 -0.20831646599E+01  0.84629289537E+02  0.00000000000E+00 0.  1.
</event>
<event>
12    1  0.8494789E-002  0.2271336E+03  0.7818608E-02  0.1129164E+00
         21   -1    0    0  501  502  0.00000000000E+00  0.00000000000E+00  0.56388188953E+02  0.56388188953E+02  0.00000000000E+00 0.  1.
         21   -1    0    0  502  503 -0.00000000000E+00 -0.00000000000E+00 -0.10170784213E+04  0.10170784213E+04  0.00000000000E+00 0.  1.
         -6    2    1    2    0  503  0.12543016319E+03  0.69618662466E+02 -0.66190358782E+03  0.69978997908E+03  0.17609705068E+03 0.  0.
        -24    2    3    3    0    0  0.12558863541E+03  0.16864721882E+02 -0.31663572969E+03  0.35048354167E+03  0.80768827388E+02 0.  0.
          6    2    1    2  501    0 -0.12543016319E+03 -0.69618662466E+02 -0.29878664456E+03  0.37367663120E+03  0.17257254051E+03 0.  0.
         24    2    5    5    0    0 -0.69278114244E+02  0.26839138304E+02 -0.11273286915E+03  0.15666221400E+03  0.79464162047E+02 0.  0.
          5    1    5    5  501    0 -0.56152048942E+02 -0.96457800770E+02 -0.18605377541E+03  0.21701441720E+03  0.47000000000E+01 0. -1.
        -11    1    6    6    0    0 -0.69528358016E+02 -0.12397701951E+01 -0.43683817249E+02  0.82121894084E+02  0.00000000000E+00 0.  1.
         12    1    6    6    0    0  0.25024377178E+00  0.28078908499E+02 -0.69049051900E+02  0.74540319913E+02  0.00000000000E+00 0. -1.
         -5    1    3    3    0  503 -0.15847222256E+00  0.52753940584E+02 -0.34526785813E+03  0.34930643741E+03  0.47000000000E+01 0.  1.
         13    1    4    4    0    0  0.91230561224E+02  0.18420823859E+01 -0.29122550000E+03  0.30518633721E+03  0.00000000000E+00 0. -1.
        -14    1    4    4    0    0  0.34358074185E+02  0.15022639496E+02 -0.25410229689E+02  0.45297204461E+02  0.00000000000E+00 0.  1.
</event>
<event>
12    1  0.8494789E-002  0.2098701E+03  0.7818608E-02  0.1141697E+00
         21   -1    0    0  501  502  0.00000000000E+00  0.00000000000E+00  0.10000559584E+03  0.10000559584E+03  0.00000000000E+00 0.  1.
         21   -1    0    0  502  503 -0.00000000000E+00 -0.00000000000E+00 -0.68915548407E+03  0.68915548407E+03  0.00000000000E+00 0. -1.
         -6    2    1    2    0  503 -0.10985557324E+03  0.43069097614E+02 -0.53182788198E+03  0.57173975170E+03  0.17355763734E+03 0.  0.
        -24    2    3    3    0    0 -0.13585648070E+03  0.16810303944E+02 -0.32426585458E+03  0.36086145350E+03  0.79580616404E+02 0.  0.
          6    2    1    2  501    0  0.10985557324E+03 -0.43069097614E+02 -0.57322006255E+02  0.21742132821E+03  0.17338692978E+03 0.  0.
         24    2    5    5    0    0  0.90101669870E+02 -0.34577577772E+01 -0.96387945197E+02  0.15819707197E+03  0.87209005254E+02 0.  0.
          5    1    5    5  501    0  0.19753903374E+02 -0.39611339837E+02  0.39065938943E+02  0.59224256244E+02  0.47000000000E+01 0. -1.
        -11    1    6    6    0    0  0.62972781625E+02 -0.42705913355E+02 -0.46525874193E+02  0.89185330803E+02  0.00000000000E+00 0.  1.
         12    1    6    6    0    0  0.27128888246E+02  0.39248155577E+02 -0.49862071004E+02  0.69011741164E+02  0.00000000000E+00 0. -1.
         -5    1    3    3    0  503  0.26000907458E+02  0.26258793670E+02 -0.20756202741E+03  0.21087829821E+03  0.47000000000E+01 0.  1.
         11    1    4    4    0    0 -0.68628472256E+02  0.35270759814E+02 -0.23653780520E+03  0.24880519888E+03  0.00000000000E+00 0. -1.
        -12    1    4    4    0    0 -0.67228008446E+02 -0.18460455870E+02 -0.87728049376E+02  0.11205625461E+03  0.00000000000E+00 0.  1.
</event>
<event>
12    1  0.8494789E-002  0.1871990E+03  0.7818608E-02  0.1161060E+00
         21   -1    0    0  501  502  0.00000000000E+00  0.00000000000E+00  0.23175642630E+02  0.23175642630E+02  0.00000000000E+00 0. -1.
         21   -1    0    0  502  503 -0.00000000000E+00 -0.00000000000E+00 -0.15188218035E+04  0.15188218035E+04  0.00000000000E+00 0. -1.
         -6    2    1    2    0  503 -0.77548117892E+02  0.24217205083E+01 -0.80564052578E+03  0.82710344566E+03  0.17036395663E+03 0.  0.
        -24    2    3    3    0    0  0.90194551777E+01 -0.26597739189E+02 -0.10266431226E+03  0.11820731749E+03  0.51421966078E+02 0.  0.
          6    2    1    2  501    0  0.77548117892E+02 -0.24217205083E+01 -0.69000563513E+03  0.71489400052E+03  0.17013547585E+03 0.  0.
         24    2    5    5    0    0 -0.25436369101E+02 -0.68148347500E+00 -0.33578367937E+03  0.34597108590E+03  0.79358929267E+02 0.  0.
          5    1    5    5  501    0  0.10298448699E+03 -0.17402370333E+01 -0.35422195577E+03  0.36892291462E+03  0.47000000000E+01 0. -1.
        -13    1    6    6    0    0  0.78517656706E+01 -0.34113058131E+02 -0.11531041214E+03  0.12050660607E+03  0.00000000000E+00 0.  1.
         14    1    6    6    0    0 -0.33288134772E+02  0.33431574656E+02 -0.22047326723E+03  0.22546447982E+03  0.00000000000E+00 0. -1.
         -5    1    3    3    0  503 -0.86567573070E+02  0.29019459698E+02 -0.70297621353E+03  0.70889612817E+03  0.47000000000E+01 0.  1.
         13    1    4    4    0    0 -0.75235878989E+01 -0.13844801078E+02 -0.94461003736E+02  0.95766195072E+02  0.00000000000E+00 0. -1.
        -14    1    4    4    0    0  0.16543043077E+02 -0.12752938111E+02 -0.82033085212E+01  0.22441122418E+02  0.00000000000E+00 0.  1.
</event>
<event>
12    1  0.8494789E-002  0.1895879E+03  0.7818608E-02  0.1160735E+00
         21   -1    0    0  501  502  0.00000000000E+00  0.00000000000E+00  0.16632579764E+03  0.16632579764E+03  0.00000000000E+00 0. -1.
         21   -1    0    0  502  503 -0.00000000000E+00 -0.00000000000E+00 -0.26681636926E+03  0.26681636926E+03  0.00000000000E+00 0. -1.
         -6    2    1    2    0  503 -0.55362314018E+02  0.21699648588E+02 -0.15203935283E+03  0.23667118067E+03  0.17135175047E+03 0.  0.
        -24    2    3    3    0    0 -0.89606859067E+02  0.20168210377E+02 -0.16152059204E+03  0.20079614666E+03  0.76118624255E+02 0.  0.
          6    2    1    2  501    0  0.55362314018E+02 -0.21699648588E+02  0.51548781214E+02  0.19647098622E+03  0.18002141822E+03 0.  0.
         24    2    5    5    0    0 -0.41701855505E+02 -0.13156373308E+02  0.28201986286E+02  0.96163442181E+02  0.80869776001E+02 0.  0.
          5    1    5    5  501    0  0.97064169523E+02 -0.85432752799E+01  0.23346794928E+02  0.10030754404E+03  0.47000000000E+01 0. -1.
        -11    1    6    6    0    0  0.19413780381E+02 -0.10834543036E+02 -0.96515784918E+01  0.24237061680E+02  0.00000000000E+00 0.  1.
         12    1    6    6    0    0 -0.61115635886E+02 -0.23218302717E+01  0.37853564778E+02  0.71926380501E+02  0.00000000000E+00 0. -1.
         -5    1    3    3    0  503  0.34244545049E+02  0.15314382113E+01  0.94812392092E+01  0.35875034015E+02  0.47000000000E+01 0.  1.
         11    1    4    4    0    0 -0.76319330390E+02  0.18077939958E+01 -0.16093606831E+03  0.17812446882E+03  0.00000000000E+00 0. -1.
        -12    1    4    4    0    0 -0.13287528677E+02  0.18360416381E+02 -0.58452373294E+00  0.22671677838E+02  0.00000000000E+00 0.  1.
</event>
<event>
12    1  0.8494789E-002  0.2345127E+03  0.7818608E-02  0.1123746E+00
         21   -1    0    0  501  502  0.00000000000E+00  0.00000000000E+00  0.17601009773E+04  0.17601009773E+04  0.00000000000E+00 0. -1.
         21   -1    0    0  502  503 -0.00000000000E+00 -0.00000000000E+00 -0.53166906398E+02  0.53166906398E+02  0.00000000000E+00 0. -1.
         -6    2    1    2    0  503 -0.15731417360E+03  0.26575450394E+02  0.26731760128E+03  0.35467548739E+03  0.16994704358E+03 0.  0.
        -24    2    3    3    0    0 -0.54971680529E+02  0.63481327682E+02  0.18356641479E+03  0.21729870294E+03  0.80438380367E+02 0.  0.
          6    2    1    2  501    0  0.15731417360E+03 -0.26575450394E+02  0.14396164696E+04  0.14585923963E+04  0.17187843141E+03 0.  0.
         24    2    5    5    0    0  0.15434096550E+03  0.25301737830E+02  0.12389766904E+04  0.12512798457E+04  0.78591993140E+02 0.  0.
          5    1    5    5  501    0  0.29732081081E+01 -0.51877188224E+02  0.20063977915E+03  0.20731255051E+03  0.47000000000E+01 0. -1.
        -13    1    6    6    0    0  0.10239545310E+02  0.28499301790E+02  0.17808520297E+03  0.18064162867E+03  0.00000000000E+00 0.  1.
         14    1    6    6    0    0  0.14410142019E+03 -0.31975639592E+01  0.10608914875E+04  0.10706382171E+04  0.00000000000E+00 0. -1.
         -5    1    3    3    0  503 -0.10234249307E+03 -0.36905877288E+02  0.83751186492E+02  0.13737678445E+03  0.47000000000E+01 0.  1.
         11    1    4    4    0    0 -0.63109663736E+02  0.55726618999E+02  0.90694088282E+02  0.12374854897E+03  0.00000000000E+00 0. -1.
        -12    1    4    4    0    0  0.81379832073E+01  0.77547086833E+01  0.92872326510E+02  0.93550153975E+02  0.00000000000E+00 0.  1.
</event>
<event>
12    1  0.8494789E-002  0.3447892E+03  0.7818608E-02  0.1064842E+00
         21   -1    0    0  503  502  0.00000000000E+00  0.00000000000E+00  0.41372808460E+03  0.41372808460E+03  0.00000000000E+00 0. -1.
         21   -1    0    0  501  503 -0.00000000000E+00 -0.00000000000E+00 -0.41815872932E+03  0.41815872932E+03  0.00000000000E+00 0.  1.
          6    2    1    2  501    0  0.24027632942E+03  0.17595504515E+03 -0.23534163084E+03  0.41691754572E+03  0.17245771751E+03 0.  0.
         24    2    3    3    0    0  0.22600734814E+03  0.20159855697E+03 -0.22350048677E+03  0.38492541828E+03  0.80584182472E+02 0.  0.
         -6    2    1    2    0  502 -0.24027632942E+03 -0.17595504515E+03  0.23091098612E+03  0.41496926820E+03  0.17374325210E+03 0.  0.
        -24    2    5    5    0    0 -0.21149828604E+03 -0.19428905299E+03  0.16543606639E+03  0.34098706266E+03  0.80145640705E+02 0.  0.
          5    1    3    3  501    0  0.14268981277E+02 -0.25643511820E+02 -0.11841144069E+02  0.31992127438E+02  0.47000000000E+01 0. -1.
        -11    1    4    4    0    0  0.14826124248E+02 -0.10521275587E+01 -0.31649811666E+02  0.34966148074E+02  0.00000000000E+00 0.  1.
         12    1    4    4    0    0  0.21118122390E+03  0.20265068453E+03 -0.19185067511E+03  0.34995927021E+03  0.00000000000E+00 0. -1.
         -5    1    5    5    0  502 -0.28778043377E+02  0.18334007847E+02  0.65474919725E+02  0.73982205545E+02  0.47000000000E+01 0.  1.
         13    1    6    6    0    0 -0.47644396994E+02 -0.93499653288E+02  0.46187603694E+02  0.11465368928E+03  0.00000000000E+00 0. -1.
        -14    1    6    6    0    0 -0.16385388905E+03 -0.10078939971E+03  0.11924846270E+03  0.22633337338E+03  0.00000000000E+00 0.  1.
</event>
<event>
12    1  0.8494789E-002  0.1923971E+03  0.7818608E-02  0.1156905E+00
         21   -1    0    0  501  502  0.00000000000E+00  0.00000000000E+00  0.67061972806E+03  0.67061972806E+03  0.00000000000E+00 0.  1.
         21   -1    0    0  502  503 -0.00000000000E+00 -0.00000000000E+00 -0.54642084850E+02  0.54642084850E+02  0.00000000000E+00 0. -1.
         -6    2    1    2    0  503  0.51717482669E+02 -0.59888932373E+02  0.33182725929E+03  0.38357002074E+03  0.17537174392E+03 0.  0.
        -24    2    3    3    0    0 -0.23729521546E+02  0.15441069740E+02  0.12410394017E+03  0.15003645362E+03  0.79420605772E+02 0.  0.
          6    2    1    2  501    0 -0.51717482669E+02  0.59888932373E+02  0.28415038392E+03  0.34169179218E+03  0.17248321056E+03 0.  0.
         24    2    5    5    0    0 -0.47040643175E+02  0.15926991164E+02  0.28182751559E+03  0.29717201208E+03  0.80112202963E+02 0.  0.
          5    1    5    5  501    0 -0.46768394938E+01  0.43961941209E+02  0.23228683312E+01  0.44519780096E+02  0.47000000000E+01 0. -1.
        -13    1    6    6    0    0  0.22503622892E+02  0.45086782033E+01  0.87494339746E+02  0.90454412331E+02  0.00000000000E+00 0.  1.
         14    1    6    6    0    0 -0.69544266067E+02  0.11418312961E+02  0.19433317584E+03  0.20671759975E+03  0.00000000000E+00 0. -1.
         -5    1    3    3    0  503  0.75447004215E+02 -0.75330002113E+02  0.20772331913E+03  0.23353356712E+03  0.47000000000E+01 0.  1.
         11    1    4    4    0    0  0.12415020680E+02  0.19873074989E+02  0.10748265888E+03  0.11000724435E+03  0.00000000000E+00 0. -1.
        -12    1    4    4    0    0 -0.36144542227E+02 -0.44320052491E+01  0.16621281284E+02  0.40029209271E+02  0.00000000000E+00 0.  1.
</event>
<event>
12    1  0.8494789E-002  0.2148153E+03  0.7818608E-02  0.1137869E+00
         21   -1    0    0  501  502  0.00000000000E+00  0.00000000000E+00  0.81843852868E+02  0.81843852868E+02  0.00000000000E+00 0.  1.
         21   -1    0    0  502  503 -0.00000000000E+00 -0.00000000000E+00 -0.59440892704E+03  0.59440892704E+03  0.00000000000E+00 0.  1.
         -6    2    1    2    0  503 -0.66909895723E+01 -0.12863802080E+03 -0.33383190655E+03  0.39680483715E+03  0.17151625934E+03 0.  0.
        -24    2    3    3    0    0  0.57990329897E+02 -0.85461326263E+02 -0.15890594108E+03  0.20531310512E+03  0.78967438709E+02 0.  0.
          6    2    1    2  501    0  0.66909895723E+01  0.12863802080E+03 -0.17873316762E+03  0.27944794275E+03  0.17191014445E+03 0.  0.
         24    2    5    5    0    0 -0.50103711309E+02  0.71457573000E+02 -0.52119389143E+02  0.12928676082E+03  0.79887853726E+02 0.  0.
          5    1    5    5  501    0  0.56794700881E+02  0.57180447805E+02 -0.12661377847E+03  0.15016118193E+03  0.47000000000E+01 0. -1.
        -13    1    6    6    0    0 -0.33290021767E+02  0.81255398313E+02 -0.17447452569E+02  0.89526973061E+02  0.00000000000E+00 0.  1.
         14    1    6    6    0    0 -0.16813689542E+02 -0.97978253135E+01 -0.34671936575E+02  0.39759787760E+02  0.00000000000E+00 0. -1.
         -5    1    3    3    0  503 -0.64681319469E+02 -0.43176694541E+02 -0.17492596547E+03  0.19149173203E+03  0.47000000000E+01 0.  1.
         11    1    4    4    0    0  0.19295325919E+02  0.84826871402E+01 -0.59697617827E+02  0.63309329151E+02  0.00000000000E+00 0. -1.
        -12    1    4    4    0    0  0.38695003978E+02 -0.93944013403E+02 -0.99208323250E+02  0.14200377597E+03  0.00000000000E+00 0.  1.
</event>
<event>
12    1  0.8494789E-002  0.1745001E+03  0.7818608E-02  0.1174579E+00
         21   -1    0    0  501  502  0.00000000000E+00  0.00000000000E+00  0.79040775083E+03  0.79040775083E+03  0.00000000000E+00 0. -1.
         21   -1    0    0  502  503 -0.00000000000E+00 -0.00000000000E+00 -0.40872557444E+02  0.40872557444E+02  0.00000000000E+00 0. -1.
         -6    2    1    2    0  503 -0.43505264259E+02  0.10340060632E+02  0.24795900642E+03  0.30021632844E+03  0.16323771050E+03 0.  0.
        -24    2    3    3    0    0 -0.24317723508E+02  0.63868192818E+02  0.19696733566E+03  0.22369402358E+03  0.81070260493E+02 0.  0.
          6    2    1    2  501    0  0.43505264259E+02 -0.10340060632E+02  0.50157618697E+03  0.53106397983E+03  0.16867321800E+03 0.  0.
         24    2    5    5    0    0 -0.26798022020E+01 -0.23628189568E+02  0.45893728017E+03  0.46664502992E+03  0.81047419078E+02 0.  0.
          5    1    5    5  501    0  0.46185066461E+02  0.13288128936E+02  0.42638906800E+02  0.64418949912E+02  0.47000000000E+01 0. -1.
        -13    1    6    6    0    0 -0.33754475718E+02  0.12281522713E+02  0.23486839093E+03  0.23759916139E+03  0.00000000000E+00 0.  1.
         14    1    6    6    0    0  0.31074673516E+02 -0.35909712281E+02  0.22406888923E+03  0.22904586853E+03  0.00000000000E+00 0. -1.
         -5    1    3    3    0  503 -0.19187540751E+02 -0.53528132187E+02  0.50991670760E+02  0.76522304868E+02  0.47000000000E+01 0.  1.
         11    1    4    4    0    0 -0.20912584130E+01 -0.16624663132E+01  0.12063796481E+03  0.12066754208E+03  0.00000000000E+00 0. -1.
        -12    1    4    4    0    0 -0.22226465095E+02  0.65530659132E+02  0.76329370846E+02  0.10302648150E+03  0.00000000000E+00 0.  1.
</event>
<event>
12    1  0.8494789E-002  0.2192007E+03  0.7818608E-02  0.1134963E+00
         21   -1    0    0  501  502  0.00000000000E+00  0.00000000000E+00  0.54738141593E+03  0.54738141593E+03  0.00000000000E+00 0. -1.
         21   -1    0    0  502  503 -0.00000000000E+00 -0.00000000000E+00 -0.14020190670E+03  0.14020190670E+03  0.00000000000E+00 0. -1.
         -6    2    1    2    0  503 -0.11854130491E+03 -0.66194041745E+02 -0.79302561482E+01  0.21934413593E+03  0.17209087388E+03 0.  0.
        -24    2    3    3    0    0 -0.10591737442E+02 -0.13016083496E+02 -0.45735465110E+02  0.93120809306E+02  0.79360878431E+02 0.  0.
          6    2    1    2  501    0  0.11854130491E+03  0.66194041745E+02  0.41510976537E+03  0.46823918670E+03  0.16881388130E+03 0.  0.
         24    2    5    5    0    0  0.74660705822E+02 -0.23442981513E+02  0.21793273168E+03  0.24719354542E+03  0.86522707891E+02 0.  0.
          5    1    5    5  501    0  0.43880599086E+02  0.89637023258E+02  0.19717703369E+03  0.22104564128E+03  0.47000000000E+01 0. -1.
        -13    1    6    6    0    0  0.12289335548E+02 -0.40063570287E+02  0.40069513749E+02  0.57980025564E+02  0.00000000000E+00 0.  1.
         14    1    6    6    0    0  0.62371370274E+02  0.16620588774E+02  0.17786321793E+03  0.18921351985E+03  0.00000000000E+00 0. -1.
         -5    1    3    3    0  503 -0.10794956747E+03 -0.53177958249E+02  0.37805208962E+02  0.12622332662E+03  0.47000000000E+01 0.  1.
         13    1    4    4    0    0 -0.42777035508E+02 -0.46704963974E+01 -0.97423016076E+01  0.44120298549E+02  0.00000000000E+00 0. -1.
        -14    1    4    4    0    0  0.32185298065E+02 -0.83455870989E+01 -0.35993163502E+02  0.49000510757E+02  0.00000000000E+00 0.  1.
</event>
<event>
12    1  0.8494789E-002  0.2974281E+03  0.7818608E-02  0.1087134E+00
         21   -1    0    0  503  502  0.00000000000E+00  0.00000000000E+00  0.43341657685E+03  0.43341657685E+03  0.00000000000E+00 0. -1.
         21   -1    0    0  501  503 -0.00000000000E+00 -0.00000000000E+00 -0.20985518445E+03  0.20985518445E+03  0.00000000000E+00 0.  1.
          6    2    1    2  501    0 -0.11821917255E+03  0.21098343675E+03  0.17913460812E+03  0.34720698955E+03  0.17312914957E+03 0.  0.
         24    2    3    3    0    0 -0.83050659909E+00  0.10245548347E+03  0.42270013649E+02  0.13670182868E+03  0.80017623534E+02 0.  0.
         -6    2    1    2    0  502  0.11821917255E+03 -0.21098343675E+03  0.44426784285E+02  0.29606477174E+03  0.16489641161E+03 0.  0.
        -24    2    5    5    0    0  0.29539752457E+02 -0.58809913165E+02  0.60766026602E+02  0.11911878657E+03  0.78521159335E+02 0.  0.
          5    1    3    3  501    0 -0.11738866595E+03  0.10852795328E+03  0.13686459447E+03  0.21050516088E+03  0.47000000000E+01 0. -1.
        -13    1    4    4    0    0 -0.32159467350E+02  0.76227130285E+02  0.75382962295E+01  0.83076065397E+02  0.00000000000E+00 0.  1.
         14    1    4    4    0    0  0.31328960751E+02  0.26228353180E+02  0.34731717419E+02  0.53625763278E+02  0.00000000000E+00 0. -1.
         -5    1    5    5    0  502  0.88679420094E+02 -0.15217352358E+03 -0.16339242317E+02  0.17694598517E+03  0.47000000000E+01 0.  1.
         13    1    6    6    0    0  0.17031978824E+02 -0.77823097022E+02  0.46049681325E+02  0.92016823912E+02  0.00000000000E+00 0. -1.
        -14    1    6    6    0    0  0.12507773633E+02  0.19013183857E+02  0.14716345277E+02  0.27101962659E+02  0.00000000000E+00 0.  1.
</event>
<event>
12    1  0.8494789E-002  0.1781909E+03  0.7818608E-02  0.1169936E+00
         21   -1    0    0  501  502  0.00000000000E+00  0.00000000000E+00  0.37513624539E+02  0.37513624539E+02  0.00000000000E+00 0.  1.
         21   -1    0    0  502  503 -0.00000000000E+00 -0.00000000000E+00 -0.10131388830E+04  0.10131388830E+04  0.00000000000E+00 0.  1.
         -6    2    1    2    0  503  0.34464041681E+02 -0.29420341561E+01 -0.70713448666E+03  0.72924013300E+03  0.17480149777E+03 0.  0.
        -24    2    3    3    0    0  0.19086063209E+02  0.12659299946E+02 -0.14833905750E+03  0.16999572713E+03  0.79809370247E+02 0.  0.
          6    2    1    2  501    0 -0.34464041681E+02  0.29420341561E+01 -0.26849077176E+03  0.32141237449E+03  0.17326913812E+03 0.  0.
         24    2    5    5    0    0 -0.17543872653E+02  0.18854849845E+02 -0.43688498774E+02  0.95364455321E+02  0.80761386709E+02 0.  0.
          5    1    5    5  501    0 -0.16920169029E+02 -0.15912815689E+02 -0.22480227298E+03  0.22604791917E+03  0.47000000000E+01 0. -1.
        -11    1    6    6    0    0 -0.43301008590E+02  0.15692894781E+02 -0.18039055201E+01  0.46092280987E+02  0.00000000000E+00 0.  1.
         12    1    6    6    0    0  0.25757135937E+02  0.31619550645E+01 -0.41884593254E+02  0.49272174334E+02  0.00000000000E+00 0. -1.
         -5    1    3    3    0  503  0.15377978473E+02 -0.15601334103E+02 -0.55879542916E+03  0.55924440587E+03  0.47000000000E+01 0.  1.
         11    1    4    4    0    0 -0.43811900065E+01  0.43538419376E+02 -0.87770065486E+02  0.98073305150E+02  0.00000000000E+00 0. -1.
        -12    1    4    4    0    0  0.23467253215E+02 -0.30879119429E+02 -0.60568992016E+02  0.71922421984E+02  0.00000000000E+00 0.  1.
</event>
<event>
12    1  0.8494789E-002  0.1936584E+03  0.7818608E-02  0.1155764E+00
         21   -1    0    0  503  502  0.00000000000E+00  0.00000000000E+00  0.11617308290E+04  0.11617308290E+04  0.00000000000E+00 0.  1.
         21   -1    0    0  501  503 -0.00000000000E+00 -0.00000000000E+00 -0.38711840077E+02  0.38711840077E+02  0.00000000000E+00 0.  1.
          6    2    1    2  501    0 -0.65302177758E+02  0.56007754982E+02  0.30596629930E+03  0.36075303976E+03  0.17066381091E+03 0.  0.
         24    2    3    3    0    0 -0.59474608043E+02  0.96631428055E+02  0.27904734653E+03  0.31144823877E+03  0.79105764252E+02 0.  0.
         -6    2    1    2    0  502  0.65302177758E+02 -0.56007754982E+02  0.81705268962E+03  0.83968962931E+03  0.17350023896E+03 0.  0.
        -24    2    5    5    0    0 -0.26823849469E+02 -0.24152487810E+02  0.26761767694E+03  0.28165478623E+03  0.80045837026E+02 0.  0.
          5    1    3    3  501    0 -0.58275697152E+01 -0.40623673073E+02  0.26918952771E+02  0.49304800994E+02  0.47000000000E+01 0. -1.
        -13    1    4    4    0    0 -0.45178026854E+02  0.10961169530E+03  0.23053017235E+03  0.25922950878E+03  0.00000000000E+00 0.  1.
         14    1    4    4    0    0 -0.14296581189E+02 -0.12980267249E+02  0.48517174173E+02  0.52218729985E+02  0.00000000000E+00 0. -1.
         -5    1    5    5    0  502  0.92126027227E+02 -0.31855267172E+02  0.54943501268E+03  0.55803484309E+03  0.47000000000E+01 0.  1.
         13    1    6    6    0    0  0.83434651501E+01  0.20324793031E+01 -0.17315631677E+01  0.87602907390E+01  0.00000000000E+00 0. -1.
        -14    1    6    6    0    0 -0.35167314619E+02 -0.26184967113E+02  0.26934924011E+03  0.27289449549E+03  0.00000000000E+00 0.  1.
</event>
<event>
12    1  0.8494789E-002  0.1740808E+03  0.7818608E-02  0.1173713E+00
         21   -1    0    0  501  502  0.00000000000E+00  0.00000000000E+00  0.82596686969E+02  0.82596686969E+02  0.00000000000E+00 0.  1.
         21   -1    0    0  502  503 -0.00000000000E+00 -0.00000000000E+00 -0.50049054237E+03  0.50049054237E+03  0.00000000000E+00 0. -1.
         -6    2    1    2    0  503 -0.17941080810E+02  0.15395262871E+02 -0.35993025805E+03  0.39981736291E+03  0.17246807392E+03 0.  0.
        -24    2    3    3    0    0 -0.76700840685E+02  0.19170908649E+02 -0.20239091571E+03  0.23156844236E+03  0.80070706455E+02 0.  0.
          6    2    1    2  501    0  0.17941080810E+02 -0.15395262871E+02 -0.57963597347E+02  0.18326986643E+03  0.17224740586E+03 0.  0.
         24    2    5    5    0    0  0.67834804938E-01 -0.73648745535E+02 -0.59339415556E+02  0.12213964444E+03  0.77283789919E+02 0.  0.
          5    1    5    5  501    0  0.17873246005E+02  0.58253482664E+02  0.13758182090E+01  0.61130221993E+02  0.47000000000E+01 0. -1.
        -13    1    6    6    0    0  0.31787962883E+02 -0.56826265927E+02 -0.56349972962E+02  0.86110501893E+02  0.00000000000E+00 0.  1.
         14    1    6    6    0    0 -0.31720128078E+02 -0.16822479608E+02 -0.29894425935E+01  0.36029142544E+02  0.00000000000E+00 0. -1.
         -5    1    3    3    0  503  0.58759759876E+02 -0.37756457781E+01 -0.15753934234E+03  0.16824892055E+03  0.47000000000E+01 0.  1.
         11    1    4    4    0    0 -0.40561969505E+02  0.46614783663E+02 -0.15016959015E+03  0.16238570514E+03  0.00000000000E+00 0. -1.
        -12    1    4    4    0    0 -0.36138871180E+02 -0.27443875014E+02 -0.52221325558E+02  0.69182737218E+02  0.00000000000E+00 0.  1.
</event>
<event>
12    1  0.8494789E-002  0.2015859E+03  0.7818608E-02  0.1148520E+00
         21   -1    0    0  501  502  0.00000000000E+00  0.00000000000E+00  0.73208149169E+02  0.73208149169E+02  0.00000000000E+00 0.  1.
         21   -1    0    0  502  503 -0.00000000000E+00 -0.00000000000E+00 -0.79197112134E+03  0.79197112134E+03  0.00000000000E+00 0.  1.
         -6    2    1    2    0  503  0.10350911274E+03 -0.10343307209E+02 -0.59703854104E+03  0.63015227195E+03  0.17267236587E+03 0.  0.
        -24    2    3    3    0    0 -0.93107694186E+01 -0.11177084657E+02 -0.15759406724E+03  0.17643148055E+03  0.77977943370E+02 0.  0.
          6    2    1    2  501    0 -0.10350911274E+03  0.10343307209E+02 -0.12172443114E+03  0.23502699856E+03  0.17204572792E+03 0.  0.
         24    2    5    5    0    0 -0.19569564364E+02  0.32751860834E+02 -0.47816882698E+01  0.89267998273E+02  0.80562142073E+02 0.  0.
          5    1    5    5  501    0 -0.83939548371E+02 -0.22408553625E+02 -0.11694274287E+03  0.14575900029E+03  0.47000000000E+01 0. -1.
        -13    1    6    6    0    0  0.14927904694E+01 -0.26166296159E+02  0.22456281752E+01  0.26304872628E+02  0.00000000000E+00 0.  1.
         14    1    6    6    0    0 -0.21062354834E+02  0.58918156993E+02 -0.70273164451E+01  0.62963125645E+02  0.00000000000E+00 0. -1.
         -5    1    3    3    0  503  0.11281988215E+03  0.83377744777E+00 -0.43944447380E+03  0.45372079140E+03  0.47000000000E+01 0.  1.
         11    1    4    4    0    0  0.10883707838E+02 -0.25871729578E+02 -0.15309406240E+02  0.31971540580E+02  0.00000000000E+00 0. -1.
        -12    1    4    4    0    0 -0.20194477256E+02  0.14694644921E+02 -0.14228466100E+03  0.14445993997E+03  0.00000000000E+00 0.  1.
</event>
<event>
12    1  0.8494789E-002  0.2227967E+03  0.7818608E-02  0.1131879E+00
         21   -1    0    0  501  502  0.00000000000E+00  0.00000000000E+00  0.43790980950E+03  0.43790980950E+03  0.00000000000E+00 0. -1.
         21   -1    0    0  502  503 -0.00000000000E+00 -0.00000000000E+00 -0.12977070861E+03  0.12977070861E+03  0.00000000000E+00 0.  1.
         -6    2    1    2    0  503  0.13846940467E+03 -0.25507475745E+02  0.52458640088E+02  0.22854799484E+03  0.17221460354E+03 0.  0.
        -24    2    3    3    0    0  0.46289877373E+02 -0.73428672987E+02  0.27281620461E+02  0.12154575787E+03  0.80588843376E+02 0.  0.
          6    2    1    2  501    0 -0.13846940467E+03  0.25507475745E+02  0.25568046079E+03  0.33913252327E+03  0.17266720291E+03 0.  0.
         24    2    5    5    0    0 -0.18023279358E+02 -0.29652821064E+02  0.12762337658E+03  0.15482128036E+03  0.80484620929E+02 0.  0.
          5    1    5    5  501    0 -0.12044612532E+03  0.55160296809E+02  0.12805708421E+03  0.18431124291E+03  0.47000000000E+01 0. -1.
        -11    1    6    6    0    0  0.53551758872E+01 -0.44434398690E+00 -0.10459912004E+02  0.11759468929E+02  0.00000000000E+00 0.  1.
         12    1    6    6    0    0 -0.23378455245E+02 -0.29208477077E+02  0.13808328859E+03  0.14306181143E+03  0.00000000000E+00 0. -1.
         -5    1    3    3    0  503  0.92179527302E+02  0.47921197242E+02  0.25177019627E+02  0.10700223697E+03  0.47000000000E+01 0.  1.
         13    1    4    4    0    0 -0.18684599220E+02 -0.40780531229E+02  0.17608254636E+02  0.48189382717E+02  0.00000000000E+00 0. -1.
        -14    1    4    4    0    0  0.64974476593E+02 -0.32648141758E+02  0.96733658247E+01  0.73356375150E+02  0.00000000000E+00 0.  1.
</event>
<event>
12    1  0.8494789E-002  0.1752805E+03  0.7818608E-02  0.1173723E+00
         21   -1    0    0  501  502  0.00000000000E+00  0.00000000000E+00  0.24341720746E+03  0.24341720746E+03  0.00000000000E+00 0.  1.
         21   -1    0    0  502  503 -0.00000000000E+00 -0.00000000000E+00 -0.26352493352E+03  0.26352493352E+03  0.00000000000E+00 0.  1.
         -6    2    1    2    0  503  0.56249265923E+01 -0.15304953224E+01 -0.19530919998E+03  0.25911395976E+03  0.17017749068E+03 0.  0.
        -24    2    3    3    0    0 -0.17743460376E+02 -0.53817598603E+02 -0.17006084333E+03  0.19634778900E+03  0.80128643473E+02 0.  0.
          6    2    1    2  501    0 -0.56249265923E+01  0.15304953224E+01  0.17520147392E+03  0.24782818122E+03  0.17518352870E+03 0.  0.
         24    2    5    5    0    0  0.12808570763E+02  0.85864232405E+01  0.10991319346E+02  0.82369289619E+02  0.80162987858E+02 0.  0.
          5    1    5    5  501    0 -0.18433497355E+02 -0.70559279181E+01  0.16421015458E+03  0.16545889160E+03  0.47000000000E+01 0. -1.
        -13    1    6    6    0    0 -0.49411768761E+01  0.23321129342E+02  0.39230378492E+02  0.45905477879E+02  0.00000000000E+00 0.  1.
         14    1    6    6    0    0  0.17749747639E+02 -0.14734706101E+02 -0.28239059146E+02  0.36463811740E+02  0.00000000000E+00 0. -1.
         -5    1    3    3    0  503  0.23368386968E+02  0.52287103281E+02 -0.25248356649E+02  0.62766170765E+02  0.47000000000E+01 0.  1.
         13    1    4    4    0    0 -0.31162007862E+02 -0.34028274271E+02 -0.31807167351E+02  0.56041860058E+02  0.00000000000E+00 0. -1.
        -14    1    4    4    0    0  0.13418547486E+02 -0.19789324332E+02 -0.13825367598E+03  0.14030592894E+03  0.00000000000E+00 0.  1.
</event>
<event>
12    1  0.8494789E-002  0.2311552E+03  0.7818608E-02  0.1125838E+00
         21   -1    0    0  503  502  0.00000000000E+00  0.00000000000E+00  0.42768975251E+03  0.42768975251E+03  0.00000000000E+00 0. -1.
         21   -1    0    0  501  503 -0.00000000000E+00 -0.00000000000E+00 -0.15755320731E+03  0.15755320731E+03  0.00000000000E+00 0. -1.
          6    2    1    2  501    0 -0.73263413128E+02 -0.13489307723E+03  0.18789371051E+01  0.23116280641E+03  0.17282662606E+03 0.  0.
         24    2    3    3    0    0 -0.49749436581E+02 -0.92218205114E+02 -0.71042427340E+02  0.14333532099E+03  0.67221900940E+02 0.  0.
         -6    2    1    2    0  502  0.73263413128E+02  0.13489307723E+03  0.26825760810E+03  0.35408015342E+03  0.17276267176E+03 0.  0.
        -24    2    5    5    0    0  0.66308365476E+02  0.10433426977E+03  0.28329150611E+03  0.31900421450E+03  0.78912434112E+02 0.  0.
          5    1    3    3  501    0 -0.23513976547E+02 -0.42674872112E+02  0.72921364445E+02  0.87827485421E+02  0.47000000000E+01 0. -1.
        -13    1    4    4    0    0 -0.41213532364E+01 -0.20506273670E+02 -0.52256204037E+02  0.56286798387E+02  0.00000000000E+00 0.  1.
         14    1    4    4    0    0 -0.45628083345E+02 -0.71711931444E+02 -0.18786223303E+02  0.87048522601E+02  0.00000000000E+00 0. -1.
         -5    1    5    5    0  502  0.69550476522E+01  0.30558807459E+02 -0.15033898010E+02  0.35075938912E+02  0.47000000000E+01 0.  1.
         13    1    6    6    0    0  0.78416006114E+02  0.54832233144E+02  0.18702252695E+03  0.21007872189E+03  0.00000000000E+00 0. -1.
        -14    1    6    6    0    0 -0.12107640637E+02  0.49502036623E+02  0.96268979159E+02  0.10892549261E+03  0.00000000000E+00 0.  1.
</event>
<event>
12    1  0.8494789E-002  0.2091233E+03  0.7818608E-02  0.1142774E+00
         21   -1    0    0  501  502  0.00000000000E+00  0.00000000000E+00  0.11588713945E+04  0.11588713945E+04  0.00000000000E+00 0. -1.
         21   -1    0    0  502  503 -0.00000000000E+00 -0.00000000000E+00 -0.61278942110E+02  0.61278942110E+02  0.00000000000E+00 0. -1.
         -6    2    1    2    0  503 -0.24650840606E+02  0.11012956746E+03  0.16904350207E+03  0.26890195590E+03  0.17605786186E+03 0.  0.
        -24    2    3    3    0    0  0.54878185767E+02  0.53506094856E+02  0.53816483965E+02  0.11780450593E+03  0.71464468173E+02 0.  0.
          6    2    1    2  501    0  0.24650840606E+02 -0.11012956746E+03  0.92854895028E+03  0.95124838067E+03  0.17301486378E+03 0.  0.
         24    2    5    5    0    0  0.80220546364E+02 -0.50828988672E+02  0.61267692771E+03  0.62505553053E+03  0.79388137298E+02 0.  0.
          5    1    5    5  501    0 -0.55569705758E+02 -0.59300578789E+02  0.31587202257E+03  0.32619285014E+03  0.47000000000E+01 0. -1.
        -13    1    6    6    0    0  0.28269176870E+02 -0.22877294741E+02  0.67299110650E+02  0.76496321937E+02  0.00000000000E+00 0.  1.
         14    1    6    6    0    0  0.51951369494E+02 -0.27951693931E+02  0.54537781706E+03  0.54855920859E+03  0.00000000000E+00 0. -1.
         -5    1    3    3    0  503 -0.79529026374E+02  0.56623472605E+02  0.11522701810E+03  0.15109744997E+03  0.47000000000E+01 0.  1.
         13    1    4    4    0    0  0.75686513477E+01  0.56857452168E+02  0.28806841461E+02  0.64186357314E+02  0.00000000000E+00 0. -1.
        -14    1    4    4    0    0  0.47309534420E+02 -0.33513573119E+01  0.25009642504E+02  0.53618148616E+02  0.00000000000E+00 0.  1.
</event>
<event>
12    1  0.8494789E-002  0.2214189E+03  0.7818608E-02  0.1132874E+00
         21   -1    0    0  501  502  0.00000000000E+00  0.00000000000E+00  0.23214414606E+04  0.23214414606E+04  0.00000000000E+00 0.  1.
         21   -1    0    0  502  503 -0.00000000000E+00 -0.00000000000E+00 -0.21679380281E+02  0.21679380281E+02  0.00000000000E+00 0.  1.
         -6    2    1    2    0  503  0.83725583978E+02  0.10978194922E+03  0.95707686846E+03  0.98230126266E+03  0.17279348568E+03 0.  0.
        -24    2    3    3    0    0  0.43058534479E+02  0.99781538446E+02  0.36641285240E+03  0.39013584067E+03  0.78340302313E+02 0.  0.
          6    2    1    2  501    0 -0.83725583978E+02 -0.10978194922E+03  0.13426852119E+04  0.13608195783E+04  0.17310198306E+03 0.  0.
         24    2    5    5    0    0  0.22115545781E+02 -0.38211752377E+02  0.50686595437E+03  0.51527800088E+03  0.81541934646E+02 0.  0.
          5    1    5    5  501    0 -0.10584112976E+03 -0.71570196846E+02  0.83581925754E+03  0.84554157739E+03  0.47000000000E+01 0. -1.
        -13    1    6    6    0    0 -0.28698684184E+02 -0.28581408971E+02  0.19628770500E+03  0.20042298907E+03  0.00000000000E+00 0.  1.
         14    1    6    6    0    0  0.50814229966E+02 -0.96303434057E+01  0.31057824937E+03  0.31485501181E+03  0.00000000000E+00 0. -1.
         -5    1    3    3    0  503  0.40667049499E+02  0.10000410776E+02  0.59066401605E+03  0.59216542198E+03  0.47000000000E+01 0.  1.
         11    1    4    4    0    0 -0.23118394762E+02  0.28639542333E+02  0.10075620785E+03  0.10726834100E+03  0.00000000000E+00 0. -1.
        -12    1    4    4    0    0  0.66176929241E+02  0.71141996113E+02  0.26565664456E+03  0.28286749967E+03  0.00000000000E+00 0.  1.
</event>
<event>
12    1  0.8494789E-002  0.1767852E+03  0.7818608E-02  0.1171098E+00
         21   -1    0    0  503  502  0.00000000000E+00  0.00000000000E+00  0.32645716758E+02  0.32645716758E+02  0.00000000000E+00 0.  1.
         21   -1    0    0  501  503 -0.00000000000E+00 -0.00000000000E+00 -0.98248449033E+03  0.98248449033E+03  0.00000000000E+00 0.  1.
          6    2    1    2  501    0  0.12769950542E+02 -0.33928628198E+02 -0.56191075093E+03  0.58906426271E+03  0.17302829290E+03 0.  0.
         24    2    3    3    0    0 -0.76527679598E+01 -0.49140068466E+02 -0.55383138819E+03  0.56193786508E+03  0.81065692386E+02 0.  0.
         -6    2    1    2    0  502 -0.12769950542E+02  0.33928628198E+02 -0.38792802265E+03  0.42606594438E+03  0.17242335909E+03 0.  0.
        -24    2    5    5    0    0  0.21510826638E+02 -0.12534102849E+02 -0.34164611886E+03  0.35191702883E+03  0.80645553169E+02 0.  0.
          5    1    3    3  501    0  0.20422718502E+02  0.15211440268E+02 -0.80793627400E+01  0.27126397629E+02  0.47000000000E+01 0. -1.
        -11    1    4    4    0    0 -0.31536776652E+02  0.58760878768E+01 -0.13082677006E+03  0.13470241444E+03  0.00000000000E+00 0.  1.
         12    1    4    4    0    0  0.23884008693E+02 -0.55016156343E+02 -0.42300461812E+03  0.42723545064E+03  0.00000000000E+00 0. -1.
         -5    1    5    5    0  502 -0.34280777180E+02  0.46462731047E+02 -0.46281903783E+02  0.74148915556E+02  0.47000000000E+01 0.  1.
         11    1    6    6    0    0  0.12089373315E+02  0.34236720463E+02 -0.16442362682E+03  0.16838478266E+03  0.00000000000E+00 0. -1.
        -12    1    6    6    0    0  0.94214533227E+01 -0.46770823312E+02 -0.17722249204E+03  0.18353224616E+03  0.00000000000E+00 0.  1.
</event>
<event>
12    1  0.8494789E-002  0.2226828E+03  0.7818608E-02  0.1132926E+00
         21   -1    0    0  501  502  0.00000000000E+00  0.00000000000E+00  0.12087624285E+03  0.12087624285E+03  0.00000000000E+00 0. -1.
         21   -1    0    0  502  503 -0.00000000000E+00 -0.00000000000E+00 -0.48174811975E+03  0.48174811975E+03  0.00000000000E+00 0.  1.
         -6    2    1    2    0  503  0.13885168818E+03 -0.23113650019E+02 -0.30257663206E+03  0.37243753694E+03  0.16535739634E+03 0.  0.
        -24    2    3    3    0    0  0.13338841537E+03 -0.11986794039E+02 -0.14136866787E+03  0.21068540560E+03  0.80418202497E+02 0.  0.
          6    2    1    2  501    0 -0.13885168818E+03  0.23113650019E+02 -0.58295244846E+02  0.23018682567E+03  0.17255030285E+03 0.  0.
         24    2    5    5    0    0 -0.14301918474E+03 -0.30349160055E+01 -0.91328838271E+02  0.18759077154E+03  0.79910218042E+02 0.  0.
          5    1    5    5  501    0  0.41674965635E+01  0.26148566024E+02  0.33033593425E+02  0.42596054128E+02  0.47000000000E+01 0. -1.
        -11    1    6    6    0    0 -0.11418657999E+03 -0.36103916444E+02 -0.62419652677E+02  0.13504917946E+03  0.00000000000E+00 0.  1.
         12    1    6    6    0    0 -0.28832604756E+02  0.33069000438E+02 -0.28909185594E+02  0.52541592084E+02  0.00000000000E+00 0. -1.
         -5    1    3    3    0  503  0.54632728120E+01 -0.11126855980E+02 -0.16120796419E+03  0.16175213133E+03  0.47000000000E+01 0.  1.
         13    1    4    4    0    0  0.10070502628E+03  0.25297561042E+02 -0.11341208258E+03  0.15376530619E+03  0.00000000000E+00 0. -1.
        -14    1    4    4    0    0  0.32683389087E+02 -0.37284355081E+02 -0.27956585292E+02  0.56920099413E+02  0.00000000000E+00 0.  1.
</event>
<event>
12    1  0.8494789E-002  0.2191244E+03  0.7818608E-02  0.1134792E+00
         21   -1    0    0  503  502  0.00000000000E+00  0.00000000000E+00  0.61482826407E+03  0.61482826407E+03  0.00000000000E+00 0.  1.
         21   -1    0    0  501  503 -0.00000000000E+00 -0.00000000000E+00 -0.10491385281E+03  0.10491385281E+03  0.00000000000E+00 0.  1.
          6    2    1    2  501    0 -0.49364356375E+02 -0.12320094980E+03  0.70795939778E+02  0.22898706284E+03  0.17264905487E+03 0.  0.
         24    2    3    3    0    0 -0.41519559937E+02  0.26095303095E+01  0.26063780707E+02  0.95148078266E+02  0.81505537402E+02 0.  0.
         -6    2    1    2    0  502  0.49364356375E+02  0.12320094980E+03  0.43911847148E+03  0.49075505404E+03  0.17435646638E+03 0.  0.
        -24    2    5    5    0    0  0.74819520073E+02  0.21466183419E+02  0.18398696728E+03  0.21487083471E+03  0.79117089571E+02 0.  0.
          5    1    3    3  501    0 -0.78447964381E+01 -0.12581048011E+03  0.44732159071E+02  0.13383898457E+03  0.47000000000E+01 0. -1.
        -13    1    4    4    0    0 -0.48846759312E+02 -0.15694976164E+02 -0.11631058168E+02  0.52608171288E+02  0.00000000000E+00 0.  1.
         14    1    4    4    0    0  0.73271993754E+01  0.18304506474E+02  0.37694838875E+02  0.42539906979E+02  0.00000000000E+00 0. -1.
         -5    1    5    5    0  502 -0.25455163698E+02  0.10173476638E+03  0.25513150419E+03  0.27588421934E+03  0.47000000000E+01 0.  1.
         13    1    6    6    0    0 -0.57899050402E+01  0.68526329228E+01  0.88935829302E+02  0.89387154066E+02  0.00000000000E+00 0. -1.
        -14    1    6    6    0    0  0.80609425113E+02  0.14613550496E+02  0.95051137981E+02  0.12548368064E+03  0.00000000000E+00 0.  1.
</event>
<event>
12    1  0.8494789E-002  0.2003684E+03  0.7818608E-02  0.1149486E+00
         21   -1    0    0  501  502  0.00000000000E+00  0.00000000000E+00  0.83109071796E+03  0.83109071796E+03  0.00000000000E+00 0.  1.
         21   -1    0    0  502  503 -0.00000000000E+00 -0.00000000000E+00 -0.49381860633E+02  0.49381860633E+02  0.00000000000E+00 0. -1.
         -6    2    1    2    0  503  0.99533097431E+02 -0.18305447634E+02  0.32421812670E+03  0.38113629228E+03  0.17293222001E+03 0.  0.
        -24    2    3    3    0    0  0.13360787883E+03 -0.90814835696E+01  0.20913732143E+03  0.26067113557E+03  0.79230569076E+02 0.  0.
          6    2    1    2  501    0 -0.99533097431E+02  0.18305447634E+02  0.45749073063E+03  0.49933628631E+03  0.17261816624E+03 0.  0.
         24    2    5    5    0    0 -0.43722979495E+02  0.69125885076E+02  0.34768250050E+03  0.36600428141E+03  0.79911988680E+02 0.  0.
          5    1    5    5  501    0 -0.55810117935E+02 -0.50820437442E+02  0.10980823013E+03  0.13333200490E+03  0.47000000000E+01 0. -1.
        -11    1    6    6    0    0  0.23371435753E+02  0.13186934219E+02  0.90195989846E+02  0.94103325273E+02  0.00000000000E+00 0.  1.
         12    1    6    6    0    0 -0.67094415248E+02  0.55938950857E+02  0.25748651066E+03  0.27190095614E+03  0.00000000000E+00 0. -1.
         -5    1    3    3    0  503 -0.34074781399E+02 -0.92239640641E+01  0.11508080527E+03  0.12046515671E+03  0.47000000000E+01 0.  1.
         13    1    4    4    0    0  0.85115363434E+02 -0.69498344011E+01  0.61443640115E+02  0.10520573274E+03  0.00000000000E+00 0. -1.
        -14    1    4    4    0    0  0.48492515396E+02 -0.21316491685E+01  0.14769368131E+03  0.15546540283E+03  0.00000000000E+00 0.  1.
</event>
<event>
12    1  0.8494789E-002  0.2108073E+03  0.7818608E-02  0.1141108E+00
         21   -1    0    0  503  502  0.00000000000E+00  0.00000000000E+00  0.24539132666E+03  0.24539132666E+03  0.00000000000E+00 0. -1.
         21   -1    0    0  501  503 -0.00000000000E+00 -0.00000000000E+00 -0.33694899207E+03  0.33694899207E+03  0.00000000000E+00 0. -1.
          6    2    1    2  501    0 -0.66648072634E+02 -0.99827291151E+02 -0.24435308937E+03  0.32271993932E+03  0.17329822072E+03 0.  0.
         24    2    3    3    0    0 -0.50423654549E+02 -0.47955755103E+02 -0.24656511781E+03  0.26812258532E+03  0.79076317876E+02 0.  0.
         -6    2    1    2    0  502  0.66648072634E+02  0.99827291151E+02  0.15279542396E+03  0.25962037942E+03  0.17218840315E+03 0.  0.
        -24    2    5    5    0    0  0.11150472075E+03  0.75913065276E+02  0.10522367575E+03  0.18984093898E+03  0.82288905360E+02 0.  0.
          5    1    3    3  501    0 -0.16224418085E+02 -0.51871536048E+02  0.22120284424E+01  0.54597354002E+02  0.47000000000E+01 0. -1.
        -11    1    4    4    0    0 -0.16193901868E+02  0.10671232624E+01 -0.19964563083E+01  0.16351362254E+02  0.00000000000E+00 0.  1.
         12    1    4    4    0    0 -0.34229752681E+02 -0.49022878365E+02 -0.24456866150E+03  0.25177122306E+03  0.00000000000E+00 0. -1.
         -5    1    5    5    0  502 -0.44856648117E+02  0.23914225874E+02  0.47571748217E+02  0.69779440438E+02  0.47000000000E+01 0.  1.
         13    1    6    6    0    0  0.92087113344E+02  0.67632769613E+02  0.11873375666E+03  0.16477843591E+03  0.00000000000E+00 0. -1.
        -14    1    6    6    0    0  0.19417607407E+02  0.82802956629E+01 -0.13510080917E+02  0.25062503068E+02  0.00000000000E+00 0.  1.
</event>
<event>
12    1  0.8494789E-002  0.2070111E+03  0.7818608E-02  0.1144120E+00
         21   -1    0    0  503  502  0.00000000000E+00  0.00000000000E+00  0.98794921667E+02  0.98794921667E+02  0.00000000000E+00 0.  1.
         21   -1    0    0  501  503 -0.00000000000E+00 -0.00000000000E+00 -0.97970265980E+03  0.97970265980E+03  0.00000000000E+00 0. -1.
          6    2    1    2  501    0 -0.28429028462E+02 -0.11155376259E+03 -0.84324382287E+03  0.86808810980E+03  0.17106831959E+03 0.  0.
         24    2    3    3    0    0 -0.43770591164E+02 -0.11248534691E+03 -0.83898059457E+03  0.85145992557E+03  0.80788296550E+02 0.  0.
         -6    2    1    2    0  502  0.28429028462E+02  0.11155376259E+03 -0.37663915261E+02  0.21040947166E+03  0.17204977083E+03 0.  0.
        -24    2    5    5    0    0 -0.40981540110E+02  0.30190139153E+02  0.10573136273E+02  0.92992397137E+02  0.77102941467E+02 0.  0.
          5    1    3    3  501    0  0.15341562702E+02  0.93158431692E+00 -0.42632282988E+01  0.16628184237E+02  0.47000000000E+01 0. -1.
        -11    1    4    4    0    0 -0.13884056014E+02 -0.13655659266E+02 -0.29042473631E+02  0.34967260630E+02  0.00000000000E+00 0.  1.
         12    1    4    4    0    0 -0.29886535150E+02 -0.98829687644E+02 -0.80993812094E+03  0.81649266493E+03  0.00000000000E+00 0. -1.
         -5    1    5    5    0  502  0.69410568572E+02  0.81363623440E+02 -0.48237051534E+02  0.11741707452E+03  0.47000000000E+01 0.  1.
         11    1    6    6    0    0 -0.51442168639E+02  0.48861515986E+02  0.69877770475E+01  0.71292169884E+02  0.00000000000E+00 0. -1.
        -12    1    6    6    0    0  0.10460628529E+02 -0.18671376833E+02  0.35853592258E+01  0.21700227253E+02  0.00000000000E+00 0.  1.
</event>
<event>
12    1  0.8494789E-002  0.2816573E+03  0.7818608E-02  0.1095113E+00
         21   -1    0    0  501  502  0.00000000000E+00  0.00000000000E+00  0.35866597149E+03  0.35866597149E+03  0.00000000000E+00 0.  1.
         21   -1    0    0  502  503 -0.00000000000E+00 -0.00000000000E+00 -0.43266928656E+03  0.43266928656E+03  0.00000000000E+00 0.  1.
         -6    2    1    2    0  503  0.19277429070E+03  0.11066201779E+03 -0.31493250014E+03  0.42250836397E+03  0.17298216279E+03 0.  0.
        -24    2    3    3    0    0  0.14575974476E+03  0.13513369173E+03 -0.30160514616E+03  0.36765456994E+03  0.68536127535E+02 0.  0.
          6    2    1    2  501    0 -0.19277429070E+03 -0.11066201779E+03  0.24092918507E+03  0.36882689408E+03  0.16905146035E+03 0.  0.
         24    2    5    5    0    0 -0.69611014272E+02 -0.35665640901E+02  0.18193470336E+03  0.21295486940E+03  0.78305867391E+02 0.  0.
          5    1    5    5  501    0 -0.12316327643E+03 -0.74996376889E+02  0.58994481710E+02  0.15587202468E+03  0.47000000000E+01 0. -1.
        -11    1    6    6    0    0 -0.78783748239E+02 -0.18109787337E+02  0.17353461119E+03  0.19143955878E+03  0.00000000000E+00 0.  1.
         12    1    6    6    0    0  0.91727339678E+01 -0.17555853564E+02  0.84000921640E+01  0.21515310622E+02  0.00000000000E+00 0. -1.
         -5    1    3    3    0  503  0.47014545941E+02 -0.24471673936E+02 -0.13327353979E+02  0.54853794028E+02  0.47000000000E+01 0.  1.
         11    1    4    4    0    0  0.75019456057E+02  0.68204104038E+02 -0.93630172241E+02  0.13800843361E+03  0.00000000000E+00 0. -1.
        -12    1    4    4    0    0  0.70740288699E+02  0.66929587688E+02 -0.20797497392E+03  0.22964613633E+03  0.00000000000E+00 0.  1.
</event>
<event>
12    1  0.8494789E-002  0.2512851E+03  0.7818608E-02  0.1112562E+00
         21   -1    0    0  501  502  0.00000000000E+00  0.00000000000E+00  0.10943747273E+03  0.10943747273E+03  0.00000000000E+00 0.  1.
         21   -1    0    0  502  503 -0.00000000000E+00 -0.00000000000E+00 -0.58224750234E+03  0.58224750234E+03  0.00000000000E+00 0. -1.
         -6    2    1    2    0  503  0.40224545553E+02 -0.17820261392E+03 -0.27237847455E+03  0.37058634688E+03  0.17253991255E+03 0.  0.
        -24    2    3    3    0    0  0.51058990657E+02 -0.19515211484E+03 -0.19761201513E+03  0.29301841384E+03  0.78217094503E+02 0.  0.
          6    2    1    2  501    0 -0.40224545553E+02  0.17820261392E+03 -0.20043155506E+03  0.32109862819E+03  0.17192246825E+03 0.  0.
         24    2    5    5    0    0 -0.79400199533E+02  0.65005752393E+02 -0.96739029812E+02  0.16259786757E+03  0.80928901640E+02 0.  0.
          5    1    5    5  501    0  0.39175653980E+02  0.11319686153E+03 -0.10369252525E+03  0.15850076062E+03  0.47000000000E+01 0. -1.
        -11    1    6    6    0    0 -0.70748117438E+02  0.69253251950E+02 -0.42889623424E+02  0.10789267271E+03  0.00000000000E+00 0.  1.
         12    1    6    6    0    0 -0.86520820950E+01 -0.42474995568E+01 -0.53849406387E+02  0.54705194866E+02  0.00000000000E+00 0. -1.
         -5    1    3    3    0  503 -0.10834445104E+02  0.16949500917E+02 -0.74766459423E+02  0.77567933044E+02  0.47000000000E+01 0.  1.
         11    1    4    4    0    0  0.45030318348E+02 -0.99840093393E+02 -0.15155966122E+03  0.18699225847E+03  0.00000000000E+00 0. -1.
        -12    1    4    4    0    0  0.60286723092E+01 -0.95312021443E+02 -0.46052353913E+02  0.10602615537E+03  0.00000000000E+00 0.  1.
</event>
<event>
12    1  0.8494789E-002  0.1900192E+03  0.7818608E-02  0.1158640E+00
         21   -1    0    0  501  502  0.00000000000E+00  0.00000000000E+00  0.19911108193E+03  0.19911108193E+03  0.00000000000E+00 0. -1.
         21   -1    0    0  502  503 -0.00000000000E+00 -0.00000000000E+00 -0.19480155486E+03  0.19480155486E+03  0.00000000000E+00 0.  1.
         -6    2    1    2    0  503 -0.36617929669E+02 -0.71857157455E+02  0.55485106691E+02  0.19712280369E+03  0.17109786329E+03 0.  0.
        -24    2    3    3    0    0 -0.54341704684E+02  0.22008146726E+01  0.66307020587E+02  0.12006490821E+03  0.84030332324E+02 0.  0.
          6    2    1    2  501    0  0.36617929669E+02  0.71857157455E+02 -0.51175579622E+02  0.19678983310E+03  0.17205514991E+03 0.  0.
         24    2    5    5    0    0  0.10067953815E+02 -0.22726061540E+02 -0.49896074692E+02  0.98430219101E+02  0.81123684553E+02 0.  0.
          5    1    5    5  501    0  0.26549975854E+02  0.94583218996E+02 -0.12795049304E+01  0.98359614001E+02  0.47000000000E+01 0. -1.
        -11    1    6    6    0    0  0.37578627913E+02  0.93201021008E+01 -0.92350242413E+01  0.39803307046E+02  0.00000000000E+00 0.  1.
         12    1    6    6    0    0 -0.27510674098E+02 -0.32046163641E+02 -0.40661050450E+02  0.58626912056E+02  0.00000000000E+00 0. -1.
         -5    1    3    3    0  503  0.17723775016E+02 -0.74057972128E+02 -0.10821913896E+02  0.77057895487E+02  0.47000000000E+01 0.  1.
         11    1    4    4    0    0 -0.17660270421E+02 -0.23875758221E+02  0.68855816446E+02  0.74987068487E+02  0.00000000000E+00 0. -1.
        -12    1    4    4    0    0 -0.36681434264E+02  0.26076572893E+02 -0.25487958588E+01  0.45077839720E+02  0.00000000000E+00 0.  1.
</event>
<event>
12    1  0.8494789E-002  0.2755277E+03  0.7818608E-02  0.1098182E+00
         21   -1    0    0  501  502  0.00000000000E+00  0.00000000000E+00  0.30733261636E+03  0.30733261636E+03  0.00000000000E+00 0. -1.
         21   -1    0    0  502  503 -0.00000000000E+00 -0.00000000000E+00 -0.51152807881E+03  0.51152807881E+03  0.00000000000E+00 0. -1.
         -6    2    1    2    0  503  0.20383503666E+03  0.65782654543E+02 -0.39659173056E+03  0.48280736195E+03  0.17303718733E+03 0.  0.
        -24    2    3    3    0    0  0.17714750275E+03 -0.96699656760E+01 -0.28895525895E+03  0.34859476051E+03  0.80922304819E+02 0.  0.
          6    2    1    2  501    0 -0.20383503666E+03 -0.65782654543E+02  0.19239626811E+03  0.33605333322E+03  0.17331889387E+03 0.  0.
         24    2    5    5    0    0 -0.37965141818E+02 -0.42017924895E+02  0.11264069896E+03  0.15041760066E+03  0.82040657726E+02 0.  0.
          5    1    5    5  501    0 -0.16586989485E+03 -0.23764729648E+02  0.79755569150E+02  0.18563573256E+03  0.47000000000E+01 0. -1.
        -13    1    6    6    0    0  0.19364208154E+02  0.61619656619E+01  0.82213170927E+01  0.21921049998E+02  0.00000000000E+00 0.  1.
         14    1    6    6    0    0 -0.57329349972E+02 -0.48179890557E+02  0.10441938187E+03  0.12849655066E+03  0.00000000000E+00 0. -1.
         -5    1    3    3    0  503  0.26687533913E+02  0.75452620219E+02 -0.10763647161E+03  0.13421260144E+03  0.47000000000E+01 0.  1.
         11    1    4    4    0    0  0.13473827721E+03 -0.28426433704E+02 -0.15754997016E+03  0.20924736217E+03  0.00000000000E+00 0. -1.
        -12    1    4    4    0    0  0.42409225545E+02  0.18756468028E+02 -0.13140528878E+03  0.13934739834E+03  0.00000000000E+00 0.  1.
</event>
<event>
12    1  0.8494789E-002  0.1835686E+03  0.7818608E-02  0.1165414E+00
         21   -1    0    0  503  502  0.00000000000E+00  0.00000000000E+00  0.15340023078E+03  0.15340023078E+03  0.00000000000E+00 0.  1.
         21   -1    0    0  501  503 -0.00000000000E+00 -0.00000000000E+00 -0.51390393406E+03  0.51390393406E+03  0.00000000000E+00 0. -1.
          6    2    1    2  501    0  0.31882369815E+02 -0.43148390115E+02 -0.43399385573E+03  0.46957147869E+03  0.17108020841E+03 0.  0.
         24    2    3    3    0    0  0.76259346528E+02 -0.29594821352E+02 -0.38303681874E+03  0.40049380569E+03  0.83586736380E+02 0.  0.
         -6    2    1    2    0  502 -0.31882369815E+02  0.43148390115E+02  0.73490152445E+02  0.19773268616E+03  0.17555381965E+03 0.  0.
        -24    2    5    5    0    0  0.91311907135E+01  0.88740791399E+02  0.61866519523E+02  0.13513893212E+03  0.80478307851E+02 0.  0.
          5    1    3    3  501    0 -0.44376976712E+02 -0.13553568762E+02 -0.50957036991E+02  0.69077673001E+02  0.47000000000E+01 0. -1.
        -11    1    4    4    0    0  0.44659594281E+02 -0.40654084661E+02 -0.11065793820E+03  0.12606511511E+03  0.00000000000E+00 0.  1.
         12    1    4    4    0    0  0.31599752246E+02  0.11059263309E+02 -0.27237888054E+03  0.27442869058E+03  0.00000000000E+00 0. -1.
         -5    1    5    5    0  502 -0.41013560529E+02 -0.45592401285E+02  0.11623632922E+02  0.62593754037E+02  0.47000000000E+01 0.  1.
         13    1    6    6    0    0  0.28861020123E+02  0.52246764984E+02  0.70901421178E+02  0.92680604545E+02  0.00000000000E+00 0. -1.
        -14    1    6    6    0    0 -0.19729829409E+02  0.36494026415E+02 -0.90349016546E+01  0.42458327575E+02  0.00000000000E+00 0.  1.
</event>
<event>
12    1  0.8494789E-002  0.1886362E+03  0.7818608E-02  0.1159891E+00
         21   -1    0    0  503  502  0.00000000000E+00  0.00000000000E+00  0.59671540562E+02  0.59671540562E+02  0.00000000000E+00 0.  1.
         21   -1    0    0  501  503 -0.00000000000E+00 -0.00000000000E+00 -0.85142004598E+03  0.85142004598E+03  0.00000000000E+00 0. -1.
          6    2    1    2  501    0 -0.67650953391E+02 -0.38943326770E+02 -0.64591066418E+03  0.67265439168E+03  0.17079259454E+03 0.  0.
         24    2    3    3    0    0 -0.64657611429E+02 -0.12693112879E+02 -0.19392627687E+03  0.21987408050E+03  0.79971798669E+02 0.  0.
         -6    2    1    2    0  502  0.67650953391E+02  0.38943326770E+02 -0.14583784125E+03  0.23843719487E+03  0.17172764997E+03 0.  0.
        -24    2    5    5    0    0 -0.18274024970E+02  0.53088754496E+02 -0.63146499992E+02  0.11825756702E+03  0.82734610978E+02 0.  0.
          5    1    3    3  501    0 -0.29933419627E+01 -0.26250213891E+02 -0.45198438730E+03  0.45278031118E+03  0.47000000000E+01 0. -1.
        -11    1    4    4    0    0 -0.73700019504E+01 -0.33942877275E+02 -0.11457395258E+03  0.11972312415E+03  0.00000000000E+00 0.  1.
         12    1    4    4    0    0 -0.57287609478E+02  0.21249764395E+02 -0.79352324295E+02  0.10015095635E+03  0.00000000000E+00 0. -1.
         -5    1    5    5    0  502  0.85924978361E+02 -0.14145427726E+02 -0.82691341254E+02  0.12017962785E+03  0.47000000000E+01 0.  1.
         13    1    6    6    0    0 -0.13635196796E+02 -0.11593875049E+02 -0.48608958333E+02  0.51799298842E+02  0.00000000000E+00 0. -1.
        -14    1    6    6    0    0 -0.46388281742E+01  0.64682629545E+02 -0.14537541659E+02  0.66458268178E+02  0.00000000000E+00 0.  1.
</event>
<event>
12    1  0.8494789E-002  0.1887833E+03  0.7818608E-02  0.1160786E+00
         21   -1    0    0  503  502  0.00000000000E+00  0.00000000000E+00  0.22867356426E+03  0.22867356426E+03  0.00000000000E+00 0. -1.
         21   -1    0    0  501  503 -0.00000000000E+00 -0.00000000000E+00 -0.17814827402E+03  0.17814827402E+03  0.00000000000E+00 0.  1.
          6    2    1    2  501    0  0.71915504747E+02 -0.22971360195E+02 -0.53080579674E+02  0.19610371823E+03  0.17303062489E+03 0.  0.
         24    2    3    3    0    0  0.19936497511E+02 -0.66993822547E+02 -0.72525995332E+02  0.12511070044E+03  0.74209373886E+02 0.  0.
         -6    2    1    2    0  502 -0.71915504747E+02  0.22971360195E+02  0.10360586991E+03  0.21071812005E+03  0.16723763520E+03 0.  0.
        -24    2    5    5    0    0 -0.31838903753E+02  0.63829686641E+02  0.10997529187E+03  0.15294099376E+03  0.78793642260E+02 0.  0.
          5    1    3    3  501    0  0.51979007237E+02  0.44022462351E+02  0.19445415657E+02  0.70993017789E+02  0.47000000000E+01 0. -1.
        -13    1    4    4    0    0  0.33059920821E+02 -0.25191509609E+02 -0.69767484726E+02  0.81210051386E+02  0.00000000000E+00 0.  1.
         14    1    4    4    0    0 -0.13123423311E+02 -0.41802312938E+02 -0.27585106057E+01  0.43900649051E+02  0.00000000000E+00 0. -1.
         -5    1    5    5    0  502 -0.40076600994E+02 -0.40858326445E+02 -0.63694219589E+01  0.57777126298E+02  0.47000000000E+01 0.  1.
         11    1    6    6    0    0  0.21433604974E+02  0.43598808586E+02  0.59511862400E+02  0.76823937016E+02  0.00000000000E+00 0. -1.
        -12    1    6    6    0    0 -0.53272508728E+02  0.20230878054E+02  0.50463429470E+02  0.76117056740E+02  0.00000000000E+00 0.  1.
</event>
<event>
12    1  0.8494789E-002  0.3130141E+03  0.7818608E-02  0.1078935E+00
         21   -1    0    0  501  502  0.00000000000E+00  0.00000000000E+00  0.19921533902E+04  0.19921533902E+04  0.00000000000E+00 0.  1.
         21   -1    0    0  502  503 -0.00000000000E+00 -0.00000000000E+00 -0.44278931012E+03  0.44278931012E+03  0.00000000000E+00 0. -1.
         -6    2    1    2    0  503  0.32042344628E+02  0.25908186961E+03 -0.37326221008E+03  0.48700284925E+03  0.17232809026E+03 0.  0.
        -24    2    3    3    0    0  0.35037745780E+02  0.19823188152E+03 -0.36640965717E+03  0.42551511909E+03  0.79268891909E+02 0.  0.
          6    2    1    2  501    0 -0.32042344628E+02 -0.25908186961E+03  0.19226262902E+04  0.19479398511E+04  0.17270693317E+03 0.  0.
         24    2    5    5    0    0 -0.35120810118E+02 -0.27466481201E+03  0.18838888980E+04  0.19058093326E+04  0.79985008523E+02 0.  0.
          5    1    5    5  501    0  0.30784654905E+01  0.15582942393E+02  0.38737392142E+02  0.42130518550E+02  0.47000000000E+01 0. -1.
        -13    1    6    6    0    0  0.14231580527E+02 -0.16972063411E+03  0.12266470097E+04  0.12384145178E+04  0.00000000000E+00 0.  1.
         14    1    6    6    0    0 -0.49352390646E+02 -0.10494417790E+03  0.65724188832E+03  0.66739481471E+03  0.00000000000E+00 0. -1.
         -5    1    3    3    0  503 -0.29954011518E+01  0.60849988096E+02 -0.68525529088E+01  0.61487730164E+02  0.47000000000E+01 0.  1.
         13    1    4    4    0    0  0.15385369282E+02  0.97331263118E+02 -0.25770841041E+03  0.27590525396E+03  0.00000000000E+00 0. -1.
        -14    1    4    4    0    0  0.19652376498E+02  0.10090061840E+03 -0.10870124676E+03  0.14960986513E+03  0.00000000000E+00 0.  1.
</event>
<event>
12    1  0.8494789E-002  0.1740284E+03  0.7818608E-02  0.1174255E+00
         21   -1    0    0  501  502  0.00000000000E+00  0.00000000000E+00  0.14180994166E+03  0.14180994166E+03  0.00000000000E+00 0. -1.
         21   -1    0    0  502  503 -0.00000000000E+00 -0.00000000000E+00 -0.22861902670E+03  0.22861902670E+03  0.00000000000E+00 0. -1.
         -6    2    1    2    0  503 -0.16566460376E+02 -0.21796426005E+02  0.83329386565E+01  0.17209111457E+03  0.16969496767E+03 0.  0.
        -24    2    3    3    0    0  0.69210853492E+01  0.14684911305E+02 -0.48364508692E+02  0.10054222701E+03  0.86637553452E+02 0.  0.
          6    2    1    2  501    0  0.16566460376E+02  0.21796426005E+02 -0.95142023694E+02  0.19833785379E+03  0.17186147846E+03 0.  0.
         24    2    5    5    0    0  0.42767739126E+02 -0.32537237701E+02 -0.10070618313E+03  0.13757846036E+03  0.76800690671E+02 0.  0.
          5    1    5    5  501    0 -0.26201278750E+02  0.54333663706E+02  0.55641594315E+01  0.60759393431E+02  0.47000000000E+01 0. -1.
        -11    1    6    6    0    0 -0.21455777948E+02 -0.12467035445E+02 -0.39331276745E+02  0.46505125637E+02  0.00000000000E+00 0.  1.
         12    1    6    6    0    0  0.64223517074E+02 -0.20070202257E+02 -0.61374906380E+02  0.91073334721E+02  0.00000000000E+00 0. -1.
         -5    1    3    3    0  503 -0.23487545725E+02 -0.36481337309E+02  0.56697447349E+02  0.71548887566E+02  0.47000000000E+01 0.  1.
         13    1    4    4    0    0 -0.31569383295E+02 -0.73400536126E+01  0.31556544944E+01  0.32564712557E+02  0.00000000000E+00 0. -1.
        -14    1    4    4    0    0  0.38490468644E+02  0.22024964917E+02 -0.51520163186E+02  0.67977514450E+02  0.00000000000E+00 0.  1.
</event>
<event>
12    1  0.8494789E-002  0.2090509E+03  0.7818608E-02  0.1142426E+00
         21   -1    0    0  503  502  0.00000000000E+00  0.00000000000E+00  0.15443131233E+03  0.15443131233E+03  0.00000000000E+00 0.  1.
         21   -1    0    0  501  503 -0.00000000000E+00 -0.00000000000E+00 -0.40471916501E+03  0.40471916501E+03  0.00000000000E+00 0. -1.
          6    2    1    2  501    0  0.11240514025E+03  0.36190567306E+02 -0.27903474556E+03  0.34865840218E+03  0.17250396942E+03 0.  0.
         24    2    3    3    0    0  0.39686373932E+02  0.53608695494E+01 -0.46015475111E+02  0.10257191405E+03  0.82461059927E+02 0.  0.
         -6    2    1    2    0  502 -0.11240514025E+03 -0.36190567306E+02  0.28746892881E+02  0.21049207516E+03  0.17185999283E+03 0.  0.
        -24    2    5    5    0    0  0.16684746712E+02 -0.57985577876E+01 -0.17773118452E+02  0.69871754388E+02  0.65224031434E+02 0.  0.
          5    1    3    3  501    0  0.72718766321E+02  0.30829697756E+02 -0.23301927045E+03  0.24608648813E+03  0.47000000000E+01 0. -1.
        -13    1    4    4    0    0  0.37785217306E+02 -0.12101339186E+02  0.12403444895E+02  0.41569345703E+02  0.00000000000E+00 0.  1.
         14    1    4    4    0    0  0.19011566266E+01  0.17462208735E+02 -0.58418920005E+02  0.61002568348E+02  0.00000000000E+00 0. -1.
         -5    1    5    5    0  502 -0.12908988697E+03 -0.30392009518E+02  0.46520011333E+02  0.14062032077E+03  0.47000000000E+01 0.  1.
         11    1    6    6    0    0  0.56755926184E+01 -0.33516588168E+02  0.20581397799E+01  0.34055982930E+02  0.00000000000E+00 0. -1.
        -12    1    6    6    0    0  0.11009154094E+02  0.27718030380E+02 -0.19831258232E+02  0.35815771458E+02  0.00000000000E+00 0.  1.
</event>
<event>
12    1  0.8494789E-002  0.1801090E+03  0.7818608E-02  0.1168080E+00
         21   -1    0    0  501  502  0.00000000000E+00  0.00000000000E+00  0.41544192203E+02  0.41544192203E+02  0.00000000000E+00 0.  1.
         21   -1    0    0  502  503 -0.00000000000E+00 -0.00000000000E+00 -0.89954775296E+03  0.89954775296E+03  0.00000000000E+00 0. -1.
         -6    2    1    2    0  503  0.23704986115E+01 -0.47602299730E+02 -0.60314952351E+03  0.62901852597E+03  0.17205627017E+03 0.  0.
        -24    2    3    3    0    0 -0.44002061511E+02 -0.37843437737E+02 -0.19772794436E+03  0.22080976007E+03  0.79324037751E+02 0.  0.
          6    2    1    2  501    0 -0.23704986115E+01  0.47602299730E+02 -0.25485403725E+03  0.31207341920E+03  0.17368834290E+03 0.  0.
         24    2    5    5    0    0  0.36506208781E+02  0.89005663014E+02 -0.17801928211E+03  0.21641095808E+03  0.76734129598E+02 0.  0.
          5    1    5    5  501    0 -0.38876707393E+02 -0.41403363284E+02 -0.76834755142E+02  0.95662461115E+02  0.47000000000E+01 0. -1.
        -13    1    6    6    0    0  0.35405654970E+02  0.34270277525E+02 -0.27910574763E+02  0.56630490984E+02  0.00000000000E+00 0.  1.
         14    1    6    6    0    0  0.11005538118E+01  0.54735385489E+02 -0.15010870735E+03  0.15978046710E+03  0.00000000000E+00 0. -1.
         -5    1    3    3    0  503  0.46372560122E+02 -0.97588619922E+01 -0.40542157915E+03  0.40820876590E+03  0.47000000000E+01 0.  1.
         13    1    4    4    0    0 -0.14173973024E+02  0.11758287890E+02 -0.13179753737E+03  0.13307798354E+03  0.00000000000E+00 0. -1.
        -14    1    4    4    0    0 -0.29828088487E+02 -0.49601725627E+02 -0.65930406985E+02  0.87731776530E+02  0.00000000000E+00 0.  1.
</event>
<event>
12    1  0.8494789E-002  0.1883566E+03  0.7818608E-02  0.1160702E+00
         21   -1    0    0  503  502  0.00000000000E+00  0.00000000000E+00  0.58771384319E+03  0.58771384319E+03  0.00000000000E+00 0.  1.
         21   -1    0    0  501  503 -0.00000000000E+00 -0.00000000000E+00 -0.66234803498E+02  0.66234803498E+02  0.00000000000E+00 0.  1.
          6    2    1    2  501    0  0.76353153092E+02 -0.11636624645E+02  0.15718242910E+03  0.24532535270E+03  0.17179347381E+03 0.  0.
         24    2    3    3    0    0  0.21705471987E+02 -0.65995374478E+02  0.11425695770E+03  0.15697418504E+03  0.82217549337E+02 0.  0.
         -6    2    1    2    0  502 -0.76353153092E+02  0.11636624645E+02  0.36429661060E+03  0.40862329399E+03  0.16821343845E+03 0.  0.
        -24    2    5    5    0    0 -0.79183973212E+02 -0.50261063420E+02  0.24763689056E+03  0.27644569525E+03  0.79384612755E+02 0.  0.
          5    1    3    3  501    0  0.54647681105E+02  0.54358749833E+02  0.42925471402E+02  0.88351167670E+02  0.47000000000E+01 0. -1.
        -11    1    4    4    0    0 -0.83156325599E+01 -0.36552264895E+02  0.25014629944E+01  0.37569603817E+02  0.00000000000E+00 0.  1.
         12    1    4    4    0    0  0.30021104547E+02 -0.29443109583E+02  0.11175549470E+03  0.11940458122E+03  0.00000000000E+00 0. -1.
         -5    1    5    5    0  502  0.28308201203E+01  0.61897688065E+02  0.11665972004E+03  0.13217759874E+03  0.47000000000E+01 0.  1.
         11    1    6    6    0    0  0.15916645663E+02 -0.20939391777E+01  0.27173414389E+02  0.31561347246E+02  0.00000000000E+00 0. -1.
        -12    1    6    6    0    0 -0.95100618876E+02 -0.48167124242E+02  0.22046347617E+03  0.24488434800E+03  0.00000000000E+00 0.  1.
</event>
<event>
12    1  0.8494789E-002  0.2286371E+03  0.7818608E-02  0.1127905E+00
         21   -1    0    0  501  502  0.00000000000E+00  0.00000000000E+00  0.53473093725E+03  0.53473093725E+03  0.00000000000E+00 0. -1.
         21   -1    0    0  502  503 -0.00000000000E+00 -0.00000000000E+00 -0.12817617819E+03  0.12817617819E+03  0.00000000000E+00 0.  1.
         -6    2    1    2    0  503 -0.10088418852E+03 -0.11304731628E+03  0.36722489021E+03  0.43258415105E+03  0.17122386673E+03 0.  0.
        -24    2    3    3    0    0 -0.11528212358E+03 -0.28853963803E+02  0.19997810637E+03  0.24472942569E+03  0.76017955286E+02 0.  0.
          6    2    1    2  501    0  0.10088418852E+03  0.11304731628E+03  0.39329868845E+02  0.23032296439E+03  0.16895121820E+03 0.  0.
         24    2    5    5    0    0  0.88349804375E+01  0.10633063733E+03  0.18513580514E+02  0.13559399129E+03  0.81600958920E+02 0.  0.
          5    1    5    5  501    0  0.92049208081E+02  0.67166789533E+01  0.20816288331E+02  0.94728973099E+02  0.47000000000E+01 0. -1.
        -13    1    6    6    0    0  0.38010670775E+02  0.56997974803E+02 -0.13672380521E+02  0.69860677162E+02  0.00000000000E+00 0.  1.
         14    1    6    6    0    0 -0.29175690338E+02  0.49332662527E+02  0.32185961036E+02  0.65733314129E+02  0.00000000000E+00 0. -1.
         -5    1    3    3    0  503  0.14397935065E+02 -0.84193352479E+02  0.16724678384E+03  0.18785472536E+03  0.47000000000E+01 0.  1.
         11    1    4    4    0    0 -0.43178008281E+02 -0.19460858868E+02  0.14787904384E+03  0.15527806360E+03  0.00000000000E+00 0. -1.
        -12    1    4    4    0    0 -0.72104115303E+02 -0.93931049355E+01  0.52099062530E+02  0.89451362094E+02  0.00000000000E+00 0.  1.
</event>
<event>
12    1  0.8494789E-002  0.1957933E+03  0.7818608E-02  0.1154227E+00
         21   -1    0    0  503  502  0.00000000000E+00  0.00000000000E+00  0.29866201173E+03  0.29866201173E+03  0.00000000000E+00 0.  1.
         21   -1    0    0  501  503 -0.00000000000E+00 -0.00000000000E+00 -0.13875869832E+03  0.13875869832E+03  0.00000000000E+00 0. -1.
          6    2    1    2  501    0  0.15864904876E+01  0.83347457970E+02  0.12133137719E+02  0.19212287187E+03  0.17266924787E+03 0.  0.
         24    2    3    3    0    0 -0.63544825565E+02  0.32648869942E+02 -0.59997850252E+01  0.10748642554E+03  0.80083960261E+02 0.  0.
         -6    2    1    2    0  502 -0.15864904876E+01 -0.83347457970E+02  0.14777017568E+03  0.24529783819E+03  0.17716006574E+03 0.  0.
        -24    2    5    5    0    0 -0.67611434332E+02 -0.30568767865E+02  0.99541274776E+02  0.14786580946E+03  0.80312368922E+02 0.  0.
          5    1    3    3  501    0  0.65131316053E+02  0.50698588028E+02  0.18132922744E+02  0.84636446322E+02  0.47000000000E+01 0. -1.
        -13    1    4    4    0    0 -0.74209984505E+01  0.26406124769E+02  0.29896668998E+02  0.40572964650E+02  0.00000000000E+00 0.  1.
         14    1    4    4    0    0 -0.56123827115E+02  0.62427451731E+01 -0.35896454023E+02  0.66913460893E+02  0.00000000000E+00 0. -1.
         -5    1    5    5    0  502  0.66024943844E+02 -0.52778690105E+02  0.48228900909E+02  0.97432028726E+02  0.47000000000E+01 0.  1.
         13    1    6    6    0    0 -0.30161990533E+02 -0.68297632470E+01 -0.76570633885E+01  0.31859409264E+02  0.00000000000E+00 0. -1.
        -14    1    6    6    0    0 -0.37449443799E+02 -0.23739004618E+02  0.10719833816E+03  0.11600640020E+03  0.00000000000E+00 0.  1.
</event>
<event>
12    1  0.8494789E-002  0.1840302E+03  0.7818608E-02  0.1164054E+00
         21   -1    0    0  503  502  0.00000000000E+00  0.00000000000E+00  0.28952890870E+02  0.28952890870E+02  0.00000000000E+00 0. -1.
         21   -1    0    0  501  503 -0.00000000000E+00 -0.00000000000E+00 -0.15490720839E+04  0.15490720839E+04  0.00000000000E+00 0. -1.
          6    2    1    2  501    0 -0.56797052305E+02 -0.26450059772E+02 -0.11524668325E+04  0.11670676582E+04  0.17303643547E+03 0.  0.
         24    2    3    3    0    0 -0.30249349209E+02  0.51662814119E+02 -0.68922798635E+03  0.69651615178E+03  0.80718418238E+02 0.  0.
         -6    2    1    2    0  502  0.56797052305E+02  0.26450059772E+02 -0.36765236052E+03  0.41095731656E+03  0.17260401798E+03 0.  0.
        -24    2    5    5    0    0  0.82734818343E+02  0.12399654634E+02 -0.36335061882E+03  0.38077824147E+03  0.77263156666E+02 0.  0.
          5    1    3    3  501    0 -0.26547703096E+02 -0.78112873892E+02 -0.46323884611E+03  0.47055150638E+03  0.47000000000E+01 0. -1.
        -13    1    4    4    0    0 -0.51552714058E+02  0.14515742714E+02 -0.47801175074E+03  0.48100272656E+03  0.00000000000E+00 0.  1.
         14    1    4    4    0    0  0.21303364849E+02  0.37147071405E+02 -0.21121623561E+03  0.21551342523E+03  0.00000000000E+00 0. -1.
         -5    1    5    5    0  502 -0.25937766038E+02  0.14050405139E+02 -0.43017417027E+01  0.30179075090E+02  0.47000000000E+01 0.  1.
         11    1    6    6    0    0  0.16511600674E+02  0.79089826897E+01 -0.24004953735E+03  0.24074668294E+03  0.00000000000E+00 0. -1.
        -12    1    6    6    0    0  0.66223217668E+02  0.44906719440E+01 -0.12330108147E+03  0.14003155853E+03  0.00000000000E+00 0.  1.
</event>
<event>
12    1  0.8494789E-002  0.1833227E+03  0.7818608E-02  0.1165301E+00
         21   -1    0    0  503  502  0.00000000000E+00  0.00000000000E+00  0.72064557639E+02  0.72064557639E+02  0.00000000000E+00 0.  1.
         21   -1    0    0  501  503 -0.00000000000E+00 -0.00000000000E+00 -0.46441483183E+03  0.46441483183E+03  0.00000000000E+00 0.  1.
          6    2    1    2  501    0  0.60715973031E+02 -0.14816774557E+01 -0.22620334674E+03  0.29116178425E+03  0.17296995629E+03 0.  0.
         24    2    3    3    0    0 -0.31228035222E+02 -0.70548588202E+01 -0.81478737127E+02  0.11954574877E+03  0.81409091808E+02 0.  0.
         -6    2    1    2    0  502 -0.60715973031E+02  0.14816774557E+01 -0.16614692745E+03  0.24531760523E+03  0.16996264643E+03 0.  0.
        -24    2    5    5    0    0 -0.28795402284E+02  0.66730513748E+02 -0.94381205838E+02  0.14309851565E+03  0.79292096128E+02 0.  0.
          5    1    3    3  501    0  0.91944008253E+02  0.55731813645E+01 -0.14472460961E+03  0.17161603547E+03  0.47000000000E+01 0. -1.
        -11    1    4    4    0    0 -0.42379118485E+01 -0.99714644358E+01 -0.90341133685E+02  0.90988518151E+02  0.00000000000E+00 0.  1.
         12    1    4    4    0    0 -0.26990123373E+02  0.29166056156E+01  0.88623965584E+01  0.28557230622E+02  0.00000000000E+00 0. -1.
         -5    1    5    5    0  502 -0.31920570746E+02 -0.65248836292E+02 -0.71765721617E+02  0.10221908957E+03  0.47000000000E+01 0.  1.
         13    1    6    6    0    0  0.19509872529E+02 -0.58510473583E+01 -0.18478182846E+02  0.27501147659E+02  0.00000000000E+00 0. -1.
        -14    1    6    6    0    0 -0.48305274813E+02  0.72581561106E+02 -0.75903022991E+02  0.11559736799E+03  0.00000000000E+00 0.  1.
</event>
<event>
12    1  0.8494789E-002  0.1769796E+03  0.7818608E-02  0.1171123E+00
         21   -1    0    0  503  502  0.00000000000E+00  0.00000000000E+00  0.93002957316E+02  0.93002957316E+02  0.00000000000E+00 0. -1.
         21   -1    0    0  501  503 -0.00000000000E+00 -0.00000000000E+00 -0.33643680368E+03  0.33643680368E+03  0.00000000000E+00 0. -1.
          6    2    1    2  501    0  0.26077006322E+02  0.37703736783E+02 -0.14050007324E+03  0.22596911527E+03  0.17093913668E+03 0.  0.
         24    2    3    3    0    0  0.74209979932E+02 -0.89955050407E+01 -0.77107267466E+02  0.13356597593E+03  0.79412209382E+02 0.  0.
         -6    2    1    2    0  502 -0.26077006322E+02 -0.37703736783E+02 -0.10293377312E+03  0.20347064572E+03  0.16942065989E+03 0.  0.
        -24    2    5    5    0    0 -0.23000162254E+02  0.35903120220E+02 -0.22487003654E+02  0.94286356171E+02  0.81032154861E+02 0.  0.
          5    1    3    3  501    0 -0.48132973610E+02  0.46699241824E+02 -0.63392805776E+02  0.92403139338E+02  0.47000000000E+01 0. -1.
        -11    1    4    4    0    0  0.13119405490E+02 -0.20531845015E+02  0.10175808575E+02  0.26404971886E+02  0.00000000000E+00 0.  1.
         12    1    4    4    0    0  0.61090574441E+02  0.11536339974E+02 -0.87283076041E+02  0.10716100405E+03  0.00000000000E+00 0. -1.
         -5    1    5    5    0  502 -0.30768440678E+01 -0.73606857002E+02 -0.80446769470E+02  0.10918428955E+03  0.47000000000E+01 0.  1.
         13    1    6    6    0    0 -0.37304612532E+02 -0.13660515364E+02 -0.13256323645E+02  0.41880471735E+02  0.00000000000E+00 0. -1.
        -14    1    6    6    0    0  0.14304450278E+02  0.49563635584E+02 -0.92306800091E+01  0.52405884435E+02  0.00000000000E+00 0.  1.
</event>
<event>
12    1  0.8494789E-002  0.2378614E+03  0.7818608E-02  0.1121395E+00
         21   -1    0    0  503  502  0.00000000000E+00  0.00000000000E+00  0.98648731918E+02  0.98648731918E+02  0.00000000000E+00 0. -1.
         21   -1    0    0  501  503 -0.00000000000E+00 -0.00000000000E+00 -0.12091533225E+04  0.12091533225E+04  0.00000000000E+00 0.  1.
          6    2    1    2  501    0  0.14040949548E+03  0.82093876946E+02 -0.10308056926E+04  0.10578933926E+04  0.17356215988E+03 0.  0.
         24    2    3    3    0    0  0.16593946441E+03  0.55329272877E+02 -0.72999129144E+03  0.75477704986E+03  0.78764682010E+02 0.  0.
         -6    2    1    2    0  502 -0.14040949548E+03 -0.82093876946E+02 -0.79698898013E+02  0.24990866176E+03  0.17218650883E+03 0.  0.
        -24    2    5    5    0    0 -0.53162219947E+02 -0.11095441287E+03 -0.28891526293E+02  0.14479683253E+03  0.70670354848E+02 0.  0.
          5    1    3    3  501    0 -0.25529968928E+02  0.26764604069E+02 -0.30081440111E+03  0.30311634278E+03  0.47000000000E+01 0. -1.
        -13    1    4    4    0    0  0.87910379853E+02  0.17498961033E+02 -0.22157663925E+03  0.23902019912E+03  0.00000000000E+00 0.  1.
         14    1    4    4    0    0  0.78029084560E+02  0.37830311845E+02 -0.50841465219E+03  0.51575685074E+03  0.00000000000E+00 0. -1.
         -5    1    5    5    0  502 -0.87247275537E+02  0.28860535924E+02 -0.50807371719E+02  0.10511182923E+03  0.47000000000E+01 0.  1.
         11    1    6    6    0    0 -0.64353249408E+02 -0.87954003365E+02 -0.39249026761E+01  0.10905343772E+03  0.00000000000E+00 0. -1.
        -12    1    6    6    0    0  0.11191029462E+02 -0.23000409506E+02 -0.24966623617E+02  0.35743394812E+02  0.00000000000E+00 0.  1.
</event>
<event>
12    1  0.8494789E-002  0.2037869E+03  0.7818608E-02  0.1146609E+00
         21   -1    0    0  503  502  0.00000000000E+00  0.00000000000E+00  0.15323384813E+04  0.15323384813E+04  0.00000000000E+00 0.  1.
         21   -1    0    0  501  503 -0.00000000000E+00 -0.00000000000E+00 -0.27609474835E+02  0.27609474835E+02  0.00000000000E+00 0. -1.
          6    2    1    2  501    0  0.10759003051E+03  0.12505296126E+02  0.64509343226E+03  0.67651655373E+03  0.17261840579E+03 0.  0.
         24    2    3    3    0    0  0.37982140633E+02  0.71065023188E+02  0.35834769668E+03  0.37565162250E+03  0.78792063318E+02 0.  0.
         -6    2    1    2    0  502 -0.10759003051E+03 -0.12505296126E+02  0.85963557421E+03  0.88343140242E+03  0.17246949074E+03 0.  0.
        -24    2    5    5    0    0 -0.60809522627E+02  0.74030086927E+01  0.21936934033E+03  0.24113264268E+03  0.79179803661E+02 0.  0.
          5    1    3    3  501    0  0.69607889878E+02 -0.58559727063E+02  0.28674573558E+03  0.30086493123E+03  0.47000000000E+01 0. -1.
        -11    1    4    4    0    0  0.31149150329E+01 -0.77930153263E+01  0.14909534374E+03  0.14933136076E+03  0.00000000000E+00 0.  1.
         12    1    4    4    0    0  0.34867225600E+02  0.78858038514E+02  0.20925235295E+03  0.22632026174E+03  0.00000000000E+00 0. -1.
         -5    1    5    5    0  502 -0.46780507885E+02 -0.19908304818E+02  0.64026623388E+03  0.64229875974E+03  0.47000000000E+01 0.  1.
         13    1    6    6    0    0 -0.25585487053E+02 -0.34751863870E+02  0.12097794269E+03  0.12844443081E+03  0.00000000000E+00 0. -1.
        -14    1    6    6    0    0 -0.35224035574E+02  0.42154872563E+02  0.98391397640E+02  0.11268821186E+03  0.00000000000E+00 0.  1.
</event>
<event>
12    1  0.8494789E-002  0.1787767E+03  0.7818608E-02  0.1169336E+00
         21   -1    0    0  501  502  0.00000000000E+00  0.00000000000E+00  0.44589244313E+03  0.44589244313E+03  0.00000000000E+00 0. -1.
         21   -1    0    0  502  503 -0.00000000000E+00 -0.00000000000E+00 -0.71121239404E+02  0.71121239404E+02  0.00000000000E+00 0.  1.
         -6    2    1    2    0  503  0.42612594373E+02  0.30139643356E+01  0.18837563478E+03  0.25874168934E+03  0.17215389872E+03 0.  0.
        -24    2    3    3    0    0 -0.18659630822E+02  0.52825181945E+02  0.87936142216E+02  0.13089168095E+03  0.79127652330E+02 0.  0.
          6    2    1    2  501    0 -0.42612594373E+02 -0.30139643356E+01  0.18639556895E+03  0.25827199320E+03  0.17359780288E+03 0.  0.
         24    2    5    5    0    0 -0.26492835702E+02 -0.64987242184E+02  0.73608848135E+02  0.12848960541E+03  0.78524545110E+02 0.  0.
          5    1    5    5  501    0 -0.16119758671E+02  0.61973277848E+02  0.11278672082E+03  0.12978238779E+03  0.47000000000E+01 0. -1.
        -13    1    6    6    0    0  0.56010345129E+01 -0.69848659151E+01 -0.15216656312E+02  0.17655213643E+02  0.00000000000E+00 0.  1.
         14    1    6    6    0    0 -0.32093870215E+02 -0.58002376269E+02  0.88825504448E+02  0.11083439177E+03  0.00000000000E+00 0. -1.
         -5    1    3    3    0  503  0.61272225195E+02 -0.49811217609E+02  0.10043949256E+03  0.12785000839E+03  0.47000000000E+01 0.  1.
         13    1    4    4    0    0  0.23307856476E+02  0.48821578620E-01  0.45773886491E+02  0.51366401875E+02  0.00000000000E+00 0. -1.
        -14    1    4    4    0    0 -0.41967487298E+02  0.52776360366E+02  0.42162255725E+02  0.79525279072E+02  0.00000000000E+00 0.  1.
</event>
<event>
12    1  0.8494789E-002  0.2039959E+03  0.7818608E-02  0.1146596E+00
         21   -1    0    0  503  502  0.00000000000E+00  0.00000000000E+00  0.23273146060E+03  0.23273146060E+03  0.00000000000E+00 0.  1.
         21   -1    0    0  501  503 -0.00000000000E+00 -0.00000000000E+00 -0.24326568619E+03  0.24326568619E+03  0.00000000000E+00 0. -1.
          6    2    1    2  501    0  0.30193950755E+02  0.10378456847E+03 -0.12851302822E+03  0.24034207427E+03  0.17194709340E+03 0.  0.
         24    2    3    3    0    0  0.81632819025E+02  0.36118102742E+02 -0.68895552507E+02  0.13641401664E+03  0.76770777599E+02 0.  0.
         -6    2    1    2    0  502 -0.30193950755E+02 -0.10378456847E+03  0.11797880263E+03  0.23565507252E+03  0.17300694789E+03 0.  0.
        -24    2    5    5    0    0  0.46339583369E+02 -0.42361271121E+02  0.34902389416E+02  0.10699278692E+03  0.79293413272E+02 0.  0.
          5    1    3    3  501    0 -0.51438868269E+02  0.67666465727E+02 -0.59617475715E+02  0.10392805763E+03  0.47000000000E+01 0. -1.
        -13    1    4    4    0    0  0.25134694229E+02  0.51722264975E+02 -0.22858678005E+02  0.61882668884E+02  0.00000000000E+00 0.  1.
         14    1    4    4    0    0  0.56498124796E+02 -0.15604162233E+02 -0.46036874503E+02  0.74531347757E+02  0.00000000000E+00 0. -1.
         -5    1    5    5    0  502 -0.76533534125E+02 -0.61423297348E+02  0.83076413211E+02  0.12866228560E+03  0.47000000000E+01 0.  1.
         11    1    6    6    0    0  0.33113921053E+02 -0.63971581498E+01 -0.20620683871E+02  0.39530595786E+02  0.00000000000E+00 0. -1.
        -12    1    6    6    0    0  0.13225662316E+02 -0.35964112971E+02  0.55523073287E+02  0.67462191134E+02  0.00000000000E+00 0.  1.
</event>
<event>
12    1  0.8494789E-002  0.2165705E+03  0.7818608E-02  0.1136960E+00
         21   -1    0    0  503  502  0.00000000000E+00  0.00000000000E+00  0.51939165362E+03  0.51939165362E+03  0.00000000000E+00 0.  1.
         21   -1    0    0  501  503 -0.00000000000E+00 -0.00000000000E+00 -0.17891658697E+03  0.17891658697E+03  0.00000000000E+00 0.  1.
          6    2    1    2  501    0 -0.92610045164E+02 -0.99370470426E+02 -0.76453901821E+02  0.22966926004E+03  0.16867619584E+03 0.  0.
         24    2    3    3    0    0 -0.72957588203E+02 -0.16513645840E+02  0.91296150287E+01  0.10884665950E+03  0.78541296382E+02 0.  0.
         -6    2    1    2    0  502  0.92610045164E+02  0.99370470426E+02  0.41692896847E+03  0.46863898055E+03  0.16535301171E+03 0.  0.
        -24    2    5    5    0    0  0.11113373911E+03  0.28683733380E+02  0.33374820455E+03  0.35781988690E+03  0.58938466964E+02 0.  0.
          5    1    3    3  501    0 -0.19652456960E+02 -0.82856824587E+02 -0.85583516850E+02  0.12082260054E+03  0.47000000000E+01 0. -1.
        -11    1    4    4    0    0 -0.15449984810E+02 -0.22072580637E+02 -0.29030422456E+02  0.39606391840E+02  0.00000000000E+00 0.  1.
         12    1    4    4    0    0 -0.57507603393E+02  0.55589347972E+01  0.38160037485E+02  0.69240267655E+02  0.00000000000E+00 0. -1.
         -5    1    5    5    0  502 -0.18523693950E+02  0.70686737046E+02  0.83180763918E+02  0.11081909365E+03  0.47000000000E+01 0.  1.
         13    1    6    6    0    0  0.13454871587E+02  0.22732703593E+02  0.37829182720E+02  0.46139532370E+02  0.00000000000E+00 0. -1.
        -14    1    6    6    0    0  0.97678867527E+02  0.59510297877E+01  0.29591902183E+03  0.31168035453E+03  0.00000000000E+00 0.  1.
</event>
<event>
12    1  0.8494789E-002  0.2375747E+03  0.7818608E-02  0.1121560E+00
         21   -1    0    0  503  502  0.00000000000E+00  0.00000000000E+00  0.63519266065E+03  0.63519266065E+03  0.00000000000E+00 0. -1.
         21   -1    0    0  501  503 -0.00000000000E+00 -0.00000000000E+00 -0.90870731824E+02  0.90870731824E+02  0.00000000000E+00 0.  1.
          6    2    1    2  501    0  0.16027724752E+03 -0.31900994156E+02  0.32976120088E+03  0.40594147558E+03  0.17128795197E+03 0.  0.
         24    2    3    3    0    0  0.16639835860E+03 -0.60303912678E+02  0.22339282415E+03  0.29557610353E+03  0.78332007927E+02 0.  0.
         -6    2    1    2    0  502 -0.16027724752E+03  0.31900994156E+02  0.21456072796E+03  0.32012191690E+03  0.17243916665E+03 0.  0.
        -24    2    5    5    0    0 -0.16072686347E+03 -0.96745558318E+01  0.20484820983E+03  0.27716668998E+03  0.94508535547E+02 0.  0.
          5    1    3    3  501    0 -0.61211110717E+01  0.28402918522E+02  0.10636837672E+03  0.11036537205E+03  0.47000000000E+01 0. -1.
        -11    1    4    4    0    0  0.12126320850E+03 -0.43342545051E+01  0.13214757991E+03  0.17940606003E+03  0.00000000000E+00 0.  1.
         12    1    4    4    0    0  0.45135150094E+02 -0.55969658173E+02  0.91245244242E+02  0.11617004350E+03  0.00000000000E+00 0. -1.
         -5    1    5    5    0  502  0.44961594637E+00  0.41575549988E+02  0.97125181214E+01  0.42955226918E+02  0.47000000000E+01 0.  1.
         13    1    6    6    0    0 -0.42788015917E+02 -0.23480582605E+02  0.12468297563E+03  0.13389546847E+03  0.00000000000E+00 0. -1.
        -14    1    6    6    0    0 -0.11793884755E+03  0.13806026774E+02  0.80165234205E+02  0.14327122151E+03  0.00000000000E+00 0.  1.
</event>
<event>
12    1  0.8494789E-002  0.2230748E+03  0.7818608E-02  0.1132751E+00
         21   -1    0    0  501  502  0.00000000000E+00  0.00000000000E+00  0.27382994198E+03  0.27382994198E+03  0.00000000000E+00 0.  1.
         21   -1    0    0  502  503 -0.00000000000E+00 -0.00000000000E+00 -0.25972077171E+03  0.25972077171E+03  0.00000000000E+00 0.  1.
         -6    2    1    2    0  503  0.12834164071E+03 -0.35398160500E+02 -0.14377341127E+03  0.26025734220E+03  0.17128480339E+03 0.  0.
        -24    2    3    3    0    0  0.88458723649E+02  0.30280960698E+02 -0.37250090004E+02  0.12882788580E+03  0.80418732795E+02 0.  0.
          6    2    1    2  501    0 -0.12834164071E+03  0.35398160500E+02  0.15788258154E+03  0.27329337150E+03  0.17899092392E+03 0.  0.
         24    2    5    5    0    0 -0.78720579127E+02 -0.36838759256E+02  0.14260224036E+03  0.18420913521E+03  0.77740483516E+02 0.  0.
          5    1    5    5  501    0 -0.49621061587E+02  0.72236919756E+02  0.15280341173E+02  0.89084236289E+02  0.47000000000E+01 0. -1.
        -11    1    6    6    0    0 -0.29891597566E+01 -0.16998148074E+02  0.85716546814E+02  0.87436825833E+02  0.00000000000E+00 0.  1.
         12    1    6    6    0    0 -0.75731419370E+02 -0.19840611182E+02  0.56885693548E+02  0.96772309378E+02  0.00000000000E+00 0. -1.
         -5    1    3    3    0  503  0.39882917065E+02 -0.65679121198E+02 -0.10652332126E+03  0.13142945639E+03  0.47000000000E+01 0.  1.
         13    1    4    4    0    0  0.45498860387E+02  0.65634303627E+01  0.22770418111E+02  0.51300261750E+02  0.00000000000E+00 0. -1.
        -14    1    4    4    0    0  0.42959863261E+02  0.23717530335E+02 -0.60020508115E+02  0.77527624052E+02  0.00000000000E+00 0.  1.
</event>
<event>
12    1  0.8494789E-002  0.2505327E+03  0.7818608E-02  0.1113066E+00
         21   -1    0    0  501  502  0.00000000000E+00  0.00000000000E+00  0.81480024321E+03  0.81480024321E+03  0.00000000000E+00 0.  1.
         21   -1    0    0  502  503 -0.00000000000E+00 -0.00000000000E+00 -0.12142668109E+03  0.12142668109E+03  0.00000000000E+00 0.  1.
         -6    2    1    2    0  503  0.61683400761E+02  0.17153923694E+03  0.63309986144E+02  0.25840814960E+03  0.17186059961E+03 0.  0.
        -24    2    3    3    0    0  0.36757029514E+02  0.17138089624E+03 -0.17472129789E+01  0.18858066065E+03  0.69549421313E+02 0.  0.
          6    2    1    2  501    0 -0.61683400761E+02 -0.17153923694E+03  0.63006357598E+03  0.67781877469E+03  0.17096090141E+03 0.  0.
         24    2    5    5    0    0 -0.35618057455E+02 -0.18395954031E+02  0.29582298668E+03  0.30921176343E+03  0.80582988588E+02 0.  0.
          5    1    5    5  501    0 -0.26065343306E+02 -0.15314328291E+03  0.33424058929E+03  0.36860701126E+03  0.47000000000E+01 0. -1.
        -13    1    6    6    0    0 -0.46825194813E+02 -0.13583576949E+02  0.84650557854E+02  0.97687406440E+02  0.00000000000E+00 0.  1.
         14    1    6    6    0    0  0.11207137359E+02 -0.48123770821E+01  0.21117242883E+03  0.21152435699E+03  0.00000000000E+00 0. -1.
         -5    1    3    3    0  503  0.24926371247E+02  0.15834069716E+00  0.65057199123E+02  0.69827488950E+02  0.47000000000E+01 0.  1.
         13    1    4    4    0    0  0.56356297794E+01 -0.37108369865E+01 -0.82101885468E+01  0.10627221185E+02  0.00000000000E+00 0. -1.
        -14    1    4    4    0    0  0.31121399735E+02  0.17509173323E+03  0.64629755679E+01  0.17795343947E+03  0.00000000000E+00 0.  1.
</event>
<event>
12    1  0.8494789E-002  0.3335682E+03  0.7818608E-02  0.1070245E+00
         21   -1    0    0  503  502  0.00000000000E+00  0.00000000000E+00  0.30457310023E+03  0.30457310023E+03  0.00000000000E+00 0.  1.
         21   -1    0    0  501  503 -0.00000000000E+00 -0.00000000000E+00 -0.43615243869E+03  0.43615243869E+03  0.00000000000E+00 0. -1.
          6    2    1    2  501    0 -0.21134783458E+03  0.18174750377E+03 -0.22242952759E+03  0.40092718999E+03  0.18321477730E+03 0.  0.
         24    2    3    3    0    0 -0.65554448681E+02  0.13215783729E+03 -0.16988947459E+03  0.23814698983E+03  0.78028683780E+02 0.  0.
         -6    2    1    2    0  502  0.21134783458E+03 -0.18174750377E+03  0.90850189132E+02  0.33979834892E+03  0.17178212583E+03 0.  0.
        -24    2    5    5    0    0  0.13668002048E+03 -0.15541790568E+03  0.12377469990E+03  0.25392260376E+03  0.79500685275E+02 0.  0.
          5    1    3    3  501    0 -0.14579338590E+03  0.49589666486E+02 -0.52540053004E+02  0.16278020016E+03  0.47000000000E+01 0. -1.
        -13    1    4    4    0    0 -0.31002774108E+01  0.27230287670E+02  0.17978519145E+01  0.27465115294E+02  0.00000000000E+00 0.  1.
         14    1    4    4    0    0 -0.62454171270E+02  0.10492754962E+03 -0.17168732650E+03  0.21068187454E+03  0.00000000000E+00 0. -1.
         -5    1    5    5    0  502  0.74667814105E+02 -0.26329598088E+02 -0.32924510767E+02  0.85875745167E+02  0.47000000000E+01 0.  1.
         11    1    6    6    0    0  0.49452616862E+02 -0.26081241031E+02  0.18711171370E+01  0.55940088733E+02  0.00000000000E+00 0. -1.
        -12    1    6    6    0    0  0.87227403616E+02 -0.12933666465E+03  0.12190358276E+03  0.19798251503E+03  0.00000000000E+00 0.  1.
</event>
<event>
12    1  0.8494789E-002  0.1804114E+03  0.7818608E-02  0.1167700E+00
         21   -1    0    0  501  502  0.00000000000E+00  0.00000000000E+00  0.19427820216E+03  0.19427820216E+03  0.00000000000E+00 0.  1.
         21   -1    0    0  502  503 -0.00000000000E+00 -0.00000000000E+00 -0.47367095355E+03  0.47367095355E+03  0.00000000000E+00 0.  1.
         -6    2    1    2    0  503 -0.48774314890E+02 -0.22409753037E+02 -0.40884905057E+03  0.44688458908E+03  0.17224157158E+03 0.  0.
        -24    2    3    3    0    0 -0.34359337501E+02 -0.69605284545E+02 -0.17384457581E+03  0.20670881402E+03  0.80505512520E+02 0.  0.
          6    2    1    2  501    0  0.48774314890E+02  0.22409753037E+02  0.12945629918E+03  0.22106456663E+03  0.17096630778E+03 0.  0.
         24    2    5    5    0    0 -0.32444033356E+01  0.62860094824E+02  0.11632138291E+03  0.15370884510E+03  0.78318754253E+02 0.  0.
          5    1    5    5  501    0  0.52018718225E+02 -0.40450341788E+02  0.13134916275E+02  0.67355721525E+02  0.47000000000E+01 0. -1.
        -13    1    6    6    0    0  0.23710921238E+02  0.59539191374E+02  0.47644898062E+02  0.79857118698E+02  0.00000000000E+00 0.  1.
         14    1    6    6    0    0 -0.26955324573E+02  0.33209034504E+01  0.68676484845E+02  0.73851726406E+02  0.00000000000E+00 0. -1.
         -5    1    3    3    0  503 -0.14414977389E+02  0.47195531508E+02 -0.23500447476E+03  0.24017577506E+03  0.47000000000E+01 0.  1.
         13    1    4    4    0    0 -0.15251630584E+02 -0.69221789945E+02 -0.17369003644E+03  0.18759663429E+03  0.00000000000E+00 0. -1.
        -14    1    4    4    0    0 -0.19107706917E+02 -0.38349459998E+00 -0.15453937169E+00  0.19112179734E+02  0.00000000000E+00 0.  1.
</event>
<event>
12    1  0.8494789E-002  0.1856824E+03  0.7818608E-02  0.1162451E+00
         21   -1    0    0  503  502  0.00000000000E+00  0.00000000000E+00  0.14071169760E+03  0.14071169760E+03  0.00000000000E+00 0. -1.
         21   -1    0    0  501  503 -0.00000000000E+00 -0.00000000000E+00 -0.31383709776E+03  0.31383709776E+03  0.00000000000E+00 0.  1.
          6    2    1    2  501    0  0.43911279143E+02  0.51176977695E+02 -0.19311567791E+03  0.26779348299E+03  0.17283634164E+03 0.  0.
         24    2    3    3    0    0 -0.39719182733E+02  0.15371390857E+02 -0.12439777567E+03  0.15368680356E+03  0.79567165724E+02 0.  0.
         -6    2    1    2    0  502 -0.43911279143E+02 -0.51176977695E+02  0.19990277753E+02  0.18675531236E+03  0.17300477453E+03 0.  0.
        -24    2    5    5    0    0 -0.52078623466E+01  0.17872916009E+02  0.56954391685E+02  0.99266581598E+02  0.79142204499E+02 0.  0.
          5    1    3    3  501    0  0.83630461877E+02  0.35805586838E+02 -0.68717902240E+02  0.11410667943E+03  0.47000000000E+01 0. -1.
        -11    1    4    4    0    0 -0.39997041630E+02  0.41952148223E+02 -0.10766586323E+03  0.12227707956E+03  0.00000000000E+00 0.  1.
         12    1    4    4    0    0  0.27785889608E+00 -0.26580757366E+02 -0.16731912438E+02  0.31409723996E+02  0.00000000000E+00 0. -1.
         -5    1    5    5    0  502 -0.38703416797E+02 -0.69049893704E+02 -0.36964113932E+02  0.87488730766E+02  0.47000000000E+01 0.  1.
         13    1    6    6    0    0 -0.15384948130E+02 -0.28918815532E+02  0.17020164133E+02  0.36914502676E+02  0.00000000000E+00 0. -1.
        -14    1    6    6    0    0  0.10177085784E+02  0.46791731541E+02  0.39934227553E+02  0.62352078922E+02  0.00000000000E+00 0.  1.
</event>
<event>
12    1  0.8494789E-002  0.1779458E+03  0.7818608E-02  0.1169941E+00
         21   -1    0    0  501  502  0.00000000000E+00  0.00000000000E+00  0.71127647743E+02  0.71127647743E+02  0.00000000000E+00 0.  1.
         21   -1    0    0  502  503 -0.00000000000E+00 -0.00000000000E+00 -0.95650397901E+03  0.95650397901E+03  0.00000000000E+00 0.  1.
         -6    2    1    2    0  503 -0.40873507993E+02  0.31333517561E+01 -0.81854890161E+03  0.83755105588E+03  0.17259491685E+03 0.  0.
        -24    2    3    3    0    0 -0.52242929808E+02  0.52669773920E+02 -0.35953111240E+03  0.37570417466E+03  0.79922320265E+02 0.  0.
          6    2    1    2  501    0  0.40873507993E+02 -0.31333517561E+01 -0.66827429650E+02  0.19008057087E+03  0.17315962728E+03 0.  0.
         24    2    5    5    0    0 -0.15903580415E+02 -0.53255057307E+02 -0.12402470657E+02  0.96699687941E+02  0.78153588341E+02 0.  0.
          5    1    5    5  501    0  0.56777088409E+02  0.50121705551E+02 -0.54424958993E+02  0.93380882930E+02  0.47000000000E+01 0. -1.
        -11    1    6    6    0    0  0.30409545032E+02 -0.90503244425E+01 -0.15696077797E+01  0.31766530660E+02  0.00000000000E+00 0.  1.
         12    1    6    6    0    0 -0.46313125447E+02 -0.44204732864E+02 -0.10832862878E+02  0.64933157281E+02  0.00000000000E+00 0. -1.
         -5    1    3    3    0  503  0.11369421815E+02 -0.49536422164E+02 -0.45901778921E+03  0.46184688122E+03  0.47000000000E+01 0.  1.
         11    1    4    4    0    0 -0.25826546873E+02 -0.15684191832E+02 -0.58031972917E+02  0.65427167732E+02  0.00000000000E+00 0. -1.
        -12    1    4    4    0    0 -0.26416382935E+02  0.68353965752E+02 -0.30149913948E+03  0.31027700693E+03  0.00000000000E+00 0.  1.
</event>
<event>
12    1  0.8494789E-002  0.2078436E+03  0.7818608E-02  0.1143352E+00
         21   -1    0    0  501  502  0.00000000000E+00  0.00000000000E+00  0.92629426696E+03  0.92629426696E+03  0.00000000000E+00 0.  1.
         21   -1    0    0  502  503 -0.00000000000E+00 -0.00000000000E+00 -0.51215172856E+02  0.51215172856E+02  0.00000000000E+00 0. -1.
         -6    2    1    2    0  503 -0.93716472918E+02  0.68888438189E+02  0.28990241073E+03  0.35651772195E+03  0.17185192495E+03 0.  0.
        -24    2    3    3    0    0 -0.24757581574E+02 -0.62859389940E+01  0.21325118778E+03  0.22883054304E+03  0.78961366897E+02 0.  0.
          6    2    1    2  501    0  0.93716472918E+02 -0.68888438189E+02  0.58517668338E+03  0.62099171786E+03  0.17225146929E+03 0.  0.
         24    2    5    5    0    0  0.88476802081E+02 -0.10268740903E+03  0.36209288301E+03  0.39525227389E+03  0.82099059717E+02 0.  0.
          5    1    5    5  501    0  0.52396708374E+01  0.33798970841E+02  0.22308380037E+03  0.22573944398E+03  0.47000000000E+01 0. -1.
        -13    1    6    6    0    0  0.28221935038E+02 -0.70429930021E+02  0.27068719861E+03  0.28111992486E+03  0.00000000000E+00 0.  1.
         14    1    6    6    0    0  0.60254867043E+02 -0.32257479009E+02  0.91405684395E+02  0.11413234903E+03  0.00000000000E+00 0. -1.
         -5    1    3    3    0  503 -0.68958891344E+02  0.75174377183E+02  0.76651222946E+02  0.12768717892E+03  0.47000000000E+01 0.  1.
         13    1    4    4    0    0 -0.18800687311E+02 -0.37908977328E+02  0.68263369163E+02  0.80314656041E+02  0.00000000000E+00 0. -1.
        -14    1    4    4    0    0 -0.59568942631E+01  0.31623038334E+02  0.14498781862E+03  0.14851588699E+03  0.00000000000E+00 0.  1.
</event>
<event>
12    1  0.8494789E-002  0.2133667E+03  0.7818608E-02  0.1140211E+00
         21   -1    0    0  501  502  0.00000000000E+00  0.00000000000E+00  0.25502837910E+04  0.25502837910E+04  0.00000000000E+00 0. -1.
         21   -1    0    0  502  503 -0.00000000000E+00 -0.00000000000E+00 -0.17622624935E+02  0.17622624935E+02  0.00000000000E+00 0.  1.
         -6    2    1    2    0  503 -0.71799371795E+02  0.10244731714E+03  0.11147873925E+04  0.11350225947E+04  0.17284315810E+03 0.  0.
        -24    2    3    3    0    0 -0.63461678094E-01  0.28117549596E+02  0.78131647360E+03  0.78588666282E+03  0.79823644677E+02 0.  0.
          6    2    1    2  501    0  0.71799371795E+02 -0.10244731714E+03  0.14178737736E+04  0.14328838213E+04  0.16474041693E+03 0.  0.
         24    2    5    5    0    0  0.32979343064E+02 -0.29043522559E+01  0.39540654197E+03  0.40483852745E+03  0.80323269036E+02 0.  0.
          5    1    5    5  501    0  0.38820028731E+02 -0.99542964883E+02  0.10224672316E+04  0.10280452938E+04  0.47000000000E+01 0. -1.
        -11    1    6    6    0    0 -0.96482122660E+01 -0.28174406966E+02  0.76277643358E+02  0.81885066307E+02  0.00000000000E+00 0.  1.
         12    1    6    6    0    0  0.42627555330E+02  0.25270054710E+02  0.31912889861E+03  0.32295346114E+03  0.00000000000E+00 0. -1.
         -5    1    3    3    0  503 -0.71735910117E+02  0.74329767543E+02  0.33347091891E+03  0.34913593184E+03  0.47000000000E+01 0.  1.
         11    1    4    4    0    0 -0.61980945012E+01 -0.45097971852E+01  0.66181337769E+03  0.66185776534E+03  0.00000000000E+00 0. -1.
        -12    1    4    4    0    0  0.61346328231E+01  0.32627346781E+02  0.11950309591E+03  0.12402889748E+03  0.00000000000E+00 0.  1.
</event>
<event>
12    1  0.8494789E-002  0.1926685E+03  0.7818608E-02  0.1156678E+00
         21   -1    0    0  503  502  0.00000000000E+00  0.00000000000E+00  0.32862382937E+03  0.32862382937E+03  0.00000000000E+00 0. -1.
         21   -1    0    0  501  503 -0.00000000000E+00 -0.00000000000E+00 -0.17742055918E+03  0.17742055918E+03  0.00000000000E+00 0. -1.
          6    2    1    2  501    0 -0.29128409837E+01  0.81044480472E+02 -0.78425817121E+02  0.20801861792E+03  0.17476968889E+03 0.  0.
         24    2    3    3    0    0  0.54286411744E+02  0.49451824151E+01 -0.58246302344E+02  0.11059089859E+03  0.76591421099E+02 0.  0.
         -6    2    1    2    0  502  0.29128409837E+01 -0.81044480472E+02  0.22962908731E+03  0.29802577063E+03  0.17179391655E+03 0.  0.
        -24    2    5    5    0    0 -0.53645299984E+02 -0.48958109518E+02  0.19957716660E+03  0.22623742583E+03  0.77959045153E+02 0.  0.
          5    1    3    3  501    0 -0.57199252728E+02  0.76099298057E+02 -0.20179514777E+02  0.97427719331E+02  0.47000000000E+01 0. -1.
        -11    1    4    4    0    0  0.32445539525E+02  0.13158967035E+02  0.11652133597E+02  0.36900456174E+02  0.00000000000E+00 0.  1.
         12    1    4    4    0    0  0.21840872220E+02 -0.82137846204E+01 -0.69898435940E+02  0.73690442420E+02  0.00000000000E+00 0. -1.
         -5    1    5    5    0  502  0.56558140968E+02 -0.32086370954E+02  0.30051920710E+02  0.71788344800E+02  0.47000000000E+01 0.  1.
         11    1    6    6    0    0  0.13396697867E+01  0.19045515799E+02  0.35138423860E+02  0.39990439089E+02  0.00000000000E+00 0. -1.
        -12    1    6    6    0    0 -0.54984969771E+02 -0.68003625317E+02  0.16443874274E+03  0.18624698674E+03  0.00000000000E+00 0.  1.
</event>
<event>
12    1  0.8494789E-002  0.2333632E+03  0.7818608E-02  0.1125492E+00
         21   -1    0    0  503  502  0.00000000000E+00  0.00000000000E+00  0.83707674023E+02  0.83707674023E+02  0.00000000000E+00 0. -1.
         21   -1    0    0  501  503 -0.00000000000E+00 -0.00000000000E+00 -0.63225900190E+03  0.63225900190E+03  0.00000000000E+00 0.  1.
          6    2    1    2  501    0  0.13483910325E+03 -0.76780154157E+02 -0.25955923328E+03  0.34451709295E+03  0.16505834093E+03 0.  0.
         24    2    3    3    0    0  0.48877323947E+02  0.14902696037E+02 -0.76586644050E+02  0.12248954751E+03  0.80790420580E+02 0.  0.
         -6    2    1    2    0  502 -0.13483910325E+03  0.76780154157E+02 -0.28899209460E+03  0.37144958298E+03  0.17430314431E+03 0.  0.
        -24    2    5    5    0    0 -0.28217402455E+02  0.88430848137E+02 -0.17998528751E+03  0.21845121781E+03  0.81914553899E+02 0.  0.
          5    1    3    3  501    0  0.85961779308E+02 -0.91682850194E+02 -0.18297258923E+03  0.22202754543E+03  0.47000000000E+01 0. -1.
        -11    1    4    4    0    0  0.16889699777E+02  0.51838768001E+01 -0.85969682227E+02  0.87766285096E+02  0.00000000000E+00 0.  1.
         12    1    4    4    0    0  0.31987624170E+02  0.97188192368E+01  0.93830381776E+01  0.34723262416E+02  0.00000000000E+00 0. -1.
         -5    1    5    5    0  502 -0.10662170080E+03 -0.11650693981E+02 -0.10900680709E+03  0.15299836516E+03  0.47000000000E+01 0.  1.
         11    1    6    6    0    0 -0.86003507338E+01  0.54914390445E+02 -0.29283091376E+02  0.62825597897E+02  0.00000000000E+00 0. -1.
        -12    1    6    6    0    0 -0.19617051721E+02  0.33516457693E+02 -0.15070219613E+03  0.15562561992E+03  0.00000000000E+00 0.  1.
</event>
<event>
12    1  0.8494789E-002  0.1730902E+03  0.7818608E-02  0.1176054E+00
         21   -1    0    0  501  502  0.00000000000E+00  0.00000000000E+00  0.64486685348E+03  0.64486685348E+03  0.00000000000E+00 0.  1.
         21   -1    0    0  502  503 -0.00000000000E+00 -0.00000000000E+00 -0.46613866896E+02  0.46613866896E+02  0.00000000000E+00 0.  1.
         -6    2    1    2    0  503  0.18736635670E+02  0.11838038709E+01  0.23083154769E+03  0.28532959081E+03  0.16666526056E+03 0.  0.
        -24    2    3    3    0    0  0.42165336990E+02 -0.33591404818E+02  0.22291975775E+03  0.24240051436E+03  0.78476065441E+02 0.  0.
          6    2    1    2  501    0 -0.18736635670E+02 -0.11838038709E+01  0.36742143889E+03  0.40615112956E+03  0.17206906572E+03 0.  0.
         24    2    5    5    0    0  0.50650339411E+02 -0.24957863989E+02  0.23464674504E+03  0.25439155796E+03  0.80421501764E+02 0.  0.
          5    1    5    5  501    0 -0.69386975080E+02  0.23774060119E+02  0.13277469385E+03  0.15175957160E+03  0.47000000000E+01 0. -1.
        -13    1    6    6    0    0  0.31280593181E+02 -0.84567740902E+01  0.22477438393E+03  0.22709803216E+03  0.00000000000E+00 0.  1.
         14    1    6    6    0    0  0.19369746229E+02 -0.16501089899E+02  0.98723611072E+01  0.27293525802E+02  0.00000000000E+00 0. -1.
         -5    1    3    3    0  503 -0.23428701320E+02  0.34775208689E+02  0.79117899434E+01  0.42929076452E+02  0.47000000000E+01 0.  1.
         13    1    4    4    0    0 -0.15965057142E+02  0.93092869970E+01  0.81805745657E+02  0.83867311251E+02  0.00000000000E+00 0. -1.
        -14    1    4    4    0    0  0.58130394131E+02 -0.42900691815E+02  0.14111401209E+03  0.15853320311E+03  0.00000000000E+00 0.  1.
</event>
<event>
12    1  0.8494789E-002  0.2071117E+03  0.7818608E-02  0.1144284E+00
         21   -1    0    0  501  502  0.00000000000E+00  0.00000000000E+00  0.15493953427E+03  0.15493953427E+03  0.00000000000E+00 0.  1.
         21   -1    0    0  502  503 -0.00000000000E+00 -0.00000000000E+00 -0.34679329594E+03  0.34679329594E+03  0.00000000000E+00 0.  1.
         -6    2    1    2    0  503 -0.25053370487E+02 -0.11259645398E+03 -0.21036885121E+03  0.29379518804E+03  0.16957277534E+03 0.  0.
        -24    2    3    3    0    0 -0.64541695925E+02 -0.89539131343E+02 -0.78270118445E+02  0.15392691726E+03  0.73378456390E+02 0.  0.
          6    2    1    2  501    0  0.25053370487E+02  0.11259645398E+03  0.18515089540E+02  0.20793764216E+03  0.17201634128E+03 0.  0.
         24    2    5    5    0    0  0.79744521288E+02  0.95418830437E+02  0.24142359810E+02  0.15014535118E+03  0.80602922194E+02 0.  0.
          5    1    5    5  501    0 -0.54691150801E+02  0.17177623539E+02 -0.56272702692E+01  0.57792290983E+02  0.47000000000E+01 0. -1.
        -11    1    6    6    0    0  0.43481468537E+02  0.38815750838E+02  0.51297451892E+02  0.77644891589E+02  0.00000000000E+00 0.  1.
         12    1    6    6    0    0  0.36263052751E+02  0.56603079599E+02 -0.27155092082E+02  0.72500459591E+02  0.00000000000E+00 0. -1.
         -5    1    3    3    0  503  0.39488325439E+02 -0.23057322633E+02 -0.13209873276E+03  0.13986827078E+03  0.47000000000E+01 0.  1.
         11    1    4    4    0    0 -0.95617452764E+01 -0.71553038937E+02 -0.58095795863E+02  0.92662753309E+02  0.00000000000E+00 0. -1.
        -12    1    4    4    0    0 -0.54979950649E+02 -0.17986092406E+02 -0.20174322582E+02  0.61264163955E+02  0.00000000000E+00 0.  1.
</event>
<event>
12    1  0.8494789E-002  0.1921373E+03  0.7818608E-02  0.1157798E+00
         21   -1    0    0  501  502  0.00000000000E+00  0.00000000000E+00  0.54355840199E+02  0.54355840199E+02  0.00000000000E+00 0.  1.
         21   -1    0    0  502  503 -0.00000000000E+00 -0.00000000000E+00 -0.73178250764E+03  0.73178250764E+03  0.00000000000E+00 0.  1.
         -6    2    1    2    0  503 -0.91945566663E+00  0.85239857473E+02 -0.46651017158E+03  0.50452799638E+03  0.17219198658E+03 0.  0.
        -24    2    3    3    0    0 -0.27313780321E+02  0.50978172048E+02 -0.10831270605E+03  0.14369834436E+03  0.74650889213E+02 0.  0.
          6    2    1    2  501    0  0.91945566663E+00 -0.85239857473E+02 -0.21091649586E+03  0.28161035146E+03  0.16598778004E+03 0.  0.
         24    2    5    5    0    0 -0.18237426716E+02 -0.39170332495E+02 -0.21298248056E+03  0.23145314293E+03  0.79637313275E+02 0.  0.
          5    1    5    5  501    0  0.19156882383E+02 -0.46069524978E+02  0.20659847020E+01  0.50157208526E+02  0.47000000000E+01 0. -1.
        -11    1    6    6    0    0 -0.31045952029E+02 -0.50074993047E+02 -0.91612248216E+02  0.10892272531E+03  0.00000000000E+00 0.  1.
         12    1    6    6    0    0  0.12808525312E+02  0.10904660553E+02 -0.12137023235E+03  0.12253041762E+03  0.00000000000E+00 0. -1.
         -5    1    3    3    0  503  0.26394324654E+02  0.34261685425E+02 -0.35819746553E+03  0.36082965202E+03  0.47000000000E+01 0.  1.
         11    1    4    4    0    0 -0.19549632424E+02 -0.10202658627E+02 -0.38439945273E+01  0.22384339724E+02  0.00000000000E+00 0. -1.
        -12    1    4    4    0    0 -0.77641478970E+01  0.61180830675E+02 -0.10446871152E+03  0.12131400464E+03  0.00000000000E+00 0.  1.
</event>
<event>
12    1  0.8494789E-002  0.1913727E+03  0.7818608E-02  0.1157617E+00
         21   -1    0    0  501  502  0.00000000000E+00  0.00000000000E+00  0.54171788848E+03  0.54171788848E+03  0.00000000000E+00 0.  1.
         21   -1    0    0  502  503 -0.00000000000E+00 -0.00000000000E+00 -0.11962831350E+03  0.11962831350E+03  0.00000000000E+00 0. -1.
         -6    2    1    2    0  503 -0.24563255135E+02  0.77623773633E+02 -0.77502240244E+01  0.19152955257E+03  0.17318977972E+03 0.  0.
        -24    2    3    3    0    0  0.47765539221E+02  0.23084719474E+02 -0.26548404693E+02  0.98893574039E+02  0.79124396897E+02 0.  0.
          6    2    1    2  501    0  0.24563255135E+02 -0.77623773633E+02  0.42983979900E+03  0.46981664941E+03  0.17127938439E+03 0.  0.
         24    2    5    5    0    0  0.30809891952E+02  0.36580606428E+01  0.32667980960E+03  0.33824982051E+03  0.82040308501E+02 0.  0.
          5    1    5    5  501    0 -0.62466368163E+01 -0.81281834276E+02  0.10315998940E+03  0.13156682890E+03  0.47000000000E+01 0. -1.
        -13    1    6    6    0    0  0.11500462453E+01  0.29521543422E+02  0.25300176540E+03  0.25472090104E+03  0.00000000000E+00 0.  1.
         14    1    6    6    0    0  0.29659845706E+02 -0.25863482780E+02  0.73678044203E+02  0.83528919462E+02  0.00000000000E+00 0. -1.
         -5    1    3    3    0  503 -0.72328794356E+02  0.54539054159E+02  0.18798180669E+02  0.92635978529E+02  0.47000000000E+01 0.  1.
         11    1    4    4    0    0  0.54854241555E+02  0.44691938808E+02 -0.28029102003E+02  0.76105110013E+02  0.00000000000E+00 0. -1.
        -12    1    4    4    0    0 -0.70887023341E+01 -0.21607219334E+02  0.14806973104E+01  0.22788464026E+02  0.00000000000E+00 0.  1.
</event>
<event>
12    1  0.8494789E-002  0.2733932E+03  0.7818608E-02  0.1099471E+00
         21   -1    0    0  501  502  0.00000000000E+00  0.00000000000E+00  0.19999208986E+03  0.19999208986E+03  0.00000000000E+00 0.  1.
         21   -1    0    0  502  503 -0.00000000000E+00 -0.00000000000E+00 -0.61941299839E+03  0.61941299839E+03  0.00000000000E+00 0.  1.
         -6    2    1    2    0  503  0.16437603351E+03 -0.13400333590E+03 -0.46814093706E+03  0.54170472156E+03  0.17120658276E+03 0.  0.
        -24    2    3    3    0    0  0.37609542313E+02 -0.15101093960E+02 -0.97587521869E+02  0.13238893889E+03  0.79755789787E+02 0.  0.
          6    2    1    2  501    0 -0.16437603351E+03  0.13400333590E+03  0.48720028527E+02  0.27770036670E+03  0.17253254203E+03 0.  0.
         24    2    5    5    0    0 -0.18829339598E+03  0.10233975048E+03  0.59099045894E+02  0.23641554054E+03  0.80447393282E+02 0.  0.
          5    1    5    5  501    0  0.23917362470E+02  0.31663585420E+02 -0.10379017367E+02  0.41284826156E+02  0.47000000000E+01 0. -1.
        -13    1    6    6    0    0 -0.26425968577E+02  0.53075234910E+02  0.90999252949E+01  0.59984339759E+02  0.00000000000E+00 0.  1.
         14    1    6    6    0    0 -0.16186742740E+03  0.49264515567E+02  0.49999120599E+02  0.17643120078E+03  0.00000000000E+00 0. -1.
         -5    1    3    3    0  503  0.12676649120E+03 -0.11890224194E+03 -0.37055341519E+03  0.40931578266E+03  0.47000000000E+01 0.  1.
         11    1    4    4    0    0  0.22276031566E+02  0.30811938678E+02 -0.60303209625E+02  0.71288668374E+02  0.00000000000E+00 0. -1.
        -12    1    4    4    0    0  0.15333510747E+02 -0.45913032638E+02 -0.37284312244E+02  0.61100270518E+02  0.00000000000E+00 0.  1.
</event>
<event>
12    1  0.8494789E-002  0.1934216E+03  0.7818608E-02  0.1155507E+00
         21   -1    0    0  503  502  0.00000000000E+00  0.00000000000E+00  0.11655189990E+04  0.11655189990E+04  0.00000000000E+00 0.  1.
         21   -1    0    0  501  503 -0.00000000000E+00 -0.00000000000E+00 -0.34395622201E+02  0.34395622201E+02  0.00000000000E+00 0.  1.
          6    2    1    2  501    0  0.80434505704E+02 -0.35011594797E+02  0.72359307030E+03  0.74899856071E+03  0.17238442816E+03 0.  0.
         24    2    3    3    0    0  0.21923212771E+02  0.36540216261E+02  0.24108847984E+03  0.25769824228E+03  0.80429561114E+02 0.  0.
         -6    2    1    2    0  502 -0.80434505704E+02  0.35011594797E+02  0.40753030650E+03  0.45091606050E+03  0.17189770627E+03 0.  0.
        -24    2    5    5    0    0  0.84640886265E+01  0.37657197116E+02  0.11451528158E+03  0.14466476807E+03  0.79526348554E+02 0.  0.
          5    1    3    3  501    0  0.58511292932E+02 -0.71551811057E+02  0.48250459047E+03  0.49130031843E+03  0.47000000000E+01 0. -1.
        -11    1    4    4    0    0  0.37403550856E+02 -0.12214698473E+02  0.91367619074E+02  0.99479979346E+02  0.00000000000E+00 0.  1.
         12    1    4    4    0    0 -0.15480338084E+02  0.48754914734E+02  0.14972086077E+03  0.15821826294E+03  0.00000000000E+00 0. -1.
         -5    1    5    5    0  502 -0.88898594330E+02 -0.26456023194E+01  0.29301502492E+03  0.30625129243E+03  0.47000000000E+01 0.  1.
         13    1    6    6    0    0  0.14566987616E+02  0.52871330210E+02  0.11589371152E+03  0.12821437929E+03  0.00000000000E+00 0. -1.
        -14    1    6    6    0    0 -0.61028989895E+01 -0.15214133094E+02 -0.13784299428E+01  0.16450388779E+02  0.00000000000E+00 0.  1.
</event>
<event>
12    1  0.8494789E-002  0.1784039E+03  0.7818608E-02  0.1169886E+00
         21   -1    0    0  503  502  0.00000000000E+00  0.00000000000E+00  0.60284006607E+03  0.60284006607E+03  0.00000000000E+00 0.  1.
         21   -1    0    0  501  503 -0.00000000000E+00 -0.00000000000E+00 -0.26461891655E+03  0.26461891655E+03  0.00000000000E+00 0.  1.
          6    2    1    2  501    0  0.17871979945E+02 -0.37671393130E+02 -0.21972623063E+03  0.28168323823E+03  0.17125212041E+03 0.  0.
         24    2    3    3    0    0  0.66224987090E+02 -0.60906365032E+02 -0.16910944639E+03  0.20777771702E+03  0.80487518360E+02 0.  0.
         -6    2    1    2    0  502 -0.17871979945E+02  0.37671393130E+02  0.55794738016E+03  0.58577574439E+03  0.17346297058E+03 0.  0.
        -24    2    5    5    0    0  0.13238269132E+02  0.50493185573E+02  0.19399466562E+03  0.22024063749E+03  0.90261811150E+02 0.  0.
          5    1    3    3  501    0 -0.48353007145E+02  0.23234971902E+02 -0.50616784238E+02  0.73905521214E+02  0.47000000000E+01 0. -1.
        -13    1    4    4    0    0  0.15567291765E+02 -0.20754163690E+02  0.83274171553E+00  0.25957067286E+02  0.00000000000E+00 0.  1.
         14    1    4    4    0    0  0.50657695326E+02 -0.40152201343E+02 -0.16994218811E+03  0.18182064973E+03  0.00000000000E+00 0. -1.
         -5    1    5    5    0  502 -0.31110249077E+02 -0.12821792442E+02  0.36395271454E+03  0.36553510690E+03  0.47000000000E+01 0.  1.
         13    1    6    6    0    0  0.31870312897E+02 -0.12492336059E+02  0.38936861216E+02  0.51844522041E+02  0.00000000000E+00 0. -1.
        -14    1    6    6    0    0 -0.18632043765E+02  0.62985521631E+02  0.15505780441E+03  0.16839611545E+03  0.00000000000E+00 0.  1.
</event>
<event>
12    1  0.8494789E-002  0.3501240E+03  0.7818608E-02  0.1062723E+00
         21   -1    0    0  503  502  0.00000000000E+00  0.00000000000E+00  0.81408345834E+03  0.81408345834E+03  0.00000000000E+00 0.  1.
         21   -1    0    0  501  503 -0.00000000000E+00 -0.00000000000E+00 -0.18557525506E+03  0.18557525506E+03  0.00000000000E+00 0. -1.
          6    2    1    2  501    0  0.26942775995E+03 -0.13930560812E+03  0.94605891751E+02  0.36119295490E+03  0.17179262392E+03 0.  0.
         24    2    3    3    0    0  0.69339677990E+02 -0.12302057924E+02  0.57308662020E+02  0.12123813489E+03  0.80343456704E+02 0.  0.
         -6    2    1    2    0  502 -0.26942775995E+03  0.13930560812E+03  0.53390231153E+03  0.63846575849E+03  0.17489847404E+03 0.  0.
        -24    2    5    5    0    0 -0.21571329945E+03  0.66523547069E+02  0.27869149512E+03  0.36765748223E+03  0.80904047570E+02 0.  0.
          5    1    3    3  501    0  0.20008808196E+03 -0.12700355019E+03  0.37297229732E+02  0.23995482002E+03  0.47000000000E+01 0. -1.
        -13    1    4    4    0    0  0.50899520980E+02  0.19765502613E+02  0.63483071840E+02  0.83734919477E+02  0.00000000000E+00 0.  1.
         14    1    4    4    0    0  0.18440157010E+02 -0.32067560537E+02 -0.61744098207E+01  0.37503215409E+02  0.00000000000E+00 0. -1.
         -5    1    5    5    0  502 -0.53714460501E+02  0.72782061048E+02  0.25521081641E+03  0.27080827626E+03  0.47000000000E+01 0.  1.
         13    1    6    6    0    0 -0.10416608960E+03  0.25419243708E+02  0.71795263210E+02  0.12903980778E+03  0.00000000000E+00 0. -1.
        -14    1    6    6    0    0 -0.11154720985E+03  0.41104303361E+02  0.20689623191E+03  0.23861767445E+03  0.00000000000E+00 0.  1.
</event>
<event>
12    1  0.8494789E-002  0.1780611E+03  0.7818608E-02  0.1170049E+00
         21   -1    0    0  503  502  0.00000000000E+00  0.00000000000E+00  0.22370728810E+03  0.22370728810E+03  0.00000000000E+00 0.  1.
         21   -1    0    0  501  503 -0.00000000000E+00 -0.00000000000E+00 -0.30932719958E+03  0.30932719958E+03  0.00000000000E+00 0.  1.
          6    2    1    2  501    0 -0.38826675715E+01 -0.40681751084E+02 -0.23957883059E+03  0.29764309925E+03  0.17182350970E+03 0.  0.
         24    2    3    3    0    0  0.57493051298E+02 -0.10499510213E+02 -0.18182498687E+03  0.20800190897E+03  0.82394038748E+02 0.  0.
         -6    2    1    2    0  502  0.38826675715E+01  0.40681751084E+02  0.15395891911E+03  0.23539138843E+03  0.17330804077E+03 0.  0.
        -24    2    5    5    0    0 -0.30809317150E+02  0.75618874502E+02  0.14605385688E+03  0.18530430022E+03  0.79614862725E+02 0.  0.
          5    1    3    3  501    0 -0.61375718869E+02 -0.30182240871E+02 -0.57753843723E+02  0.89641190284E+02  0.47000000000E+01 0. -1.
        -11    1    4    4    0    0 -0.16549042038E+02 -0.45321744802E+01 -0.80830213531E+02  0.82631318623E+02  0.00000000000E+00 0.  1.
         12    1    4    4    0    0  0.74042093336E+02 -0.59673357329E+01 -0.10099477334E+03  0.12537059034E+03  0.00000000000E+00 0. -1.
         -5    1    5    5    0  502  0.34691984722E+02 -0.34937123418E+02  0.79050622341E+01  0.50087088212E+02  0.47000000000E+01 0.  1.
         13    1    6    6    0    0 -0.18910000930E+02 -0.73967274932E+00 -0.12433087608E+01  0.18965259492E+02  0.00000000000E+00 0. -1.
        -14    1    6    6    0    0 -0.11899316221E+02  0.76358547251E+02  0.14729716564E+03  0.16633904073E+03  0.00000000000E+00 0.  1.
</event>
<event>
12    1  0.8494789E-002  0.2929660E+03  0.7818608E-02  0.1089737E+00
         21   -1    0    0  503  502  0.00000000000E+00  0.00000000000E+00  0.18166537717E+03  0.18166537717E+03  0.00000000000E+00 0. -1.
         21   -1    0    0  501  503 -0.00000000000E+00 -0.00000000000E+00 -0.52162556508E+03  0.52162556508E+03  0.00000000000E+00 0. -1.
          6    2    1    2  501    0  0.11930706467E+03  0.19519483930E+03 -0.28793017211E+03  0.40574057134E+03  0.17142469556E+03 0.  0.
         24    2    3    3    0    0  0.12702365846E+03  0.10324751966E+03 -0.13349190107E+03  0.22577633886E+03  0.79748400692E+02 0.  0.
         -6    2    1    2    0  502 -0.11930706467E+03 -0.19519483930E+03 -0.52030015798E+02  0.29755037092E+03  0.18301338672E+03 0.  0.
        -24    2    5    5    0    0 -0.14112543059E+03 -0.91834201902E+02 -0.10931584274E+02  0.18410155634E+03  0.73647645675E+02 0.  0.
          5    1    3    3  501    0 -0.77165937955E+01  0.91947319640E+02 -0.15443827104E+03  0.17996423247E+03  0.47000000000E+01 0. -1.
        -13    1    4    4    0    0  0.44819882023E+02  0.87239270075E+02 -0.77976868124E+02  0.12529925790E+03  0.00000000000E+00 0.  1.
         14    1    4    4    0    0  0.82203776439E+02  0.16008249589E+02 -0.55515032947E+02  0.10047708096E+03  0.00000000000E+00 0. -1.
         -5    1    5    5    0  502  0.21818365925E+02 -0.10336063740E+03 -0.41098431524E+02  0.11344881458E+03  0.47000000000E+01 0.  1.
         11    1    6    6    0    0 -0.14505729998E+03 -0.96686179352E+02 -0.34565835392E+01  0.17436107801E+03  0.00000000000E+00 0. -1.
        -12    1    6    6    0    0  0.39318693897E+01  0.48519774504E+01 -0.74750007350E+01  0.97404783283E+01  0.00000000000E+00 0.  1.
</event>
<event>
12    1  0.8494789E-002  0.2145093E+03  0.7818608E-02  0.1138531E+00
         21   -1    0    0  501  502  0.00000000000E+00  0.00000000000E+00  0.91653769931E+03  0.91653769931E+03  0.00000000000E+00 0. -1.
         21   -1    0    0  502  503 -0.00000000000E+00 -0.00000000000E+00 -0.63393579295E+02  0.63393579295E+02  0.00000000000E+00 0. -1.
         -6    2    1    2    0  503  0.11756932963E+03 -0.35296081776E+02  0.19621005558E+03  0.28886209529E+03  0.17284259755E+03 0.  0.
        -24    2    3    3    0    0  0.34796812126E+02  0.42312382163E+02  0.64952148716E+02  0.11529628229E+03  0.77931349713E+02 0.  0.
          6    2    1    2  501    0 -0.11756932963E+03  0.35296081776E+02  0.65693406443E+03  0.69106918331E+03  0.17591444072E+03 0.  0.
         24    2    5    5    0    0 -0.10959089809E+02  0.54758452061E+02  0.22474751484E+03  0.24547763185E+03  0.81420099409E+02 0.  0.
          5    1    5    5  501    0 -0.10661023982E+03 -0.19462370285E+02  0.43218654959E+03  0.44559155146E+03  0.47000000000E+01 0. -1.
        -11    1    6    6    0    0 -0.40811659885E+01  0.46797177049E+02  0.43806960841E+02  0.64231468251E+02  0.00000000000E+00 0.  1.
         12    1    6    6    0    0 -0.68779238203E+01  0.79612750128E+01  0.18094055400E+03  0.18124616360E+03  0.00000000000E+00 0. -1.
         -5    1    3    3    0  503  0.82772517503E+02 -0.77608463940E+02  0.13125790687E+03  0.17356581300E+03  0.47000000000E+01 0.  1.
         11    1    4    4    0    0  0.59725183281E+02  0.32384519477E+02  0.51672065983E+02  0.85357231812E+02  0.00000000000E+00 0. -1.
        -12    1    4    4    0    0 -0.24928371155E+02  0.99278626862E+01  0.13280082732E+02  0.29939050475E+02  0.00000000000E+00 0.  1.
</event>
<event>
12    1  0.8494789E-002  0.2444590E+03  0.7818608E-02  0.1116980E+00
         21   -1    0    0  501  502  0.00000000000E+00  0.00000000000E+00  0.54970374272E+03  0.54970374272E+03  0.00000000000E+00 0. -1.
         21   -1    0    0  502  503 -0.00000000000E+00 -0.00000000000E+00 -0.12237975589E+03  0.12237975589E+03  0.00000000000E+00 0. -1.
         -6    2    1    2    0  503  0.12088526645E+03  0.12481386569E+03  0.10029097922E+03  0.26423190876E+03  0.17195485566E+03 0.  0.
        -24    2    3    3    0    0  0.16247143913E+01  0.95351332353E+02  0.56999317549E+02  0.13389627236E+03  0.74731340630E+02 0.  0.
          6    2    1    2  501    0 -0.12088526645E+03 -0.12481386569E+03  0.32703300761E+03  0.40785158985E+03  0.17088177950E+03 0.  0.
         24    2    5    5    0    0 -0.13196346730E+03 -0.12319561077E+03  0.33808859025E+03  0.39143022601E+03  0.79512337133E+02 0.  0.
          5    1    5    5  501    0  0.11078200850E+02 -0.16182549159E+01 -0.11055582642E+02  0.16421363847E+02  0.47000000000E+01 0. -1.
        -11    1    6    6    0    0 -0.76357000292E+00  0.43319861716E+01  0.49720481469E+02  0.49914681416E+02  0.00000000000E+00 0.  1.
         12    1    6    6    0    0 -0.13119989729E+03 -0.12752759695E+03  0.28836810878E+03  0.34151554459E+03  0.00000000000E+00 0. -1.
         -5    1    3    3    0  503  0.11926055205E+03  0.29462533338E+02  0.43291661673E+02  0.13033563641E+03  0.47000000000E+01 0.  1.
         11    1    4    4    0    0  0.31728416580E+02  0.25218206901E+02  0.34766983855E+01  0.40678468624E+02  0.00000000000E+00 0. -1.
        -12    1    4    4    0    0 -0.30103702188E+02  0.70133125452E+02  0.53522619163E+02  0.93217803735E+02  0.00000000000E+00 0.  1.
</event>
<event>
12    1  0.8494789E-002  0.1902942E+03  0.7818608E-02  0.1158308E+00
         21   -1    0    0  503  502  0.00000000000E+00  0.00000000000E+00  0.21438401964E+03  0.21438401964E+03  0.00000000000E+00 0. -1.
         21   -1    0    0  501  503 -0.00000000000E+00 -0.00000000000E+00 -0.17814738577E+03  0.17814738577E+03  0.00000000000E+00 0. -1.
          6    2    1    2  501    0 -0.26830831738E+02  0.76792240852E+02 -0.27603184634E+02  0.19228579872E+03  0.17203183077E+03 0.  0.
         24    2    3    3    0    0  0.11418425415E+02  0.11202251370E+03 -0.25528976619E+02  0.14003094118E+03  0.79230750502E+02 0.  0.
         -6    2    1    2    0  502  0.26830831738E+02 -0.76792240852E+02  0.63839818499E+02  0.20024560670E+03  0.17148130740E+03 0.  0.
        -24    2    5    5    0    0  0.22619885005E+02 -0.88079027014E+02 -0.12980899047E+02  0.12234415447E+03  0.80808503241E+02 0.  0.
          5    1    3    3  501    0 -0.38249257153E+02 -0.35230272848E+02 -0.20742080152E+01  0.52254857541E+02  0.47000000000E+01 0. -1.
        -13    1    4    4    0    0 -0.27644844353E+02  0.53058206491E+02 -0.33969293276E+02  0.68799153926E+02  0.00000000000E+00 0.  1.
         14    1    4    4    0    0  0.39063269768E+02  0.58964307210E+02  0.84403166568E+01  0.71231787251E+02  0.00000000000E+00 0. -1.
         -5    1    5    5    0  502  0.42109467333E+01  0.11286786162E+02  0.76820717546E+02  0.77901452224E+02  0.47000000000E+01 0.  1.
         11    1    6    6    0    0 -0.23013300351E+02 -0.10496244315E+02  0.13300180692E+02  0.28577577648E+02  0.00000000000E+00 0. -1.
        -12    1    6    6    0    0  0.45633185357E+02 -0.77582782699E+02 -0.26281079739E+02  0.93766576824E+02  0.00000000000E+00 0.  1.
</event>
<event>
12    1  0.8494789E-002  0.2299889E+03  0.7818608E-02  0.1126799E+00
         21   -1    0    0  501  502  0.00000000000E+00  0.00000000000E+00  0.21559033955E+03  0.21559033955E+03  0.00000000000E+00 0. -1.
         21   -1    0    0  502  503 -0.00000000000E+00 -0.00000000000E+00 -0.27557043539E+03  0.27557043539E+03  0.00000000000E+00 0.  1.
         -6    2    1    2    0  503  0.87761826219E+02 -0.12366234767E+03 -0.11259254871E+03  0.25607026738E+03  0.17291727918E+03 0.  0.
        -24    2    3    3    0    0  0.63283318150E+02  0.31779465960E+01 -0.56388878718E+02  0.11511424542E+03  0.77824842785E+02 0.  0.
          6    2    1    2  501    0 -0.87761826219E+02  0.12366234767E+03  0.52612452862E+02  0.23509050756E+03  0.17177008522E+03 0.  0.
         24    2    5    5    0    0 -0.21767764689E+02  0.15341193097E+02 -0.23800303970E+02  0.86936236301E+02  0.79260752759E+02 0.  0.
          5    1    5    5  501    0 -0.65994061530E+02  0.10832115458E+03  0.76412756832E+02  0.14815427126E+03  0.47000000000E+01 0. -1.
        -13    1    6    6    0    0 -0.42212654806E+02  0.26812755370E+02  0.44729347218E+01  0.50207959741E+02  0.00000000000E+00 0.  1.
         14    1    6    6    0    0  0.20444890118E+02 -0.11471562273E+02 -0.28273238692E+02  0.36728276559E+02  0.00000000000E+00 0. -1.
         -5    1    3    3    0  503  0.24478508069E+02 -0.12684029427E+03 -0.56203669989E+02  0.14095602196E+03  0.47000000000E+01 0.  1.
         13    1    4    4    0    0  0.50426617347E+02  0.28708515827E+02 -0.75365876089E+01  0.58513440941E+02  0.00000000000E+00 0. -1.
        -14    1    4    4    0    0  0.12856700803E+02 -0.25530569231E+02 -0.48852291109E+02  0.56600804477E+02  0.00000000000E+00 0.  1.
</event>
<event>
12    1  0.8494789E-002  0.2204281E+03  0.7818608E-02  0.1133888E+00
         21   -1    0    0  501  502  0.00000000000E+00  0.00000000000E+00  0.61761333882E+03  0.61761333882E+03  0.00000000000E+00 0. -1.
         21   -1    0    0  502  503 -0.00000000000E+00 -0.00000000000E+00 -0.12267017693E+03  0.12267017693E+03  0.00000000000E+00 0.  1.
         -6    2    1    2    0  503  0.93110799798E+02  0.98404332175E+02  0.23626123862E+02  0.21996792337E+03  0.17168185679E+03 0.  0.
        -24    2    3    3    0    0  0.54878138657E+02 -0.13755377661E+02  0.22927509193E+02  0.10137570207E+03  0.80935417317E+02 0.  0.
          6    2    1    2  501    0 -0.93110799798E+02 -0.98404332175E+02  0.47131703803E+03  0.52031559239E+03  0.17388367296E+03 0.  0.
         24    2    5    5    0    0  0.80958208639E+01 -0.13735609669E+02  0.12437080519E+03  0.14909416101E+03  0.80664505052E+02 0.  0.
          5    1    5    5  501    0 -0.10120662066E+03 -0.84668722506E+02  0.34694623284E+03  0.37122143138E+03  0.47000000000E+01 0. -1.
        -11    1    6    6    0    0 -0.19162426823E+02 -0.90438934517E+01 -0.50147461007E+00  0.21195331733E+02  0.00000000000E+00 0.  1.
         12    1    6    6    0    0  0.27258247686E+02 -0.46917162175E+01  0.12487227980E+03  0.12789882928E+03  0.00000000000E+00 0. -1.
         -5    1    3    3    0  503  0.38232661141E+02  0.11215970984E+03  0.69861466824E+00  0.11859222129E+03  0.47000000000E+01 0.  1.
         13    1    4    4    0    0 -0.24816589305E+01  0.26635691039E+02  0.15276587865E+02  0.30805726821E+02  0.00000000000E+00 0. -1.
        -14    1    4    4    0    0  0.57359797587E+02 -0.40391068700E+02  0.76509213285E+01  0.70569975253E+02  0.00000000000E+00 0.  1.
</event>
<event>
12    1  0.8494789E-002  0.1954333E+03  0.7818608E-02  0.1153733E+00
         21   -1    0    0  501  502  0.00000000000E+00  0.00000000000E+00  0.31911532674E+03  0.31911532674E+03  0.00000000000E+00 0. -1.
         21   -1    0    0  502  503 -0.00000000000E+00 -0.00000000000E+00 -0.14214905554E+03  0.14214905554E+03  0.00000000000E+00 0. -1.
         -6    2    1    2    0  503  0.90355228332E+02 -0.14450444804E+02 -0.37391936716E+01  0.19509032433E+03  0.17225960187E+03 0.  0.
        -24    2    3    3    0    0  0.26282095075E+02 -0.70641921218E+02 -0.34526784591E+01  0.10973799268E+03  0.79683602416E+02 0.  0.
          6    2    1    2  501    0 -0.90355228332E+02  0.14450444804E+02  0.18070546487E+03  0.26617405796E+03  0.17268839409E+03 0.  0.
         24    2    5    5    0    0 -0.95608500677E+01 -0.19139246016E+02  0.15261862700E+03  0.17415797594E+03  0.81122343926E+02 0.  0.
          5    1    5    5  501    0 -0.80794378264E+02  0.33589690820E+02  0.28086837868E+02  0.92016082017E+02  0.47000000000E+01 0. -1.
        -13    1    6    6    0    0  0.24358378279E+02  0.20387829714E+02  0.60630083498E+02  0.68447068731E+02  0.00000000000E+00 0.  1.
         14    1    6    6    0    0 -0.33919228346E+02 -0.39527075730E+02  0.91988543505E+02  0.10571090721E+03  0.00000000000E+00 0. -1.
         -5    1    3    3    0  503  0.64073133257E+02  0.56191476414E+02 -0.28651521247E+00  0.85352331649E+02  0.47000000000E+01 0.  1.
         13    1    4    4    0    0  0.24028462290E+02 -0.96851554553E+01 -0.33004640139E+02  0.41958020770E+02  0.00000000000E+00 0. -1.
        -14    1    4    4    0    0  0.22536327847E+01 -0.60956765762E+02  0.29551961680E+02  0.67779971910E+02  0.00000000000E+00 0.  1.
</event>
<event>
12    1  0.8494789E-002  0.1930484E+03  0.7818608E-02  0.1155841E+00
         21   -1    0    0  503  502  0.00000000000E+00  0.00000000000E+00  0.10697539718E+04  0.10697539718E+04  0.00000000000E+00 0. -1.
         21   -1    0    0  501  503 -0.00000000000E+00 -0.00000000000E+00 -0.35280410840E+02  0.35280410840E+02  0.00000000000E+00 0.  1.
          6    2    1    2  501    0  0.34927880713E+02 -0.80293317962E+02  0.44922154531E+03  0.48876527959E+03  0.17153579219E+03 0.  0.
         24    2    3    3    0    0  0.42715944177E+02 -0.28331368534E+02  0.10963358630E+03  0.14510444385E+03  0.80052845354E+02 0.  0.
         -6    2    1    2    0  502 -0.34927880713E+02  0.80293317962E+02  0.58525201568E+03  0.61626910308E+03  0.17204857393E+03 0.  0.
        -24    2    5    5    0    0 -0.72773568704E+02  0.19148163239E+02  0.44553137193E+03  0.45905913413E+03  0.81082925458E+02 0.  0.
          5    1    3    3  501    0 -0.77880634633E+01 -0.51961949428E+02  0.33958795901E+03  0.34366083574E+03  0.47000000000E+01 0. -1.
        -13    1    4    4    0    0  0.26259394507E+02  0.16638845337E+02  0.70239474314E+01  0.31870720286E+02  0.00000000000E+00 0.  1.
         14    1    4    4    0    0  0.16456549670E+02 -0.44970213871E+02  0.10260963887E+03  0.11323372356E+03  0.00000000000E+00 0. -1.
         -5    1    5    5    0  502  0.37845687991E+02  0.61145154722E+02  0.13972064375E+03  0.15720996895E+03  0.47000000000E+01 0.  1.
         11    1    6    6    0    0 -0.18650779279E+02  0.71765647401E+01  0.33316990306E+03  0.33376869079E+03  0.00000000000E+00 0. -1.
        -12    1    6    6    0    0 -0.54122789426E+02  0.11971598499E+02  0.11236146887E+03  0.12529044334E+03  0.00000000000E+00 0.  1.
</event>
<event>
12    1  0.8494789E-002  0.1767686E+03  0.7818608E-02  0.1171309E+00
         21   -1    0    0  501  502  0.00000000000E+00  0.00000000000E+00  0.68807284888E+03  0.68807284888E+03  0.00000000000E+00 0.  1.
         21   -1    0    0  502  503 -0.00000000000E+00 -0.00000000000E+00 -0.12792346713E+03  0.12792346713E+03  0.00000000000E+00 0.  1.
         -6    2    1    2    0  503  0.20261378544E+02 -0.41215761891E+02 -0.47909845186E+02  0.18314609462E+03  0.17069820216E+03 0.  0.
        -24    2    3    3    0    0  0.57234311632E+02 -0.72823542150E+02 -0.11191556395E+01  0.11548880986E+03  0.68973748436E+02 0.  0.
          6    2    1    2  501    0 -0.20261378544E+02  0.41215761891E+02  0.60805922694E+03  0.63285022139E+03  0.16927526917E+03 0.  0.
         24    2    5    5    0    0  0.12217662495E+02  0.83115212487E+02  0.32905912892E+03  0.34881924286E+03  0.79608693251E+02 0.  0.
          5    1    5    5  501    0 -0.32479041039E+02 -0.41899450596E+02  0.27900009802E+03  0.28403097853E+03  0.47000000000E+01 0. -1.
        -11    1    6    6    0    0 -0.33021671385E+02  0.39217524640E+02  0.17521328200E+03  0.18255996058E+03  0.00000000000E+00 0.  1.
         12    1    6    6    0    0  0.45239333880E+02  0.43897687847E+02  0.15384584692E+03  0.16625928227E+03  0.00000000000E+00 0. -1.
         -5    1    3    3    0  503 -0.36972933088E+02  0.31607780259E+02 -0.46790689546E+02  0.67657284769E+02  0.47000000000E+01 0.  1.
         11    1    4    4    0    0  0.41615557202E+02 -0.56608183120E+02 -0.32056370825E+02  0.77226626936E+02  0.00000000000E+00 0. -1.
        -12    1    4    4    0    0  0.15618754430E+02 -0.16215359030E+02  0.30937215185E+02  0.38262182920E+02  0.00000000000E+00 0.  1.
</event>
<event>
12    1  0.8494789E-002  0.2583783E+03  0.7818608E-02  0.1108152E+00
         21   -1    0    0  503  502  0.00000000000E+00  0.00000000000E+00  0.16276741683E+04  0.16276741683E+04  0.00000000000E+00 0. -1.
         21   -1    0    0  501  503 -0.00000000000E+00 -0.00000000000E+00 -0.47485351193E+02  0.47485351193E+02  0.00000000000E+00 0.  1.
          6    2    1    2  501    0  0.12917898349E+03 -0.14458501261E+03  0.47988017804E+03  0.54492128521E+03  0.17047635071E+03 0.  0.
         24    2    3    3    0    0  0.10840016677E+03 -0.67946323441E+02  0.18089589929E+03  0.23553651370E+03  0.79917606833E+02 0.  0.
         -6    2    1    2    0  502 -0.12917898349E+03  0.14458501261E+03  0.11003086391E+04  0.11302382343E+04  0.17078445300E+03 0.  0.
        -24    2    5    5    0    0 -0.11517988759E+03  0.12814979927E+03  0.10887731575E+04  0.11053133821E+04  0.81252117308E+02 0.  0.
          5    1    3    3  501    0  0.20778816727E+02 -0.76638689169E+02  0.29898427875E+03  0.30938477151E+03  0.47000000000E+01 0. -1.
        -13    1    4    4    0    0  0.11850783377E+03 -0.64712921430E+02  0.14512647654E+03  0.19822604031E+03  0.00000000000E+00 0.  1.
         14    1    4    4    0    0 -0.10107666998E+02 -0.32334020109E+01  0.35769422756E+02  0.37310473395E+02  0.00000000000E+00 0. -1.
         -5    1    5    5    0  502 -0.13999095900E+02  0.16435213337E+02  0.11535481616E+02  0.24924852247E+02  0.47000000000E+01 0.  1.
         13    1    6    6    0    0 -0.56949081822E+02  0.81762454345E+02  0.83261087250E+03  0.83855182419E+03  0.00000000000E+00 0. -1.
        -14    1    6    6    0    0 -0.58230805772E+02  0.46387344928E+02  0.25616228498E+03  0.26676155787E+03  0.00000000000E+00 0.  1.
</event>
<event>
12    1  0.8494789E-002  0.1782554E+03  0.7818608E-02  0.1170520E+00
         21   -1    0    0  501  502  0.00000000000E+00  0.00000000000E+00  0.90414533961E+02  0.90414533961E+02  0.00000000000E+00 0.  1.
         21   -1    0    0  502  503 -0.00000000000E+00 -0.00000000000E+00 -0.34346028635E+03  0.34346028635E+03  0.00000000000E+00 0.  1.
         -6    2    1    2    0  503  0.15057863588E+02  0.31878915336E+02 -0.12214339639E+03  0.21271785980E+03  0.17054874405E+03 0.  0.
        -24    2    3    3    0    0  0.67220458900E+02  0.21125328749E+02 -0.11654408108E+03  0.15895896932E+03  0.81979030742E+02 0.  0.
          6    2    1    2  501    0 -0.15057863588E+02 -0.31878915336E+02 -0.13090235599E+03  0.22115696051E+03  0.17473399749E+03 0.  0.
         24    2    5    5    0    0 -0.76038360895E+02 -0.58591154706E+01 -0.10877604294E+03  0.15110473166E+03  0.72001741998E+02 0.  0.
          5    1    5    5  501    0  0.60980497307E+02 -0.26019799865E+02 -0.22126313049E+02  0.70052228844E+02  0.47000000000E+01 0. -1.
        -11    1    6    6    0    0 -0.29387944004E+02  0.32879523995E+02 -0.41886620616E+02  0.60821076425E+02  0.00000000000E+00 0.  1.
         12    1    6    6    0    0 -0.46650416891E+02 -0.38738639465E+02 -0.66889422329E+02  0.90283655238E+02  0.00000000000E+00 0. -1.
         -5    1    3    3    0  503 -0.52162595311E+02  0.10753586587E+02 -0.55993153093E+01  0.53758890484E+02  0.47000000000E+01 0.  1.
         13    1    4    4    0    0 -0.14421711083E+01  0.34167018008E+02 -0.59993344387E+02  0.69055530900E+02  0.00000000000E+00 0. -1.
        -14    1    4    4    0    0  0.68662630008E+02 -0.13041689260E+02 -0.56550736694E+02  0.89903438416E+02  0.00000000000E+00 0.  1.
</event>
<event>
12    1  0.8494789E-002  0.1859673E+03  0.7818608E-02  0.1165219E+00
         21   -1    0    0  503  502  0.00000000000E+00  0.00000000000E+00  0.11327443571E+03  0.11327443571E+03  0.00000000000E+00 0. -1.
         21   -1    0    0  501  503 -0.00000000000E+00 -0.00000000000E+00 -0.35265087057E+03  0.35265087057E+03  0.00000000000E+00 0. -1.
          6    2    1    2  501    0 -0.91052215749E+01  0.22045772273E+02 -0.21843416592E+03  0.27878252496E+03  0.17157298810E+03 0.  0.
         24    2    3    3    0    0  0.58725086686E+01 -0.22805401584E+02 -0.21311902961E+03  0.23096724630E+03  0.85857878977E+02 0.  0.
         -6    2    1    2    0  502  0.91052215749E+01 -0.22045772273E+02 -0.20942268928E+02  0.18714278132E+03  0.18443134451E+03 0.  0.
        -24    2    5    5    0    0  0.47738119765E+02 -0.42272269616E+02 -0.68500373494E+02  0.12244753167E+03  0.78963434485E+02 0.  0.
          5    1    3    3  501    0 -0.14977730244E+02  0.44851173857E+02 -0.53151363187E+01  0.47815278664E+02  0.47000000000E+01 0. -1.
        -11    1    4    4    0    0  0.28138847187E+02 -0.28829351877E+02 -0.41619077559E+02  0.57922999469E+02  0.00000000000E+00 0.  1.
         12    1    4    4    0    0 -0.22266338519E+02  0.60239502926E+01 -0.17149995205E+03  0.17304424683E+03  0.00000000000E+00 0. -1.
         -5    1    5    5    0  502 -0.38632898190E+02  0.20226497343E+02  0.47558104566E+02  0.64695249650E+02  0.47000000000E+01 0.  1.
         13    1    6    6    0    0  0.52488213841E+02 -0.44817431200E+02 -0.17553118275E+02  0.71216056425E+02  0.00000000000E+00 0. -1.
        -14    1    6    6    0    0 -0.47500940759E+01  0.25451615843E+01 -0.50947255220E+02  0.51231475244E+02  0.00000000000E+00 0.  1.
</event>
<event>
12    1  0.8494789E-002  0.1815177E+03  0.7818608E-02  0.1166404E+00
         21   -1    0    0  503  502  0.00000000000E+00  0.00000000000E+00  0.13100696594E+03  0.13100696594E+03  0.00000000000E+00 0. -1.
         21   -1    0    0  501  503 -0.00000000000E+00 -0.00000000000E+00 -0.31193427390E+03  0.31193427390E+03  0.00000000000E+00 0. -1.
          6    2    1    2  501    0  0.56915621458E+02  0.93732227397E+01 -0.18817766059E+03  0.26127879588E+03  0.17183868004E+03 0.  0.
         24    2    3    3    0    0 -0.52700998468E+01 -0.33727690987E+02 -0.39617349038E+02  0.94494477468E+02  0.78704134806E+02 0.  0.
         -6    2    1    2    0  502 -0.56915621458E+02 -0.93732227397E+01  0.72503526303E+01  0.18166244396E+03  0.17210877566E+03 0.  0.
        -24    2    5    5    0    0 -0.36611954253E+02 -0.40338295346E+02  0.62261717524E+02  0.11518376398E+03  0.80144648921E+02 0.  0.
          5    1    3    3  501    0  0.62185721305E+02  0.43100913727E+02 -0.14856031156E+03  0.16678431841E+03  0.47000000000E+01 0. -1.
        -11    1    4    4    0    0 -0.50742941863E+01 -0.37135648350E+02  0.14560192831E+02  0.40209502050E+02  0.00000000000E+00 0.  1.
         12    1    4    4    0    0 -0.19580566046E+00  0.34079573628E+01 -0.54177541868E+02  0.54284975418E+02  0.00000000000E+00 0. -1.
         -5    1    5    5    0  502 -0.20303667205E+02  0.30965072607E+02 -0.55011364894E+02  0.66478679974E+02  0.47000000000E+01 0.  1.
         13    1    6    6    0    0 -0.22016185315E+02 -0.53353666658E+02  0.89614824306E+01  0.58409197298E+02  0.00000000000E+00 0. -1.
        -14    1    6    6    0    0 -0.14595768938E+02  0.13015371312E+02  0.53300235094E+02  0.56774566686E+02  0.00000000000E+00 0.  1.
</event>
<event>
12    1  0.8494789E-002  0.2094151E+03  0.7818608E-02  0.1142763E+00
         21   -1    0    0  503  502  0.00000000000E+00  0.00000000000E+00  0.40860581740E+03  0.40860581740E+03  0.00000000000E+00 0.  1.
         21   -1    0    0  501  503 -0.00000000000E+00 -0.00000000000E+00 -0.12505807550E+03  0.12505807550E+03  0.00000000000E+00 0.  1.
          6    2    1    2  501    0  0.63661602462E+02 -0.93931281165E+02  0.37209563891E+02  0.21269512749E+03  0.17600789870E+03 0.  0.
         24    2    3    3    0    0  0.52894921460E+02 -0.31341609533E+02  0.85811462616E+02  0.13258505962E+03  0.80218587082E+02 0.  0.
         -6    2    1    2    0  502 -0.63661602462E+02  0.93931281165E+02  0.24633817801E+03  0.32096876541E+03  0.17164662891E+03 0.  0.
        -24    2    5    5    0    0 -0.24939414348E+02  0.12398734668E+03  0.21679867486E+03  0.26354536275E+03  0.80371986916E+02 0.  0.
          5    1    3    3  501    0  0.10766681003E+02 -0.62589671632E+02 -0.48601898726E+02  0.80110067873E+02  0.47000000000E+01 0. -1.
        -13    1    4    4    0    0 -0.44581846078E+01 -0.12491612008E+02 -0.11839617613E+02  0.17778985510E+02  0.00000000000E+00 0.  1.
         14    1    4    4    0    0  0.57353106067E+02 -0.18849997525E+02  0.97651080229E+02  0.11480607411E+03  0.00000000000E+00 0. -1.
         -5    1    5    5    0  502 -0.38722188114E+02 -0.30056065519E+02  0.29539503142E+02  0.57423402657E+02  0.47000000000E+01 0.  1.
         13    1    6    6    0    0 -0.57779704216E+01 -0.37214237496E+01 -0.38550351013E+01  0.78800528266E+01  0.00000000000E+00 0. -1.
        -14    1    6    6    0    0 -0.19161443927E+02  0.12770877043E+03  0.22065370996E+03  0.25566530993E+03  0.00000000000E+00 0.  1.
</event>
<event>
12    1  0.8494789E-002  0.2056407E+03  0.7818608E-02  0.1145117E+00
         21   -1    0    0  501  502  0.00000000000E+00  0.00000000000E+00  0.20544765835E+04  0.20544765835E+04  0.00000000000E+00 0.  1.
         21   -1    0    0  502  503 -0.00000000000E+00 -0.00000000000E+00 -0.25465314936E+02  0.25465314936E+02  0.00000000000E+00 0. -1.
         -6    2    1    2    0  503 -0.11221293194E+03  0.12105356844E+02  0.55848145200E+03  0.59513831417E+03  0.17190054974E+03 0.  0.
        -24    2    3    3    0    0 -0.53633420354E+02 -0.48359270449E+02  0.20058985293E+03  0.22744820413E+03  0.79254234258E+02 0.  0.
          6    2    1    2  501    0  0.11221293194E+03 -0.12105356844E+02  0.14705298166E+04  0.14848035843E+04  0.17159679688E+03 0.  0.
         24    2    5    5    0    0  0.45211738055E+02 -0.16064948572E+02  0.12654856776E+04  0.12690026869E+04  0.81311964244E+02 0.  0.
          5    1    5    5  501    0  0.67001193882E+02  0.39595917279E+01  0.20504413905E+03  0.21580089738E+03  0.47000000000E+01 0. -1.
        -11    1    6    6    0    0 -0.10186934085E+02 -0.32720870250E+02  0.61319924606E+03  0.61415612375E+03  0.00000000000E+00 0.  1.
         12    1    6    6    0    0  0.55398672140E+02  0.16655921678E+02  0.65228643150E+03  0.65484656319E+03  0.00000000000E+00 0. -1.
         -5    1    3    3    0  503 -0.58579511583E+02  0.60464627293E+02  0.35789159907E+03  0.36769011003E+03  0.47000000000E+01 0.  1.
         11    1    4    4    0    0 -0.76331307125E+01 -0.42639741986E+02  0.16024111206E+03  0.16599285007E+03  0.00000000000E+00 0. -1.
        -12    1    4    4    0    0 -0.46000289642E+02 -0.57195284621E+01  0.40348740872E+02  0.61455354062E+02  0.00000000000E+00 0.  1.
</event>
<event>
12    1  0.8494789E-002  0.2931955E+03  0.7818608E-02  0.1088720E+00
         21   -1    0    0  501  502  0.00000000000E+00  0.00000000000E+00  0.21805767529E+03  0.21805767529E+03  0.00000000000E+00 0.  1.
         21   -1    0    0  502  503 -0.00000000000E+00 -0.00000000000E+00 -0.41203010354E+03  0.41203010354E+03  0.00000000000E+00 0. -1.
         -6    2    1    2    0  503 -0.30703082419E+02  0.23400575183E+03 -0.30941806423E+02  0.29461410622E+03  0.17360502596E+03 0.  0.
        -24    2    3    3    0    0  0.42105186469E+02  0.14350027036E+03 -0.51931892010E+02  0.17648299309E+03  0.78000968733E+02 0.  0.
          6    2    1    2  501    0  0.30703082419E+02 -0.23400575183E+03 -0.16303062183E+03  0.33547367261E+03  0.17396042711E+03 0.  0.
         24    2    5    5    0    0  0.43696646969E+02 -0.20816460797E+03 -0.18931507824E+03  0.29610922057E+03  0.81231586781E+02 0.  0.
          5    1    5    5  501    0 -0.12993564550E+02 -0.25841143866E+02  0.26284456408E+02  0.39364452044E+02  0.47000000000E+01 0. -1.
        -13    1    6    6    0    0 -0.64780605537E+00 -0.16178471802E+03 -0.15139502412E+03  0.22157429446E+03  0.00000000000E+00 0.  1.
         14    1    6    6    0    0  0.44344453024E+02 -0.46379889945E+02 -0.37920054118E+02  0.74534926106E+02  0.00000000000E+00 0. -1.
         -5    1    3    3    0  503 -0.72808268888E+02  0.90505481474E+02  0.20990085587E+02  0.11813111313E+03  0.47000000000E+01 0.  1.
         11    1    4    4    0    0 -0.15001647468E+02  0.82770755010E+01 -0.19866406795E+02  0.26234205240E+02  0.00000000000E+00 0. -1.
        -12    1    4    4    0    0  0.57106833937E+02  0.13522319486E+03 -0.32065485215E+02  0.15024878785E+03  0.00000000000E+00 0.  1.
</event>
<event>
12    1  0.8494789E-002  0.1810177E+03  0.7818608E-02  0.1166931E+00
         21   -1    0    0  503  502  0.00000000000E+00  0.00000000000E+00  0.13028382069E+03  0.13028382069E+03  0.00000000000E+00 0.  1.
         21   -1    0    0  501  503 -0.00000000000E+00 -0.00000000000E+00 -0.38047445462E+03  0.38047445462E+03  0.00000000000E+00 0.  1.
          6    2    1    2  501    0  0.83248447636E+01  0.53098328991E+02 -0.27424667325E+03  0.32860103207E+03  0.17285446163E+03 0.  0.
         24    2    3    3    0    0  0.52015382239E+02  0.71779307023E+01 -0.23621554895E+03  0.25453347872E+03  0.78945446624E+02 0.  0.
         -6    2    1    2    0  502 -0.83248447636E+01 -0.53098328991E+02  0.24056039317E+02  0.18215724324E+03  0.17237700733E+03 0.  0.
        -24    2    5    5    0    0 -0.87775849133E+01  0.20409219323E+02 -0.29918391225E+02  0.90839699551E+02  0.82844182963E+02 0.  0.
          5    1    3    3  501    0 -0.43690537476E+02  0.45920398288E+02 -0.38031124300E+02  0.74067553351E+02  0.47000000000E+01 0. -1.
        -13    1    4    4    0    0 -0.17647111148E+02  0.29389905581E+01 -0.98842476113E+02  0.10044846082E+03  0.00000000000E+00 0.  1.
         14    1    4    4    0    0  0.69662493388E+02  0.42389401442E+01 -0.13737307284E+03  0.15408501789E+03  0.00000000000E+00 0. -1.
         -5    1    5    5    0  502  0.45274014974E+00 -0.73507548314E+02  0.53974430542E+02  0.91317543687E+02  0.47000000000E+01 0.  1.
         13    1    6    6    0    0  0.26810409862E+02 -0.18370162128E+02 -0.16845484586E+02  0.36606437747E+02  0.00000000000E+00 0. -1.
        -14    1    6    6    0    0 -0.35587994776E+02  0.38779381451E+02 -0.13072906639E+02  0.54233261804E+02  0.00000000000E+00 0.  1.
</event>
<event>
12    1  0.8494789E-002  0.2342332E+03  0.7818608E-02  0.1124007E+00
         21   -1    0    0  501  502  0.00000000000E+00  0.00000000000E+00  0.42916744772E+02  0.42916744772E+02  0.00000000000E+00 0. -1.
         21   -1    0    0  502  503 -0.00000000000E+00 -0.00000000000E+00 -0.12776844727E+04  0.12776844727E+04  0.00000000000E+00 0. -1.
         -6    2    1    2    0  503  0.14615501948E+03  0.56494390282E+02 -0.67082645690E+03  0.70994995005E+03  0.17166214038E+03 0.  0.
        -24    2    3    3    0    0  0.12866941622E+03  0.82471123464E+02 -0.64882449130E+03  0.67139202637E+03  0.80229219616E+02 0.  0.
          6    2    1    2  501    0 -0.14615501948E+03 -0.56494390282E+02 -0.56394127103E+03  0.61065126743E+03  0.17410430032E+03 0.  0.
         24    2    5    5    0    0 -0.31583028811E+01 -0.27997425584E+02 -0.19077568040E+03  0.20998334260E+03  0.83089188362E+02 0.  0.
          5    1    5    5  501    0 -0.14299671660E+03 -0.28496964698E+02 -0.37316559063E+03  0.40066792483E+03  0.47000000000E+01 0. -1.
        -11    1    6    6    0    0 -0.11665149042E+02  0.27587909954E+02 -0.86072778862E+02  0.91135567913E+02  0.00000000000E+00 0.  1.
         12    1    6    6    0    0  0.85068461604E+01 -0.55585335538E+02 -0.10470290154E+03  0.11884777469E+03  0.00000000000E+00 0. -1.
         -5    1    3    3    0  503  0.17485603261E+02 -0.25976733182E+02 -0.22001965600E+02  0.38557923679E+02  0.47000000000E+01 0.  1.
         13    1    4    4    0    0  0.59448127490E+02  0.82429936990E+02 -0.33776993019E+03  0.35272836590E+03  0.00000000000E+00 0. -1.
        -14    1    4    4    0    0  0.69221288729E+02  0.41186473564E-01 -0.31105456112E+03  0.31866366046E+03  0.00000000000E+00 0.  1.
</event>
<event>
12    1  0.8494789E-002  0.2494282E+03  0.7818608E-02  0.1113870E+00
         21   -1    0    0  503  502  0.00000000000E+00  0.00000000000E+00  0.12541148495E+04  0.12541148495E+04  0.00000000000E+00 0.  1.
         21   -1    0    0  501  503 -0.00000000000E+00 -0.00000000000E+00 -0.13778084089E+04  0.13778084089E+04  0.00000000000E+00 0. -1.
          6    2    1    2  501    0  0.93611144216E+02  0.15237908775E+03 -0.13540183907E+04  0.13765692771E+04  0.17203121649E+03 0.  0.
         24    2    3    3    0    0  0.37864922441E+02  0.13000909098E+03 -0.56903902409E+03  0.58928104901E+03  0.71488654318E+02 0.  0.
         -6    2    1    2    0  502 -0.93611144216E+02 -0.15237908775E+03  0.12303248313E+04  0.12553539813E+04  0.17387350329E+03 0.  0.
        -24    2    5    5    0    0  0.21017692391E+02 -0.56063106543E+02  0.44441069570E+03  0.45529169813E+03  0.78770861512E+02 0.  0.
          5    1    3    3  501    0  0.55746221775E+02  0.22369996768E+02 -0.78497936666E+03  0.78728822808E+03  0.47000000000E+01 0. -1.
        -13    1    4    4    0    0  0.16537274288E+02  0.23050045866E+01 -0.25108235348E+02  0.30153241439E+02  0.00000000000E+00 0.  1.
         14    1    4    4    0    0  0.21327648154E+02  0.12770408640E+03 -0.54393078874E+03  0.55912780757E+03  0.00000000000E+00 0. -1.
         -5    1    5    5    0  502 -0.11462883661E+03 -0.96315981208E+02  0.78591413563E+03  0.80006228320E+03  0.47000000000E+01 0.  1.
         13    1    6    6    0    0 -0.63212424582E+01  0.13340785350E+02  0.17870541775E+03  0.17931414053E+03  0.00000000000E+00 0. -1.
        -14    1    6    6    0    0  0.27338934849E+02 -0.69403891894E+02  0.26570527795E+03  0.27597755760E+03  0.00000000000E+00 0.  1.
</event>
<event>
12    1  0.8494789E-002  0.2178911E+03  0.7818608E-02  0.1136234E+00
         21   -1    0    0  503  502  0.00000000000E+00  0.00000000000E+00  0.96952921179E+02  0.96952921179E+02  0.00000000000E+00 0.  1.
         21   -1    0    0  501  503 -0.00000000000E+00 -0.00000000000E+00 -0.48107127888E+03  0.48107127888E+03  0.00000000000E+00 0.  1.
          6    2    1    2  501    0  0.12670575676E+03  0.89266785247E+01 -0.19871604050E+03  0.29192888113E+03  0.17204758790E+03 0.  0.
         24    2    3    3    0    0  0.60660167583E+02  0.22318832982E+02 -0.25832384738E+02  0.10631579409E+03  0.80361369671E+02 0.  0.
         -6    2    1    2    0  502 -0.12670575676E+03 -0.89266785247E+01 -0.18540231720E+03  0.28609531893E+03  0.17703806908E+03 0.  0.
        -24    2    5    5    0    0 -0.15797657002E+02 -0.41156814635E+02 -0.12707981802E+03  0.15662334445E+03  0.80238036620E+02 0.  0.
          5    1    3    3  501    0  0.66045589174E+02 -0.13392154458E+02 -0.17288365576E+03  0.18561308704E+03  0.47000000000E+01 0. -1.
        -13    1    4    4    0    0  0.51811779809E+02 -0.21177973669E+02 -0.26486365346E+02  0.61923296464E+02  0.00000000000E+00 0.  1.
         14    1    4    4    0    0  0.88483877742E+01  0.43496806651E+02  0.65398060827E+00  0.44392497629E+02  0.00000000000E+00 0. -1.
         -5    1    5    5    0  502 -0.11090809975E+03  0.32230136110E+02 -0.58322499182E+02  0.12947197448E+03  0.47000000000E+01 0.  1.
         13    1    6    6    0    0  0.10215624246E+02  0.18204928872E+01 -0.98059127243E+02  0.98606620511E+02  0.00000000000E+00 0. -1.
        -14    1    6    6    0    0 -0.26013281248E+02 -0.42977307522E+02 -0.29020690776E+02  0.58016723936E+02  0.00000000000E+00 0.  1.
</event>
<event>
12    1  0.8494789E-002  0.1908025E+03  0.7818608E-02  0.1161191E+00
         21   -1    0    0  503  502  0.00000000000E+00  0.00000000000E+00  0.19649721948E+02  0.19649721948E+02  0.00000000000E+00 0. -1.
         21   -1    0    0  501  503 -0.00000000000E+00 -0.00000000000E+00 -0.18955054119E+04  0.18955054119E+04  0.00000000000E+00 0. -1.
          6    2    1    2  501    0 -0.11756882031E+02 -0.39178172659E+02 -0.12694210741E+04  0.12836804388E+04  0.18636644618E+03 0.  0.
         24    2    3    3    0    0 -0.81358654762E+02 -0.38216791700E+02 -0.58428094759E+03  0.59499733759E+03  0.67511866759E+02 0.  0.
         -6    2    1    2    0  502  0.11756882031E+02  0.39178172659E+02 -0.60643461592E+03  0.63147469505E+03  0.17124308341E+03 0.  0.
        -24    2    5    5    0    0 -0.38586568212E+02  0.92942394852E-01 -0.11694944573E+03  0.13783521117E+03  0.61906709637E+02 0.  0.
          5    1    3    3  501    0  0.69601772731E+02 -0.96138095991E+00 -0.68514012649E+03  0.68868310125E+03  0.47000000000E+01 0. -1.
        -13    1    4    4    0    0 -0.32679914712E+02  0.15421646373E+02 -0.12801105006E+03  0.13301365697E+03  0.00000000000E+00 0.  1.
         14    1    4    4    0    0 -0.48678740049E+02 -0.53638438073E+02 -0.45626989753E+03  0.46198368063E+03  0.00000000000E+00 0. -1.
         -5    1    5    5    0  502  0.50343450243E+02  0.39085230265E+02 -0.48948517020E+03  0.49363948388E+03  0.47000000000E+01 0.  1.
         13    1    6    6    0    0 -0.44251701654E+01  0.28235045124E+02 -0.49579299066E+02  0.57226801413E+02  0.00000000000E+00 0. -1.
        -14    1    6    6    0    0 -0.34161398047E+02 -0.28142102729E+02 -0.67370146660E+02  0.80608409757E+02  0.00000000000E+00 0.  1.
</event>
<event>
12    1  0.8494789E-002  0.2125425E+03  0.7818608E-02  0.1139956E+00
         21   -1    0    0  503  502  0.00000000000E+00  0.00000000000E+00  0.29795189166E+03  0.29795189166E+03  0.00000000000E+00 0.  1.
         21   -1    0    0  501  503 -0.00000000000E+00 -0.00000000000E+00 -0.21772764312E+03  0.21772764312E+03  0.00000000000E+00 0.  1.
          6    2    1    2  501    0 -0.52066308598E+02  0.10903957040E+03 -0.10334236185E+03  0.23633441876E+03  0.17485361116E+03 0.  0.
         24    2    3    3    0    0 -0.54556117156E+02  0.32118391364E+02  0.54816281886E+01  0.10296344089E+03  0.81015189496E+02 0.  0.
         -6    2    1    2    0  502  0.52066308598E+02 -0.10903957040E+03  0.18356661040E+03  0.27934511602E+03  0.17244264260E+03 0.  0.
        -24    2    5    5    0    0  0.42998767194E+02  0.24266852908E+01  0.44963435271E+02  0.10118822836E+03  0.79765683507E+02 0.  0.
          5    1    3    3  501    0  0.24898085582E+01  0.76921179032E+02 -0.10882399004E+03  0.13337097787E+03  0.47000000000E+01 0. -1.
        -13    1    4    4    0    0 -0.75265139208E+02  0.18389766630E+02 -0.18381616866E+00  0.77479406845E+02  0.00000000000E+00 0.  1.
         14    1    4    4    0    0  0.20709022051E+02  0.13728624734E+02  0.56654443573E+01  0.25484034044E+02  0.00000000000E+00 0. -1.
         -5    1    5    5    0  502  0.90675414043E+01 -0.11146625569E+03  0.13860317513E+03  0.17815688766E+03  0.47000000000E+01 0.  1.
         11    1    6    6    0    0 -0.14772617012E+02  0.10746288450E+02 -0.10161933960E+02  0.20904014702E+02  0.00000000000E+00 0. -1.
        -12    1    6    6    0    0  0.57771384206E+02 -0.83196031596E+01  0.55125369230E+02  0.80284213657E+02  0.00000000000E+00 0.  1.
</event>
<event>
12    1  0.8494789E-002  0.1880694E+03  0.7818608E-02  0.1161677E+00
         21   -1    0    0  501  502  0.00000000000E+00  0.00000000000E+00  0.44958978062E+03  0.44958978062E+03  0.00000000000E+00 0.  1.
         21   -1    0    0  502  503 -0.00000000000E+00 -0.00000000000E+00 -0.15144994837E+03  0.15144994837E+03  0.00000000000E+00 0. -1.
         -6    2    1    2    0  503 -0.47638361906E+02 -0.41243027962E+02 -0.64211091313E+02  0.19278943243E+03  0.17051187679E+03 0.  0.
        -24    2    3    3    0    0 -0.56829873886E+02 -0.89174887859E+02 -0.47938522222E+02  0.14112867759E+03  0.80233450218E+02 0.  0.
          6    2    1    2  501    0  0.47638361906E+02  0.41243027962E+02  0.36235092356E+03  0.40825029657E+03  0.17719963872E+03 0.  0.
         24    2    5    5    0    0  0.18478669676E+02  0.95816490870E+02  0.22862922447E+03  0.26083207072E+03  0.78992314043E+02 0.  0.
          5    1    5    5  501    0  0.29159692230E+02 -0.54573462908E+02  0.13372169909E+03  0.14741822585E+03  0.47000000000E+01 0. -1.
        -13    1    6    6    0    0 -0.20162954156E+02  0.76531828579E+02  0.17432125221E+03  0.19144598319E+03  0.00000000000E+00 0.  1.
         14    1    6    6    0    0  0.38641623832E+02  0.19284662291E+02  0.54307972257E+02  0.69386087530E+02  0.00000000000E+00 0. -1.
         -5    1    3    3    0  503  0.91915119804E+01  0.47931859897E+02 -0.16272569091E+02  0.51660754839E+02  0.47000000000E+01 0.  1.
         13    1    4    4    0    0  0.39601421390E+01 -0.59616144677E+02 -0.27324951340E+01  0.59809982123E+02  0.00000000000E+00 0. -1.
        -14    1    4    4    0    0 -0.60790016025E+02 -0.29558743183E+02 -0.45206027088E+02  0.81318695464E+02  0.00000000000E+00 0.  1.
</event>
<event>
12    1  0.8494789E-002  0.2310566E+03  0.7818608E-02  0.1125998E+00
         21   -1    0    0  503  502  0.00000000000E+00  0.00000000000E+00  0.46687463636E+02  0.46687463636E+02  0.00000000000E+00 0.  1.
         21   -1    0    0  501  503 -0.00000000000E+00 -0.00000000000E+00 -0.11443605282E+04  0.11443605282E+04  0.00000000000E+00 0.  1.
          6    2    1    2  501    0 -0.13890515788E+03 -0.67865020944E+02 -0.58322937269E+03  0.62733058340E+03  0.17171737172E+03 0.  0.
         24    2    3    3    0    0 -0.14101131931E+03 -0.10408112628E+03 -0.51414101598E+03  0.54915556671E+03  0.80707986698E+02 0.  0.
         -6    2    1    2    0  502  0.13890515788E+03  0.67865020944E+02 -0.51444369191E+03  0.56371740847E+03  0.17095233403E+03 0.  0.
        -24    2    5    5    0    0  0.14091191468E+03  0.95692412050E+02 -0.35350149334E+03  0.40030727400E+03  0.79179557945E+02 0.  0.
          5    1    3    3  501    0  0.21061614215E+01  0.36216105339E+02 -0.69088356709E+02  0.78175016691E+02  0.47000000000E+01 0. -1.
        -11    1    4    4    0    0 -0.12231501785E+03 -0.10290326964E+03 -0.50199505704E+03  0.52682927385E+03  0.00000000000E+00 0.  1.
         12    1    4    4    0    0 -0.18696301453E+02 -0.11778566470E+01 -0.12145958939E+02  0.22326292860E+02  0.00000000000E+00 0. -1.
         -5    1    5    5    0  502 -0.20067567941E+01 -0.27827391106E+02 -0.16094219856E+03  0.16341013447E+03  0.47000000000E+01 0.  1.
         13    1    6    6    0    0  0.37398535243E+02  0.49135761368E+02 -0.62070626078E+02  0.87554189536E+02  0.00000000000E+00 0. -1.
        -14    1    6    6    0    0  0.10351337944E+03  0.46556650681E+02 -0.29143086726E+03  0.31275308446E+03  0.00000000000E+00 0.  1.
</event>
<event>
12    1  0.8494789E-002  0.1977274E+03  0.7818608E-02  0.1151687E+00
         21   -1    0    0  501  502  0.00000000000E+00  0.00000000000E+00  0.13028039755E+03  0.13028039755E+03  0.00000000000E+00 0.  1.
         21   -1    0    0  502  503 -0.00000000000E+00 -0.00000000000E+00 -0.31205219070E+03  0.31205219070E+03  0.00000000000E+00 0. -1.
         -6    2    1    2    0  503  0.64486218197E+02  0.72702027679E+02 -0.13437550589E+03  0.23900392094E+03  0.17211054725E+03 0.  0.
        -24    2    3    3    0    0 -0.69037007119E+01  0.26389894497E+02 -0.12929248201E+03  0.15362674991E+03  0.78361628151E+02 0.  0.
          6    2    1    2  501    0 -0.64486218197E+02 -0.72702027679E+02 -0.47396287264E+02  0.20332866731E+03  0.17219779829E+03 0.  0.
         24    2    5    5    0    0 -0.79111398657E+02 -0.39976240939E+02 -0.88853221526E+02  0.14832284562E+03  0.79044660285E+02 0.  0.
          5    1    5    5  501    0  0.14625180460E+02 -0.32725786740E+02  0.41456934263E+02  0.55005821689E+02  0.47000000000E+01 0. -1.
        -11    1    6    6    0    0 -0.70279387717E+02  0.27332243342E+01 -0.33643415828E+02  0.77965006777E+02  0.00000000000E+00 0.  1.
         12    1    6    6    0    0 -0.88320109398E+01 -0.42709465273E+02 -0.55209805698E+02  0.70357838841E+02  0.00000000000E+00 0. -1.
         -5    1    3    3    0  503  0.71389918909E+02  0.46312133183E+02 -0.50830238711E+01  0.85377171032E+02  0.47000000000E+01 0.  1.
         13    1    4    4    0    0  0.19882272821E+02 -0.16531146251E+02 -0.75385243236E+02  0.79696414390E+02  0.00000000000E+00 0. -1.
        -14    1    4    4    0    0 -0.26785973533E+02  0.42921040747E+02 -0.53907238778E+02  0.73930335517E+02  0.00000000000E+00 0.  1.
</event>
<event>
12    1  0.8494789E-002  0.2545781E+03  0.7818608E-02  0.1110674E+00
         21   -1    0    0  501  502  0.00000000000E+00  0.00000000000E+00  0.10756798940E+04  0.10756798940E+04  0.00000000000E+00 0. -1.
         21   -1    0    0  502  503 -0.00000000000E+00 -0.00000000000E+00 -0.71409592996E+02  0.71409592996E+02  0.00000000000E+00 0. -1.
         -6    2    1    2    0  503  0.56121599053E+02 -0.17804528380E+03  0.27066818928E+03  0.37057028973E+03  0.17091317671E+03 0.  0.
        -24    2    3    3    0    0  0.39372425668E+02 -0.15310213299E+03  0.11346121691E+03  0.21044903023E+03  0.80155446167E+02 0.  0.
          6    2    1    2  501    0 -0.56121599053E+02  0.17804528380E+03  0.73360211174E+03  0.77651919729E+03  0.17309028987E+03 0.  0.
         24    2    5    5    0    0 -0.86947402757E+02  0.12253689350E+03  0.64947434148E+03  0.67101572200E+03  0.76616172083E+02 0.  0.
          5    1    5    5  501    0  0.30825803703E+02  0.55508390305E+02  0.84127770262E+02  0.10550347529E+03  0.47000000000E+01 0. -1.
        -11    1    6    6    0    0  0.88140217597E+01  0.85982012334E+00  0.11471281041E+02  0.14491948073E+02  0.00000000000E+00 0.  1.
         12    1    6    6    0    0 -0.95761424516E+02  0.12167707337E+03  0.63800306044E+03  0.65652377393E+03  0.00000000000E+00 0. -1.
         -5    1    3    3    0  503  0.16749173386E+02 -0.24943150811E+02  0.15720697237E+03  0.16012125950E+03  0.47000000000E+01 0.  1.
         13    1    4    4    0    0  0.28738696252E+02 -0.16293563474E+02  0.48362904317E+02  0.58569304135E+02  0.00000000000E+00 0. -1.
        -14    1    4    4    0    0  0.10633729416E+02 -0.13680856952E+03  0.65098312596E+02  0.15187972609E+03  0.00000000000E+00 0.  1.
</event>
<event>
12    1  0.8494789E-002  0.2104863E+03  0.7818608E-02  0.1141363E+00
         21   -1    0    0  503  502  0.00000000000E+00  0.00000000000E+00  0.69270982924E+02  0.69270982924E+02  0.00000000000E+00 0.  1.
         21   -1    0    0  501  503 -0.00000000000E+00 -0.00000000000E+00 -0.13676658060E+04  0.13676658060E+04  0.00000000000E+00 0.  1.
          6    2    1    2  501    0  0.11447501323E+03 -0.42248462763E+02 -0.11750693546E+04  0.11937723753E+04  0.17150811831E+03 0.  0.
         24    2    3    3    0    0  0.39003937927E+02 -0.71157270877E+02 -0.89740638107E+03  0.90454855321E+03  0.79279303440E+02 0.  0.
         -6    2    1    2    0  502 -0.11447501323E+03  0.42248462763E+02 -0.12332546856E+03  0.24316441371E+03  0.17038280323E+03 0.  0.
        -24    2    5    5    0    0 -0.52980660519E+02 -0.28187052159E+02 -0.10695101067E+03  0.14812268577E+03  0.83068351724E+02 0.  0.
          5    1    3    3  501    0  0.75471075306E+02  0.28908808114E+02 -0.27766297349E+03  0.28922382205E+03  0.47000000000E+01 0. -1.
        -11    1    4    4    0    0 -0.12519450251E+02  0.40692609299E+01 -0.29375700825E+03  0.29405182437E+03  0.00000000000E+00 0.  1.
         12    1    4    4    0    0  0.51523388178E+02 -0.75226531807E+02 -0.60364937283E+03  0.61049672884E+03  0.00000000000E+00 0. -1.
         -5    1    5    5    0  502 -0.61494352714E+02  0.70435514922E+02 -0.16374457887E+02  0.95041727936E+02  0.47000000000E+01 0.  1.
         13    1    6    6    0    0 -0.45718136275E+02  0.13704236917E+01 -0.10839696694E+03  0.11765172539E+03  0.00000000000E+00 0. -1.
        -14    1    6    6    0    0 -0.72625242438E+01 -0.29557475850E+02  0.14459562681E+01  0.30470960381E+02  0.00000000000E+00 0.  1.
</event>
<event>
12    1  0.8494789E-002  0.1915031E+03  0.7818608E-02  0.1157306E+00
         21   -1    0    0  503  502  0.00000000000E+00  0.00000000000E+00  0.61014520381E+03  0.61014520381E+03  0.00000000000E+00 0.  1.
         21   -1    0    0  501  503 -0.00000000000E+00 -0.00000000000E+00 -0.83477903462E+02  0.83477903462E+02  0.00000000000E+00 0.  1.
          6    2    1    2  501    0 -0.61153085321E+02  0.58593020711E+02  0.79191440807E+02  0.20723112797E+03  0.17175742831E+03 0.  0.
         24    2    3    3    0    0 -0.40492628618E+02  0.16121638398E+01 -0.19492782982E+02  0.91324533909E+02  0.79485532398E+02 0.  0.
         -6    2    1    2    0  502  0.61153085321E+02 -0.58593020711E+02  0.44747585954E+03  0.48639197931E+03  0.17079130757E+03 0.  0.
        -24    2    5    5    0    0  0.10355045641E+02 -0.27519911246E+02  0.88298061117E+02  0.12228106235E+03  0.79319216631E+02 0.  0.
          5    1    3    3  501    0 -0.20660456703E+02  0.56980856871E+02  0.98684223789E+02  0.11590659406E+03  0.47000000000E+01 0. -1.
        -11    1    4    4    0    0  0.16414632846E+02  0.32813260408E+01 -0.29116259489E+02  0.33585172899E+02  0.00000000000E+00 0.  1.
         12    1    4    4    0    0 -0.56907261464E+02 -0.16691622009E+01  0.96234765065E+01  0.57739361010E+02  0.00000000000E+00 0. -1.
         -5    1    5    5    0  502  0.50798039680E+02 -0.31073109465E+02  0.35917779843E+03  0.36411091696E+03  0.47000000000E+01 0.  1.
         11    1    6    6    0    0  0.31068980275E+02 -0.36485672272E+02  0.22928325482E+02  0.53124325180E+02  0.00000000000E+00 0. -1.
        -12    1    6    6    0    0 -0.20713934633E+02  0.89657610262E+01  0.65369735636E+02  0.69156737169E+02  0.00000000000E+00 0.  1.
</event>
<event>
12    1  0.8494789E-002  0.2083829E+03  0.7818608E-02  0.1142906E+00
         21   -1    0    0  501  502  0.00000000000E+00  0.00000000000E+00  0.11704490840E+03  0.11704490840E+03  0.00000000000E+00 0.  1.
         21   -1    0    0  502  503 -0.00000000000E+00 -0.00000000000E+00 -0.40167877032E+03  0.40167877032E+03  0.00000000000E+00 0.  1.
         -6    2    1    2    0  503  0.11404781251E+03 -0.22942784256E+02 -0.70001801649E+02  0.21957431571E+03  0.17256695223E+03 0.  0.
        -24    2    3    3    0    0  0.92972286383E+02 -0.80568081088E+02 -0.67568118579E+02  0.15798807172E+03  0.72523916270E+02 0.  0.
          6    2    1    2  501    0 -0.11404781251E+03  0.22942784256E+02 -0.21463206028E+03  0.29914936301E+03  0.17288766644E+03 0.  0.
         24    2    5    5    0    0 -0.48791356800E+02  0.53649148962E+02 -0.48684245398E+02  0.11814645390E+03  0.79558790440E+02 0.  0.
          5    1    5    5  501    0 -0.65256455706E+02 -0.30706364707E+02 -0.16594781488E+03  0.18100290911E+03  0.47000000000E+01 0. -1.
        -11    1    6    6    0    0 -0.59367530292E+02  0.38690084616E+02 -0.53085641435E+01  0.71060587908E+02  0.00000000000E+00 0.  1.
         12    1    6    6    0    0  0.10576173492E+02  0.14959064346E+02 -0.43375681254E+02  0.47085865991E+02  0.00000000000E+00 0. -1.
         -5    1    3    3    0  503  0.21075526122E+02  0.57625296832E+02 -0.24336830699E+01  0.61586243997E+02  0.47000000000E+01 0.  1.
         13    1    4    4    0    0  0.17989298836E+02  0.38855707300E+01 -0.36464699570E+02  0.40845891437E+02  0.00000000000E+00 0. -1.
        -14    1    4    4    0    0  0.74982987547E+02 -0.84453651818E+02 -0.31103419009E+02  0.11714218028E+03  0.00000000000E+00 0.  1.
</event>
<event>
12    1  0.8494789E-002  0.2070558E+03  0.7818608E-02  0.1144183E+00
         21   -1    0    0  503  502  0.00000000000E+00  0.00000000000E+00  0.31229517235E+03  0.31229517235E+03  0.00000000000E+00 0. -1.
         21   -1    0    0  501  503 -0.00000000000E+00 -0.00000000000E+00 -0.13972311180E+03  0.13972311180E+03  0.00000000000E+00 0.  1.
          6    2    1    2  501    0 -0.68681696938E+02 -0.89741790118E+02  0.51782267413E+02  0.21343268819E+03  0.17349739128E+03 0.  0.
         24    2    3    3    0    0 -0.42690833584E+02 -0.30050831973E+02 -0.38539310831E+02  0.10199385762E+03  0.78688682400E+02 0.  0.
         -6    2    1    2    0  502  0.68681696938E+02  0.89741790118E+02  0.12078979313E+03  0.23858559597E+03  0.17193646527E+03 0.  0.
        -24    2    5    5    0    0  0.10606913595E+03  0.33445969420E+02  0.68930425661E+02  0.15327132976E+03  0.79821065341E+02 0.  0.
          5    1    3    3  501    0 -0.25990863353E+02 -0.59690958145E+02  0.90321578244E+02  0.11143883057E+03  0.47000000000E+01 0. -1.
        -11    1    4    4    0    0 -0.55862087158E+02 -0.46756117631E+02 -0.26289125195E+02  0.77445628806E+02  0.00000000000E+00 0.  1.
         12    1    4    4    0    0  0.13171253574E+02  0.16705285658E+02 -0.12250185636E+02  0.24548228811E+02  0.00000000000E+00 0. -1.
         -5    1    5    5    0  502 -0.37387439016E+02  0.56295820698E+02  0.51859367471E+02  0.85314266209E+02  0.47000000000E+01 0.  1.
         11    1    6    6    0    0 -0.10726640252E+02  0.21745961585E+01 -0.44739711900E+01  0.11823962862E+02  0.00000000000E+00 0. -1.
        -12    1    6    6    0    0  0.11679577621E+03  0.31271373262E+02  0.73404396851E+02  0.14144736690E+03  0.00000000000E+00 0.  1.
</event>
<event>
12    1  0.8494789E-002  0.1793725E+03  0.7818608E-02  0.1169929E+00
         21   -1    0    0  503  502  0.00000000000E+00  0.00000000000E+00  0.30128097626E+02  0.30128097626E+02  0.00000000000E+00 0. -1.
         21   -1    0    0  501  503 -0.00000000000E+00 -0.00000000000E+00 -0.13312635638E+04  0.13312635638E+04  0.00000000000E+00 0. -1.
          6    2    1    2  501    0  0.13688350155E+02  0.31527876988E+02 -0.98216280012E+03  0.99840786209E+03  0.17604861600E+03 0.  0.
         24    2    3    3    0    0  0.87976189098E+01 -0.53742441276E+02 -0.55789510659E+03  0.56560292659E+03  0.75459078384E+02 0.  0.
         -6    2    1    2    0  502 -0.13688350155E+02 -0.31527876988E+02 -0.31897266607E+03  0.36298379934E+03  0.16980076246E+03 0.  0.
        -24    2    5    5    0    0 -0.59344883359E+02  0.93186657184E+01 -0.25641812427E+03  0.27530187547E+03  0.80201093941E+02 0.  0.
          5    1    3    3  501    0  0.48907312448E+01  0.85270318264E+02 -0.42426769352E+03  0.43280493551E+03  0.47000000000E+01 0. -1.
        -11    1    4    4    0    0 -0.30829258448E+02 -0.23321392557E+02 -0.16098214164E+03  0.16555838986E+03  0.00000000000E+00 0.  1.
         12    1    4    4    0    0  0.39626877358E+02 -0.30421048719E+02 -0.39691296495E+03  0.40004453672E+03  0.00000000000E+00 0. -1.
         -5    1    5    5    0  502  0.45656533204E+02 -0.40846542707E+02 -0.62554541795E+02  0.87681923875E+02  0.47000000000E+01 0.  1.
         11    1    6    6    0    0 -0.15519988088E+02 -0.34747210445E+02 -0.97331521872E+02  0.10450676444E+03  0.00000000000E+00 0. -1.
        -12    1    6    6    0    0 -0.43824895271E+02  0.44065876163E+02 -0.15908660240E+03  0.17079511103E+03  0.00000000000E+00 0.  1.
</event>
<event>
12    1  0.8494789E-002  0.1875857E+03  0.7818608E-02  0.1161136E+00
         21   -1    0    0  501  502  0.00000000000E+00  0.00000000000E+00  0.27363978070E+03  0.27363978070E+03  0.00000000000E+00 0. -1.
         21   -1    0    0  502  503 -0.00000000000E+00 -0.00000000000E+00 -0.20291355281E+03  0.20291355281E+03  0.00000000000E+00 0. -1.
         -6    2    1    2    0  503 -0.29663601070E+02  0.63919439577E+02 -0.11008804964E+03  0.21750351407E+03  0.17384699012E+03 0.  0.
        -24    2    3    3    0    0  0.39213899753E+02 -0.71876347210E+01 -0.66908927853E+02  0.10939776633E+03  0.76822357587E+02 0.  0.
          6    2    1    2  501    0  0.29663601070E+02 -0.63919439577E+02  0.18081427753E+03  0.25904981945E+03  0.17160239513E+03 0.  0.
         24    2    5    5    0    0 -0.79387927035E+00 -0.41369336193E+02  0.17357435060E+02  0.91191561918E+02  0.79388715771E+02 0.  0.
          5    1    5    5  501    0  0.30457480340E+02 -0.22550103384E+02  0.16345684247E+03  0.16785825753E+03  0.47000000000E+01 0. -1.
        -11    1    6    6    0    0 -0.67047357711E+01  0.23471269979E+02  0.51551406914E+01  0.24948536465E+02  0.00000000000E+00 0.  1.
         12    1    6    6    0    0  0.59108565008E+01 -0.64840606172E+02  0.12202294369E+02  0.66243025453E+02  0.00000000000E+00 0. -1.
         -5    1    3    3    0  503 -0.68877500822E+02  0.71107074298E+02 -0.43179121790E+02  0.10810574773E+03  0.47000000000E+01 0.  1.
         13    1    4    4    0    0 -0.19719512743E+01 -0.50832319953E+01 -0.67927149432E+02  0.68145619590E+02  0.00000000000E+00 0. -1.
        -14    1    4    4    0    0  0.41185851027E+02 -0.21044027258E+01  0.10182215788E+01  0.41252146742E+02  0.00000000000E+00 0.  1.
</event>
<event>
12    1  0.8494789E-002  0.1753779E+03  0.7818608E-02  0.1172893E+00
         21   -1    0    0  503  502  0.00000000000E+00  0.00000000000E+00  0.27559187129E+03  0.27559187129E+03  0.00000000000E+00 0.  1.
         21   -1    0    0  501  503 -0.00000000000E+00 -0.00000000000E+00 -0.11140217311E+03  0.11140217311E+03  0.00000000000E+00 0.  1.
          6    2    1    2  501    0  0.22987964434E+01 -0.20242128277E+02  0.10232403335E+03  0.20304587632E+03  0.17419067675E+03 0.  0.
         24    2    3    3    0    0 -0.30016092570E+02 -0.10298259647E+02  0.13214753199E+03  0.15771747853E+03  0.80030074711E+02 0.  0.
         -6    2    1    2    0  502 -0.22987964434E+01  0.20242128277E+02  0.61865664834E+02  0.18394816809E+03  0.17203063633E+03 0.  0.
        -24    2    5    5    0    0 -0.47317456681E+02  0.57491535888E+02  0.23804001952E+02  0.11405554817E+03  0.83053110446E+02 0.  0.
          5    1    3    3  501    0  0.32314889013E+02 -0.99438686305E+01 -0.29823498638E+02  0.45328397791E+02  0.47000000000E+01 0. -1.
        -13    1    4    4    0    0  0.14778579455E+02 -0.30234187944E+02  0.33122429071E+02  0.47218723394E+02  0.00000000000E+00 0.  1.
         14    1    4    4    0    0 -0.44794672025E+02  0.19935928298E+02  0.99025102916E+02  0.11049875513E+03  0.00000000000E+00 0. -1.
         -5    1    5    5    0  502  0.45018660237E+02 -0.37249407611E+02  0.38061662882E+02  0.69892619912E+02  0.47000000000E+01 0.  1.
         11    1    6    6    0    0  0.51709219880E+01 -0.14705128915E+02  0.19125017186E+02  0.24672769058E+02  0.00000000000E+00 0. -1.
        -12    1    6    6    0    0 -0.52488378669E+02  0.72196664803E+02  0.46789847666E+01  0.89382779116E+02  0.00000000000E+00 0.  1.
</event>
<event>
12    1  0.8494789E-002  0.1879847E+03  0.7818608E-02  0.1160889E+00
         21   -1    0    0  503  502  0.00000000000E+00  0.00000000000E+00  0.14231039216E+03  0.14231039216E+03  0.00000000000E+00 0. -1.
         21   -1    0    0  501  503 -0.00000000000E+00 -0.00000000000E+00 -0.51683848212E+03  0.51683848212E+03  0.00000000000E+00 0. -1.
          6    2    1    2  501    0  0.65827297387E+02 -0.13559642668E+02 -0.42570612536E+03  0.46432221526E+03  0.17277823192E+03 0.  0.
         24    2    3    3    0    0  0.73851887732E+02  0.27572844882E+02 -0.15653067586E+03  0.19186343270E+03  0.78072794395E+02 0.  0.
         -6    2    1    2    0  502 -0.65827297387E+02  0.13559642668E+02  0.51178035397E+02  0.19482665902E+03  0.17555950207E+03 0.  0.
        -24    2    5    5    0    0 -0.83678346360E+02 -0.12129306305E+02  0.87560783393E+02  0.14661487207E+03  0.81730313856E+02 0.  0.
          5    1    3    3  501    0 -0.80245903448E+01 -0.41132487550E+02 -0.26917544950E+03  0.27245878257E+03  0.47000000000E+01 0. -1.
        -11    1    4    4    0    0  0.15914139783E+02  0.45883813812E+02 -0.53544959607E+02  0.72288636135E+02  0.00000000000E+00 0.  1.
         12    1    4    4    0    0  0.57937747949E+02 -0.18310968931E+02 -0.10298571625E+03  0.11957479656E+03  0.00000000000E+00 0. -1.
         -5    1    5    5    0  502  0.17851048973E+02  0.25688948973E+02 -0.36382747997E+02  0.48211786946E+02  0.47000000000E+01 0.  1.
         11    1    6    6    0    0 -0.58826046822E+02  0.28346694304E+02  0.29645118276E+02  0.71713819451E+02  0.00000000000E+00 0. -1.
        -12    1    6    6    0    0 -0.24852299538E+02 -0.40476000609E+02  0.57915665117E+02  0.74901052620E+02  0.00000000000E+00 0.  1.
</event>
<event>
12    1  0.8494789E-002  0.2861224E+03  0.7818608E-02  0.1092653E+00
         21   -1    0    0  501  502  0.00000000000E+00  0.00000000000E+00  0.32319742029E+03  0.32319742029E+03  0.00000000000E+00 0. -1.
         21   -1    0    0  502  503 -0.00000000000E+00 -0.00000000000E+00 -0.27841159240E+03  0.27841159240E+03  0.00000000000E+00 0.  1.
         -6    2    1    2    0  503 -0.49240345279E+02  0.22288361026E+03 -0.70944823019E+02  0.29478674317E+03  0.17252344973E+03 0.  0.
        -24    2    3    3    0    0 -0.79347901084E+02  0.22123679650E+03 -0.39636689297E+02  0.25106642581E+03  0.78876317750E+02 0.  0.
          6    2    1    2  501    0  0.49240345279E+02 -0.22288361026E+03  0.11573065091E+03  0.30682226952E+03  0.16924717483E+03 0.  0.
         24    2    5    5    0    0  0.70647896165E+02 -0.10157972816E+03  0.10825852799E+02  0.14495806189E+03  0.74740044229E+02 0.  0.
          5    1    5    5  501    0 -0.21407550886E+02 -0.12130388210E+03  0.10490479811E+03  0.16186420764E+03  0.47000000000E+01 0. -1.
        -13    1    6    6    0    0 -0.80866727011E+01 -0.42763144084E+02  0.16433739346E+02  0.46520410104E+02  0.00000000000E+00 0.  1.
         14    1    6    6    0    0  0.78734568866E+02 -0.58816584074E+02 -0.56078865469E+01  0.98437651781E+02  0.00000000000E+00 0. -1.
         -5    1    3    3    0  503  0.30107555805E+02  0.16468137598E+01 -0.31308133722E+02  0.43720317351E+02  0.47000000000E+01 0.  1.
         13    1    4    4    0    0 -0.41616505538E+02  0.12003249157E+03  0.18536792531E+02  0.12838748086E+03  0.00000000000E+00 0. -1.
        -14    1    4    4    0    0 -0.37731395546E+02  0.10120430493E+03 -0.58173481828E+02  0.12267894495E+03  0.00000000000E+00 0.  1.
</event>
<event>
12    1  0.8494789E-002  0.2706673E+03  0.7818608E-02  0.1100992E+00
         21   -1    0    0  503  502  0.00000000000E+00  0.00000000000E+00  0.17433651930E+04  0.17433651930E+04  0.00000000000E+00 0.  1.
         21   -1    0    0  501  503 -0.00000000000E+00 -0.00000000000E+00 -0.21266787524E+03  0.21266787524E+03  0.00000000000E+00 0.  1.
          6    2    1    2  501    0  0.16816732354E+03  0.12214975261E+03 -0.11117225329E+03  0.29200287068E+03  0.17235311374E+03 0.  0.
         24    2    3    3    0    0  0.17318068902E+03  0.14714549370E+03 -0.84772015006E+02  0.25500309382E+03  0.78720619699E+02 0.  0.
         -6    2    1    2    0  502 -0.16816732354E+03 -0.12214975261E+03  0.16418695710E+04  0.16640301975E+04  0.17337819715E+03 0.  0.
        -24    2    5    5    0    0 -0.69311668480E+02 -0.12541781485E+03  0.85117425416E+03  0.86715863016E+03  0.83263096498E+02 0.  0.
          5    1    3    3  501    0 -0.50133654823E+01 -0.24995741090E+02 -0.26400238287E+02  0.36999776860E+02  0.47000000000E+01 0. -1.
        -11    1    4    4    0    0  0.78125804355E+02  0.11447920092E+03 -0.35535133816E+02  0.14307995836E+03  0.00000000000E+00 0.  1.
         12    1    4    4    0    0  0.95054884666E+02  0.32666292781E+02 -0.49236881189E+02  0.11192313546E+03  0.00000000000E+00 0. -1.
         -5    1    5    5    0  502 -0.98855655059E+02  0.32680622471E+01  0.79069531687E+03  0.79687156737E+03  0.47000000000E+01 0.  1.
         11    1    6    6    0    0  0.12635718510E+02 -0.20876069844E+02  0.57778759442E+02  0.62720464898E+02  0.00000000000E+00 0. -1.
        -12    1    6    6    0    0 -0.81947386990E+02 -0.10454174501E+03  0.79339549472E+03  0.80443816526E+03  0.00000000000E+00 0.  1.
</event>
<event>
12    1  0.8494789E-002  0.1759867E+03  0.7818608E-02  0.1171820E+00
         21   -1    0    0  503  502  0.00000000000E+00  0.00000000000E+00  0.12214736195E+03  0.12214736195E+03  0.00000000000E+00 0. -1.
         21   -1    0    0  501  503 -0.00000000000E+00 -0.00000000000E+00 -0.25964342337E+03  0.25964342337E+03  0.00000000000E+00 0. -1.
          6    2    1    2  501    0 -0.35598237083E+02  0.70298640272E+01 -0.98942792439E+02  0.20163067731E+03  0.17189706334E+03 0.  0.
         24    2    3    3    0    0 -0.83078875285E+02 -0.16395641608E+02 -0.44587421095E+02  0.12560593323E+03  0.81350450280E+02 0.  0.
         -6    2    1    2    0  502  0.35598237083E+02 -0.70298640272E+01 -0.38553268987E+02  0.18016010801E+03  0.17220527430E+03 0.  0.
        -24    2    5    5    0    0  0.79871639644E+01 -0.68902205809E+02 -0.10461146805E+02  0.10666306477E+03  0.80350886988E+02 0.  0.
          5    1    3    3  501    0  0.47480638201E+02  0.23425505635E+02 -0.54355371343E+02  0.76024744078E+02  0.47000000000E+01 0. -1.
        -11    1    4    4    0    0 -0.57298500348E+02  0.29753600047E+02 -0.24741283843E+02  0.69141347861E+02  0.00000000000E+00 0.  1.
         12    1    4    4    0    0 -0.25780374937E+02 -0.46149241655E+02 -0.19846137253E+02  0.56464585371E+02  0.00000000000E+00 0. -1.
         -5    1    5    5    0  502  0.27611073119E+02  0.61872341782E+02 -0.28092122182E+02  0.73497043240E+02  0.47000000000E+01 0.  1.
         11    1    6    6    0    0 -0.29454340776E+02 -0.24056447592E+02  0.17538108329E+02  0.41879065236E+02  0.00000000000E+00 0. -1.
        -12    1    6    6    0    0  0.37441504741E+02 -0.44845758217E+02 -0.27999255133E+02  0.64783999532E+02  0.00000000000E+00 0.  1.
</event>
<event>
12    1  0.8494789E-002  0.3218734E+03  0.7818608E-02  0.1074805E+00
         21   -1    0    0  503  502  0.00000000000E+00  0.00000000000E+00  0.59075105403E+03  0.59075105403E+03  0.00000000000E+00 0. -1.
         21   -1    0    0  501  503 -0.00000000000E+00 -0.00000000000E+00 -0.43002115375E+03  0.43002115375E+03  0.00000000000E+00 0.  1.
          6    2    1    2  501    0 -0.19824162426E+03  0.18607497370E+03 -0.31245305877E+03  0.44849204887E+03  0.17203071393E+03 0.  0.
         24    2    3    3    0    0 -0.14480523563E+03  0.47458546832E+02 -0.14245748553E+03  0.22268118476E+03  0.77922428920E+02 0.  0.
         -6    2    1    2    0  502  0.19824162426E+03 -0.18607497370E+03  0.47318295906E+03  0.57228015891E+03  0.17227544838E+03 0.  0.
        -24    2    5    5    0    0  0.13173737100E+03 -0.15632285546E+03  0.22873983419E+03  0.31716736908E+03  0.80508746150E+02 0.  0.
          5    1    3    3  501    0 -0.53436388626E+02  0.13861642687E+03 -0.16999557324E+03  0.22581086411E+03  0.47000000000E+01 0. -1.
        -11    1    4    4    0    0 -0.78858203797E+02  0.58634342996E+02 -0.55113530360E+02  0.11266811312E+03  0.00000000000E+00 0.  1.
         12    1    4    4    0    0 -0.65947031836E+02 -0.11175796163E+02 -0.87343955167E+02  0.11001307164E+03  0.00000000000E+00 0. -1.
         -5    1    5    5    0  502  0.66504253259E+02 -0.29752118246E+02  0.24444312486E+03  0.25511278983E+03  0.47000000000E+01 0.  1.
         11    1    6    6    0    0  0.77658638075E+02 -0.64706108000E+02  0.16394388842E+03  0.19260151358E+03  0.00000000000E+00 0. -1.
        -12    1    6    6    0    0  0.54078732925E+02 -0.91616747459E+02  0.64795945770E+02  0.12456585551E+03  0.00000000000E+00 0.  1.
</event>
<event>
12    1  0.8494789E-002  0.2039561E+03  0.7818608E-02  0.1146646E+00
         21   -1    0    0  501  502  0.00000000000E+00  0.00000000000E+00  0.62060173425E+02  0.62060173425E+02  0.00000000000E+00 0. -1.
         21   -1    0    0  502  503 -0.00000000000E+00 -0.00000000000E+00 -0.68635251259E+03  0.68635251259E+03  0.00000000000E+00 0. -1.
         -6    2    1    2    0  503 -0.38283978268E+02  0.10149576269E+03 -0.24866701967E+03  0.32098729517E+03  0.17155321084E+03 0.  0.
        -24    2    3    3    0    0 -0.27488737225E+01  0.11018807950E+03 -0.24923989052E+03  0.28409938105E+03  0.80268089044E+02 0.  0.
          6    2    1    2  501    0  0.38283978268E+02 -0.10149576269E+03 -0.37562531950E+03  0.42742539085E+03  0.17271662126E+03 0.  0.
         24    2    5    5    0    0 -0.41594433289E+02 -0.39474599060E+02 -0.22414730944E+03  0.24523081656E+03  0.81288352229E+02 0.  0.
          5    1    5    5  501    0  0.79878411557E+02 -0.62021163631E+02 -0.15147801006E+03  0.18219457429E+03  0.47000000000E+01 0. -1.
        -11    1    6    6    0    0  0.15926644583E+02  0.12920866318E+02 -0.63560752966E+02  0.66787544585E+02  0.00000000000E+00 0.  1.
         12    1    6    6    0    0 -0.57521077872E+02 -0.52395465378E+02 -0.16058655647E+03  0.17844327197E+03  0.00000000000E+00 0. -1.
         -5    1    3    3    0  503 -0.35535104545E+02 -0.86923168126E+01  0.57287084754E+00  0.36887914113E+02  0.47000000000E+01 0.  1.
         11    1    4    4    0    0 -0.21953325119E+02  0.56960971701E+02 -0.19993506958E+03  0.20904672403E+03  0.00000000000E+00 0. -1.
        -12    1    4    4    0    0  0.19204451396E+02  0.53227107802E+02 -0.49304820940E+02  0.75052657024E+02  0.00000000000E+00 0.  1.
</event>
<event>
12    1  0.8494789E-002  0.2140448E+03  0.7818608E-02  0.1138871E+00
         21   -1    0    0  503  502  0.00000000000E+00  0.00000000000E+00  0.90421140957E+03  0.90421140957E+03  0.00000000000E+00 0.  1.
         21   -1    0    0  501  503 -0.00000000000E+00 -0.00000000000E+00 -0.75556728793E+02  0.75556728793E+02  0.00000000000E+00 0. -1.
          6    2    1    2  501    0  0.12318500466E+03 -0.51425218822E+00  0.12841581385E+03  0.24754572293E+03  0.17208560041E+03 0.  0.
         24    2    3    3    0    0  0.15287089378E+03 -0.26035476454E+01  0.72736466389E+02  0.18423777002E+03  0.72640716783E+02 0.  0.
         -6    2    1    2    0  502 -0.12318500466E+03  0.51425218822E+00  0.70023886693E+03  0.73222241544E+03  0.17504395184E+03 0.  0.
        -24    2    5    5    0    0 -0.11979285061E+03  0.35054773181E+02  0.66910861282E+03  0.68536372338E+03  0.80236733508E+02 0.  0.
          5    1    3    3  501    0 -0.29685889121E+02  0.20892954571E+01  0.55679347457E+02  0.63307952910E+02  0.47000000000E+01 0. -1.
        -13    1    4    4    0    0  0.10116034718E+02 -0.14911359648E+02  0.29507549669E+02  0.34574243194E+02  0.00000000000E+00 0.  1.
         14    1    4    4    0    0  0.14275485906E+03  0.12307812003E+02  0.43228916720E+02  0.14966352683E+03  0.00000000000E+00 0. -1.
         -5    1    5    5    0  502 -0.33921540490E+01 -0.34540520993E+02  0.31130254114E+02  0.46858692051E+02  0.47000000000E+01 0.  1.
         11    1    6    6    0    0 -0.56983034354E+02 -0.54043912635E+01  0.14387349977E+03  0.15484139494E+03  0.00000000000E+00 0. -1.
        -12    1    6    6    0    0 -0.62809816253E+02  0.40459164444E+02  0.52523511304E+03  0.53052232845E+03  0.00000000000E+00 0.  1.
</event>
<event>
12    1  0.8494789E-002  0.3000556E+03  0.7818608E-02  0.1085484E+00
         21   -1    0    0  503  502  0.00000000000E+00  0.00000000000E+00  0.76613098430E+03  0.76613098430E+03  0.00000000000E+00 0.  1.
         21   -1    0    0  501  503 -0.00000000000E+00 -0.00000000000E+00 -0.14066434462E+03  0.14066434462E+03  0.00000000000E+00 0. -1.
          6    2    1    2  501    0 -0.24338201035E+03 -0.52811740045E+01  0.50092480331E+03  0.58391696113E+03  0.17541569245E+03 0.  0.
         24    2    3    3    0    0 -0.32383608695E+02  0.16867952450E+02  0.12104683918E+03  0.14878449057E+03  0.78429977851E+02 0.  0.
         -6    2    1    2    0  502  0.24338201035E+03  0.52811740045E+01  0.12454183637E+03  0.32287836779E+03  0.17168889778E+03 0.  0.
        -24    2    5    5    0    0  0.25519949504E+03  0.28782792840E+02  0.12477021397E+03  0.29615532177E+03  0.78645641266E+02 0.  0.
          5    1    3    3  501    0 -0.21099840166E+03 -0.22149126455E+02  0.37987796413E+03  0.43513247056E+03  0.47000000000E+01 0. -1.
        -13    1    4    4    0    0 -0.43545398020E+02 -0.16028197067E+02  0.93749354508E+02  0.10460423634E+03  0.00000000000E+00 0.  1.
         14    1    4    4    0    0  0.11161789325E+02  0.32896149517E+02  0.27297484672E+02  0.44180254225E+02  0.00000000000E+00 0. -1.
         -5    1    5    5    0  502 -0.11817484687E+02 -0.23501618835E+02 -0.22837759394E+00  0.26723046019E+02  0.47000000000E+01 0.  1.
         11    1    6    6    0    0  0.79953090385E+02  0.34843082020E+02  0.12916685344E+02  0.88166761237E+02  0.00000000000E+00 0. -1.
        -12    1    6    6    0    0  0.17524640465E+03 -0.60602891803E+01  0.11185352862E+03  0.20798856054E+03  0.00000000000E+00 0.  1.
</event>
<event>
12    1  0.8494789E-002  0.2513395E+03  0.7818608E-02  0.1112890E+00
         21   -1    0    0  503  502  0.00000000000E+00  0.00000000000E+00  0.27932903717E+03  0.27932903717E+03  0.00000000000E+00 0.  1.
         21   -1    0    0  501  503 -0.00000000000E+00 -0.00000000000E+00 -0.22553781232E+03  0.22553781232E+03  0.00000000000E+00 0. -1.
          6    2    1    2  501    0  0.43133776680E+02  0.17530858368E+03  0.49449612902E+02  0.25348987742E+03  0.17093341259E+03 0.  0.
         24    2    3    3    0    0  0.83661594425E+02  0.17283488102E+03  0.40159018553E+02  0.21157295531E+03  0.79241467487E+02 0.  0.
         -6    2    1    2    0  502 -0.43133776680E+02 -0.17530858368E+03  0.43416119454E+01  0.25137697207E+03  0.17486540621E+03 0.  0.
        -24    2    5    5    0    0 -0.80011381876E+02 -0.54943448697E+02 -0.13393907696E+02  0.12415919760E+03  0.76259463673E+02 0.  0.
          5    1    3    3  501    0 -0.40527817745E+02  0.24737026601E+01  0.92905943484E+01  0.41916922113E+02  0.47000000000E+01 0. -1.
        -13    1    4    4    0    0  0.26968125720E+02  0.12873322909E+03  0.50500538350E+01  0.13162456884E+03  0.00000000000E+00 0.  1.
         14    1    4    4    0    0  0.56693468705E+02  0.44101651925E+02  0.35108964718E+02  0.79948386475E+02  0.00000000000E+00 0. -1.
         -5    1    5    5    0  502  0.36877605197E+02 -0.12036513498E+03  0.17735519642E+02  0.12721777447E+03  0.47000000000E+01 0.  1.
         11    1    6    6    0    0  0.52143815112E+01 -0.25372731000E+02 -0.21393196420E+02  0.33595150037E+02  0.00000000000E+00 0. -1.
        -12    1    6    6    0    0 -0.85225763387E+02 -0.29570717697E+02  0.79992887237E+01  0.90564047559E+02  0.00000000000E+00 0.  1.
</event>
<event>
12    1  0.8494789E-002  0.1941049E+03  0.7818608E-02  0.1154845E+00
         21   -1    0    0  503  502  0.00000000000E+00  0.00000000000E+00  0.25877493625E+02  0.25877493625E+02  0.00000000000E+00 0. -1.
         21   -1    0    0  501  503 -0.00000000000E+00 -0.00000000000E+00 -0.14723682224E+04  0.14723682224E+04  0.00000000000E+00 0. -1.
          6    2    1    2  501    0  0.70587325257E+01  0.89076860331E+02 -0.64168616276E+03  0.67040124775E+03  0.17231421515E+03 0.  0.
         24    2    3    3    0    0 -0.51687317216E+02  0.88352846819E+02 -0.51144551518E+03  0.52744552439E+03  0.78386618142E+02 0.  0.
         -6    2    1    2    0  502 -0.70587325257E+01 -0.89076860331E+02 -0.80480456597E+03  0.82784446824E+03  0.17213820446E+03 0.  0.
        -24    2    5    5    0    0 -0.29878709435E+02 -0.11767197750E+03 -0.51320285233E+03  0.53391916910E+03  0.83385130177E+02 0.  0.
          5    1    3    3  501    0  0.58746049742E+02  0.72401351244E+00 -0.13024064759E+03  0.14295572335E+03  0.47000000000E+01 0. -1.
        -13    1    4    4    0    0 -0.20010391130E+02  0.81317953017E+02 -0.24256488252E+03  0.25661400482E+03  0.00000000000E+00 0.  1.
         14    1    4    4    0    0 -0.31676926086E+02  0.70348938015E+01 -0.26888063266E+03  0.27083151957E+03  0.00000000000E+00 0. -1.
         -5    1    5    5    0  502  0.22819976909E+02  0.28595117165E+02 -0.29160171365E+03  0.29392529914E+03  0.47000000000E+01 0.  1.
         11    1    6    6    0    0 -0.22989738973E+02 -0.22458262118E+02 -0.28139178405E+03  0.28322118171E+03  0.00000000000E+00 0. -1.
        -12    1    6    6    0    0 -0.68889704615E+01 -0.95213715379E+02 -0.23181106828E+03  0.25069798740E+03  0.00000000000E+00 0.  1.
</event>
<event>
12    1  0.8494789E-002  0.1779313E+03  0.7818608E-02  0.1170783E+00
         21   -1    0    0  503  502  0.00000000000E+00  0.00000000000E+00  0.43647199047E+03  0.43647199047E+03  0.00000000000E+00 0.  1.
         21   -1    0    0  501  503 -0.00000000000E+00 -0.00000000000E+00 -0.16991968087E+03  0.16991968087E+03  0.00000000000E+00 0.  1.
          6    2    1    2  501    0  0.46595864362E+02  0.18656031079E+01 -0.98708667809E+02  0.20009726476E+03  0.16769275242E+03 0.  0.
         24    2    3    3    0    0 -0.37920727312E+02 -0.11145880368E+02 -0.52732354361E+02  0.10289508182E+03  0.79022050451E+02 0.  0.
         -6    2    1    2    0  502 -0.46595864362E+02 -0.18656031079E+01  0.36526097741E+03  0.40629440658E+03  0.17171170068E+03 0.  0.
        -24    2    5    5    0    0  0.16133076012E+02 -0.55447986337E+02  0.20432304590E+03  0.22538255083E+03  0.75595183730E+02 0.  0.
          5    1    3    3  501    0  0.84516591674E+02  0.13011483476E+02 -0.45976313448E+02  0.97202182942E+02  0.47000000000E+01 0. -1.
        -13    1    4    4    0    0 -0.44539714765E+02  0.25189698735E+02 -0.26765531753E+02  0.57746868346E+02  0.00000000000E+00 0.  1.
         14    1    4    4    0    0  0.66189874528E+01 -0.36335579103E+02 -0.25966822608E+02  0.45148213475E+02  0.00000000000E+00 0. -1.
         -5    1    5    5    0  502 -0.62728940373E+02  0.53582383229E+02  0.16093793151E+03  0.18091185575E+03  0.47000000000E+01 0.  1.
         11    1    6    6    0    0 -0.21510217137E+01  0.17614115981E+02  0.23074317668E+02  0.29108557368E+02  0.00000000000E+00 0. -1.
        -12    1    6    6    0    0  0.18284097725E+02 -0.73062102317E+02  0.18124872823E+03  0.19627399346E+03  0.00000000000E+00 0.  1.
</event>
<event>
12    1  0.8494789E-002  0.1811071E+03  0.7818608E-02  0.1167637E+00
         21   -1    0    0  503  502  0.00000000000E+00  0.00000000000E+00  0.73141583652E+03  0.73141583652E+03  0.00000000000E+00 0.  1.
         21   -1    0    0  501  503 -0.00000000000E+00 -0.00000000000E+00 -0.64596151925E+02  0.64596151925E+02  0.00000000000E+00 0. -1.
          6    2    1    2  501    0 -0.92379916180E+01 -0.56020834787E+02  0.10594370603E+03  0.20662109126E+03  0.16806109629E+03 0.  0.
         24    2    3    3    0    0  0.29954281939E+02 -0.79734244434E+02  0.36843423036E+02  0.12358315286E+03  0.81612187252E+02 0.  0.
         -6    2    1    2    0  502  0.92379916180E+01  0.56020834787E+02  0.56087597857E+03  0.58939089719E+03  0.17197700990E+03 0.  0.
        -24    2    5    5    0    0  0.60072936795E+02 -0.74726774552E+00  0.37480477493E+03  0.38826558317E+03  0.81622470064E+02 0.  0.
          5    1    3    3  501    0 -0.39192273557E+02  0.23713409647E+02  0.69100282994E+02  0.83037938399E+02  0.47000000000E+01 0. -1.
        -13    1    4    4    0    0 -0.60748271170E+01  0.15217766397E+02  0.43334402561E+01  0.16948824239E+02  0.00000000000E+00 0.  1.
         14    1    4    4    0    0  0.36029109056E+02 -0.94952010831E+02  0.32509982780E+02  0.10663432862E+03  0.00000000000E+00 0. -1.
         -5    1    5    5    0  502 -0.50834945177E+02  0.56768102532E+02  0.18607120364E+03  0.20112531402E+03  0.47000000000E+01 0.  1.
         11    1    6    6    0    0  0.10790764508E+02 -0.28716881005E+02  0.50810389365E+02  0.59353142467E+02  0.00000000000E+00 0. -1.
        -12    1    6    6    0    0  0.49282172287E+02  0.27969613259E+02  0.32399438556E+03  0.32891244070E+03  0.00000000000E+00 0.  1.
</event>
<event>
12    1  0.8494789E-002  0.1913588E+03  0.7818608E-02  0.1159414E+00
         21   -1    0    0  501  502  0.00000000000E+00  0.00000000000E+00  0.42865011020E+03  0.42865011020E+03  0.00000000000E+00 0.  1.
         21   -1    0    0  502  503 -0.00000000000E+00 -0.00000000000E+00 -0.89369838752E+02  0.89369838752E+02  0.00000000000E+00 0.  1.
         -6    2    1    2    0  503 -0.84308446926E+02  0.12248014383E+02  0.87699903337E+02  0.20193315105E+03  0.16071028706E+03 0.  0.
        -24    2    3    3    0    0  0.49126204695E+01 -0.79985166380E+01  0.73538858588E+02  0.10923500611E+03  0.80226010308E+02 0.  0.
          6    2    1    2  501    0  0.84308446926E+02 -0.12248014383E+02  0.25158036811E+03  0.31608679791E+03  0.17134834143E+03 0.  0.
         24    2    5    5    0    0  0.12133660105E+03 -0.22444877152E+02  0.21742361452E+03  0.26447445419E+03  0.86298119914E+02 0.  0.
          5    1    5    5  501    0 -0.37028154127E+02  0.10196862769E+02  0.34156753594E+02  0.51612343722E+02  0.47000000000E+01 0. -1.
        -13    1    6    6    0    0  0.77829163278E+02 -0.47631468561E+01  0.19951789911E+03  0.21421358101E+03  0.00000000000E+00 0.  1.
         14    1    6    6    0    0  0.43507437775E+02 -0.17681730296E+02  0.17905715411E+02  0.50260873176E+02  0.00000000000E+00 0. -1.
         -5    1    3    3    0  503 -0.89221067396E+02  0.20246531021E+02  0.14161044749E+02  0.92698144933E+02  0.47000000000E+01 0.  1.
         11    1    4    4    0    0  0.39623385689E+02 -0.10728433445E+02  0.20746697615E+02  0.45994971894E+02  0.00000000000E+00 0. -1.
        -12    1    4    4    0    0 -0.34710765219E+02  0.27299168069E+01  0.52792160973E+02  0.63240034220E+02  0.00000000000E+00 0.  1.
</event>
<event>
12    1  0.8494789E-002  0.2298974E+03  0.7818608E-02  0.1127051E+00
         21   -1    0    0  503  502  0.00000000000E+00  0.00000000000E+00  0.62741668198E+03  0.62741668198E+03  0.00000000000E+00 0.  1.
         21   -1    0    0  501  503 -0.00000000000E+00 -0.00000000000E+00 -0.10311455210E+03  0.10311455210E+03  0.00000000000E+00 0. -1.
          6    2    1    2  501    0  0.11141031754E+03 -0.10220020306E+03  0.10388665935E+03  0.25228006710E+03  0.17319253420E+03 0.  0.
         24    2    3    3    0    0  0.55945138798E+02 -0.37724922450E+02 -0.15127346138E+02  0.10592477555E+03  0.80238352081E+02 0.  0.
         -6    2    1    2    0  502 -0.11141031754E+03  0.10220020306E+03  0.42041547053E+03  0.47825116698E+03  0.17063959239E+03 0.  0.
        -24    2    5    5    0    0 -0.33149635402E+02  0.10558622281E+03  0.18372223007E+03  0.22888801898E+03  0.79928209261E+02 0.  0.
          5    1    3    3  501    0  0.55465178744E+02 -0.64475280606E+02  0.11901400549E+03  0.14635529155E+03  0.47000000000E+01 0. -1.
        -11    1    4    4    0    0 -0.74923756250E+01  0.18292053342E+02  0.91340482243E+00  0.19788107952E+02  0.00000000000E+00 0.  1.
         12    1    4    4    0    0  0.63437514423E+02 -0.56016975792E+02 -0.16040750961E+02  0.86136667595E+02  0.00000000000E+00 0. -1.
         -5    1    5    5    0  502 -0.78260682139E+02 -0.33860197544E+01  0.23669324046E+03  0.24936314800E+03  0.47000000000E+01 0.  1.
         13    1    6    6    0    0  0.21415982515E+02  0.44191933828E+02  0.10104073917E+03  0.11234234417E+03  0.00000000000E+00 0. -1.
        -14    1    6    6    0    0 -0.54565617917E+02  0.61394288982E+02  0.82681490898E+02  0.11654567480E+03  0.00000000000E+00 0.  1.
</event>
<event>
12    1  0.8494789E-002  0.2560561E+03  0.7818608E-02  0.1110914E+00
         21   -1    0    0  501  502  0.00000000000E+00  0.00000000000E+00  0.37438524581E+03  0.37438524581E+03  0.00000000000E+00 0. -1.
         21   -1    0    0  502  503 -0.00000000000E+00 -0.00000000000E+00 -0.26497002488E+03  0.26497002488E+03  0.00000000000E+00 0.  1.
         -6    2    1    2    0  503 -0.17063246704E+03  0.48486329449E+02 -0.13690944008E+03  0.29036002682E+03  0.18465748682E+03 0.  0.
        -24    2    3    3    0    0 -0.98505344265E+02 -0.20450693932E+02 -0.12211778191E+02  0.13059071840E+03  0.82360636678E+02 0.  0.
          6    2    1    2  501    0  0.17063246704E+03 -0.48486329449E+02  0.24632466100E+03  0.34899524388E+03  0.17220766150E+03 0.  0.
         24    2    5    5    0    0  0.64176212509E+02 -0.57800724147E+02  0.20159064496E+03  0.23305166161E+03  0.78833868854E+02 0.  0.
          5    1    5    5  501    0  0.10645625453E+03  0.93143946973E+01  0.44734016040E+02  0.11594358227E+03  0.47000000000E+01 0. -1.
        -13    1    6    6    0    0  0.16180797327E+02  0.89447741640E+01  0.38260034971E+01  0.18880293688E+02  0.00000000000E+00 0.  1.
         14    1    6    6    0    0  0.47995415181E+02 -0.66745498311E+02  0.19776464147E+03  0.21417136792E+03  0.00000000000E+00 0. -1.
         -5    1    3    3    0  503 -0.72127122778E+02  0.68937023382E+02 -0.12469766189E+03  0.15976930842E+03  0.47000000000E+01 0.  1.
         13    1    4    4    0    0 -0.11256630141E+03 -0.23976394713E+02 -0.74495565959E+01  0.11533228347E+03  0.00000000000E+00 0. -1.
        -14    1    4    4    0    0  0.14060957147E+02  0.35257007811E+01 -0.47622215953E+01  0.15258434927E+02  0.00000000000E+00 0.  1.
</event>
<event>
12    1  0.8494789E-002  0.1919323E+03  0.7818608E-02  0.1156901E+00
         21   -1    0    0  503  502  0.00000000000E+00  0.00000000000E+00  0.11500514296E+03  0.11500514296E+03  0.00000000000E+00 0. -1.
         21   -1    0    0  501  503 -0.00000000000E+00 -0.00000000000E+00 -0.32054462170E+03  0.32054462170E+03  0.00000000000E+00 0. -1.
          6    2    1    2  501    0  0.57360632712E+02 -0.64175927977E+02 -0.11748592460E+03  0.22438292068E+03  0.17069259121E+03 0.  0.
         24    2    3    3    0    0  0.58212758247E+01 -0.68095635756E+02 -0.13330225802E+03  0.17012505655E+03  0.80635848177E+02 0.  0.
         -6    2    1    2    0  502 -0.57360632712E+02  0.64175927977E+02 -0.88053554144E+02  0.21116684398E+03  0.17154945550E+03 0.  0.
        -24    2    5    5    0    0 -0.34139017295E+02  0.80399625512E+02 -0.48122886785E+00  0.11900690725E+03  0.80825986587E+02 0.  0.
          5    1    3    3  501    0  0.51539356887E+02  0.39197077786E+01  0.15816333413E+02  0.54257864131E+02  0.47000000000E+01 0. -1.
        -13    1    4    4    0    0 -0.69830561422E+01 -0.22887802576E+02 -0.11845654575E+03  0.12084936000E+03  0.00000000000E+00 0.  1.
         14    1    4    4    0    0  0.12804331967E+02 -0.45207833179E+02 -0.14845712265E+02  0.49275696551E+02  0.00000000000E+00 0. -1.
         -5    1    5    5    0  502 -0.23221615417E+02 -0.16223697535E+02 -0.87572325276E+02  0.92159936733E+02  0.47000000000E+01 0.  1.
         11    1    6    6    0    0 -0.82781197323E+01  0.65333816908E+02 -0.33963113772E+02  0.74098097109E+02  0.00000000000E+00 0. -1.
        -12    1    6    6    0    0 -0.25860897562E+02  0.15065808604E+02  0.33481884904E+02  0.44908810142E+02  0.00000000000E+00 0.  1.
</event>
<event>
12    1  0.8494789E-002  0.1976429E+03  0.7818608E-02  0.1152320E+00
         21   -1    0    0  503  502  0.00000000000E+00  0.00000000000E+00  0.18001592593E+03  0.18001592593E+03  0.00000000000E+00 0.  1.
         21   -1    0    0  501  503 -0.00000000000E+00 -0.00000000000E+00 -0.22455691803E+03  0.22455691803E+03  0.00000000000E+00 0.  1.
          6    2    1    2  501    0  0.91251722159E+02 -0.68639501313E+01 -0.66126192144E+02  0.20841162006E+03  0.17518201815E+03 0.  0.
         24    2    3    3    0    0  0.88814027811E+02  0.28186092408E+02 -0.10020190601E+03  0.15924158741E+03  0.81455962655E+02 0.  0.
         -6    2    1    2    0  502 -0.91251722159E+02  0.68639501313E+01  0.21585200037E+02  0.19616122390E+03  0.17216072227E+03 0.  0.
        -24    2    5    5    0    0 -0.72673541848E+02 -0.67148025001E+01  0.78916743089E+02  0.13420537562E+03  0.80353582679E+02 0.  0.
          5    1    3    3  501    0  0.24376943486E+01 -0.35050042539E+02  0.34075713864E+02  0.49170032653E+02  0.47000000000E+01 0. -1.
        -11    1    4    4    0    0  0.36972619602E+02 -0.22181606395E+02 -0.11124827053E+02  0.44528193760E+02  0.00000000000E+00 0.  1.
         12    1    4    4    0    0  0.51841408209E+02  0.50367698803E+02 -0.89077078955E+02  0.11471339365E+03  0.00000000000E+00 0. -1.
         -5    1    5    5    0  502 -0.18578180311E+02  0.13578752631E+02 -0.57331543052E+02  0.61955848275E+02  0.47000000000E+01 0.  1.
         11    1    6    6    0    0 -0.13786615566E+02 -0.35637877388E+02  0.10971485421E+02  0.39755535034E+02  0.00000000000E+00 0. -1.
        -12    1    6    6    0    0 -0.58886926282E+02  0.28923074888E+02  0.67945257669E+02  0.94449840591E+02  0.00000000000E+00 0.  1.
</event>
<event>
12    1  0.8494789E-002  0.2197077E+03  0.7818608E-02  0.1134113E+00
         21   -1    0    0  503  502  0.00000000000E+00  0.00000000000E+00  0.36823293912E+03  0.36823293912E+03  0.00000000000E+00 0.  1.
         21   -1    0    0  501  503 -0.00000000000E+00 -0.00000000000E+00 -0.40844475529E+03  0.40844475529E+03  0.00000000000E+00 0.  1.
          6    2    1    2  501    0  0.13402738113E+03  0.13743890748E+02 -0.34013698860E+03  0.40492548705E+03  0.17354897182E+03 0.  0.
         24    2    3    3    0    0  0.82343977758E+02  0.61156467611E+02 -0.28999615122E+03  0.31858129094E+03  0.82919400673E+02 0.  0.
         -6    2    1    2    0  502 -0.13402738113E+03 -0.13743890748E+02  0.29992517243E+03  0.37175220737E+03  0.17347149967E+03 0.  0.
        -24    2    5    5    0    0 -0.75303545586E+02 -0.62297994205E+02  0.25123193688E+03  0.28120326474E+03  0.80038277892E+02 0.  0.
          5    1    3    3  501    0  0.51683403369E+02 -0.47412576863E+02 -0.50140837382E+02  0.86344196111E+02  0.47000000000E+01 0. -1.
        -13    1    4    4    0    0  0.71601041771E+02  0.78596931943E+01 -0.20869594412E+03  0.22077699394E+03  0.00000000000E+00 0.  1.
         14    1    4    4    0    0  0.10742935987E+02  0.53296774417E+02 -0.81300207102E+02  0.97804297000E+02  0.00000000000E+00 0. -1.
         -5    1    5    5    0  502 -0.58723835542E+02  0.48554103458E+02  0.48693235548E+02  0.90548942630E+02  0.47000000000E+01 0.  1.
         11    1    6    6    0    0 -0.19232851988E+02 -0.55564953947E+02  0.18522836855E+03  0.19433711745E+03  0.00000000000E+00 0. -1.
        -12    1    6    6    0    0 -0.56070693598E+02 -0.67330402581E+01  0.66003568333E+02  0.86866147286E+02  0.00000000000E+00 0.  1.
</event>
<event>
12    1  0.8494789E-002  0.1957271E+03  0.7818608E-02  0.1153674E+00
         21   -1    0    0  503  502  0.00000000000E+00  0.00000000000E+00  0.65157277434E+03  0.65157277434E+03  0.00000000000E+00 0. -1.
         21   -1    0    0  501  503 -0.00000000000E+00 -0.00000000000E+00 -0.58422786331E+02  0.58422786331E+02  0.00000000000E+00 0. -1.
          6    2    1    2  501    0 -0.93176205734E+02  0.12476916165E+00  0.29044531094E+03  0.34952474381E+03  0.17066706479E+03 0.  0.
         24    2    3    3    0    0 -0.64736569661E+01  0.13652223538E+02  0.55200108608E+02  0.98401827282E+02  0.80047337120E+02 0.  0.
         -6    2    1    2    0  502  0.93176205734E+02 -0.12476916165E+00  0.30270467707E+03  0.36047081686E+03  0.17212573139E+03 0.  0.
        -24    2    5    5    0    0  0.71806838816E+01  0.25272542558E+02  0.23134855430E+03  0.24577975584E+03  0.78710044958E+02 0.  0.
          5    1    3    3  501    0 -0.86702548768E+02 -0.13527454376E+02  0.23524520233E+03  0.25112291653E+03  0.47000000000E+01 0. -1.
        -13    1    4    4    0    0  0.17154201244E+02 -0.27971940479E+02  0.29246785023E+02  0.43955324008E+02  0.00000000000E+00 0.  1.
         14    1    4    4    0    0 -0.23627858210E+02  0.41624164016E+02  0.25953323586E+02  0.54446503274E+02  0.00000000000E+00 0. -1.
         -5    1    5    5    0  502  0.85995521852E+02 -0.25397311719E+02  0.71356122768E+02  0.11469106102E+03  0.47000000000E+01 0.  1.
         11    1    6    6    0    0  0.93052620393E+01 -0.10596321228E+02  0.27415248793E+01  0.14366136706E+02  0.00000000000E+00 0. -1.
        -12    1    6    6    0    0 -0.21245781577E+01  0.35868863786E+02  0.22860702942E+03  0.23141361914E+03  0.00000000000E+00 0.  1.
</event>
<event>
12    1  0.8494789E-002  0.2641038E+03  0.7818608E-02  0.1104919E+00
         21   -1    0    0  503  502  0.00000000000E+00  0.00000000000E+00  0.23867277467E+03  0.23867277467E+03  0.00000000000E+00 0.  1.
         21   -1    0    0  501  503 -0.00000000000E+00 -0.00000000000E+00 -0.29676890361E+03  0.29676890361E+03  0.00000000000E+00 0. -1.
          6    2    1    2  501    0 -0.60038345603E+02  0.19002154591E+03  0.93935968618E+01  0.26427080664E+03  0.17331482547E+03 0.  0.
         24    2    3    3    0    0 -0.90310086668E+02  0.73508727587E+02 -0.13072466486E+02  0.14172110593E+03  0.79715354239E+02 0.  0.
         -6    2    1    2    0  502  0.60038345603E+02 -0.19002154591E+03 -0.67489725809E+02  0.27117087164E+03  0.17107304780E+03 0.  0.
        -24    2    5    5    0    0 -0.30646908940E+01 -0.72415260712E+02  0.22375263014E+02  0.11020181328E+03  0.79940133484E+02 0.  0.
          5    1    3    3  501    0  0.30271741065E+02  0.11651281832E+03  0.22466063348E+02  0.12254970071E+03  0.47000000000E+01 0. -1.
        -11    1    4    4    0    0 -0.46810080236E+02 -0.91601918118E+01 -0.49089321293E+01  0.47949873205E+02  0.00000000000E+00 0.  1.
         12    1    4    4    0    0 -0.43500006432E+02  0.82668919399E+02 -0.81635343566E+01  0.93771232728E+02  0.00000000000E+00 0. -1.
         -5    1    5    5    0  502  0.63103036497E+02 -0.11760628520E+03 -0.89864988823E+02  0.16096905836E+03  0.47000000000E+01 0.  1.
         13    1    6    6    0    0 -0.36509667366E+02 -0.12108927229E+02  0.13027665213E+02  0.40611599214E+02  0.00000000000E+00 0. -1.
        -14    1    6    6    0    0  0.33444976472E+02 -0.60306333483E+02  0.93475978014E+01  0.69590214068E+02  0.00000000000E+00 0.  1.
</event>
<event>
12    1  0.8494789E-002  0.2490762E+03  0.7818608E-02  0.1114412E+00
         21   -1    0    0  501  502  0.00000000000E+00  0.00000000000E+00  0.32064831585E+02  0.32064831585E+02  0.00000000000E+00 0. -1.
         21   -1    0    0  502  503 -0.00000000000E+00 -0.00000000000E+00 -0.19104272241E+04  0.19104272241E+04  0.00000000000E+00 0.  1.
         -6    2    1    2    0  503  0.14025157750E+03  0.11227216922E+03 -0.92405395334E+03  0.95703431405E+03  0.17252079469E+03 0.  0.
        -24    2    3    3    0    0  0.96275186454E+02  0.13628169342E+03 -0.84590741632E+03  0.86408620233E+03  0.56956093568E+02 0.  0.
          6    2    1    2  501    0 -0.14025157750E+03 -0.11227216922E+03 -0.95430843919E+03  0.98545774166E+03  0.16777013593E+03 0.  0.
         24    2    5    5    0    0 -0.12043815859E+03 -0.46340335418E+02 -0.82264972652E+03  0.83681156815E+03  0.82754161896E+02 0.  0.
          5    1    5    5  501    0 -0.19813418914E+02 -0.65931833798E+02 -0.13165871267E+03  0.14864617351E+03  0.47000000000E+01 0. -1.
        -11    1    6    6    0    0 -0.97475604084E+02 -0.68442354782E+02 -0.70152550686E+03  0.71156439350E+03  0.00000000000E+00 0.  1.
         12    1    6    6    0    0 -0.22962554504E+02  0.22102019364E+02 -0.12112421966E+03  0.12524717465E+03  0.00000000000E+00 0. -1.
         -5    1    3    3    0  503  0.43976391049E+02 -0.24009524200E+02 -0.78146537026E+02  0.92948111714E+02  0.47000000000E+01 0.  1.
         11    1    4    4    0    0  0.33973349649E+02  0.20587883745E+02 -0.12066156125E+03  0.12703252264E+03  0.00000000000E+00 0. -1.
        -12    1    4    4    0    0  0.62301836804E+02  0.11569380967E+03 -0.72524585507E+03  0.73705367970E+03  0.00000000000E+00 0.  1.
</event>
<event>
12    1  0.8494789E-002  0.2037618E+03  0.7818608E-02  0.1147191E+00
         21   -1    0    0  503  502  0.00000000000E+00  0.00000000000E+00  0.35680322706E+03  0.35680322706E+03  0.00000000000E+00 0.  1.
         21   -1    0    0  501  503 -0.00000000000E+00 -0.00000000000E+00 -0.17781938890E+03  0.17781938890E+03  0.00000000000E+00 0. -1.
          6    2    1    2  501    0 -0.90077869787E+02  0.62557158469E+02  0.24908962721E+03  0.32181443128E+03  0.17173079251E+03 0.  0.
         24    2    3    3    0    0 -0.80620604456E+02  0.10868645660E+03  0.16841982069E+03  0.22828871451E+03  0.73743294340E+02 0.  0.
         -6    2    1    2    0  502  0.90077869787E+02 -0.62557158469E+02 -0.70105789053E+02  0.21280818467E+03  0.16835997477E+03 0.  0.
        -24    2    5    5    0    0  0.15486495879E+02 -0.82926069172E+02 -0.19580653600E+02  0.12032226738E+03  0.83531320651E+02 0.  0.
          5    1    3    3  501    0 -0.94572653315E+01 -0.46129298130E+02  0.80669806519E+02  0.93525716770E+02  0.47000000000E+01 0. -1.
        -13    1    4    4    0    0 -0.78096274536E+02  0.67140848077E+02  0.15186818520E+03  0.18349623226E+03  0.00000000000E+00 0.  1.
         14    1    4    4    0    0 -0.25243299193E+01  0.41545608522E+02  0.16551635495E+02  0.44792482255E+02  0.00000000000E+00 0. -1.
         -5    1    5    5    0  502  0.74591373908E+02  0.20368910703E+02 -0.50525135453E+02  0.92485917292E+02  0.47000000000E+01 0.  1.
         13    1    6    6    0    0  0.33548979044E+02 -0.16387586995E+02 -0.33293331243E+02  0.50025322665E+02  0.00000000000E+00 0. -1.
        -14    1    6    6    0    0 -0.18062483166E+02 -0.66538482177E+02  0.13712677643E+02  0.70296944717E+02  0.00000000000E+00 0.  1.
</event>
<event>
12    1  0.8494789E-002  0.1984510E+03  0.7818608E-02  0.1153001E+00
         21   -1    0    0  501  502  0.00000000000E+00  0.00000000000E+00  0.23162096160E+03  0.23162096160E+03  0.00000000000E+00 0. -1.
         21   -1    0    0  502  503 -0.00000000000E+00 -0.00000000000E+00 -0.38693640172E+03  0.38693640172E+03  0.00000000000E+00 0. -1.
         -6    2    1    2    0  503  0.78696411068E+02  0.58641523876E+02 -0.31244321511E+03  0.36543303293E+03  0.16213755102E+03 0.  0.
        -24    2    3    3    0    0  0.37036062686E+02  0.94492703543E+02 -0.16407862982E+03  0.20714521950E+03  0.75410902644E+02 0.  0.
          6    2    1    2  501    0 -0.78696411068E+02 -0.58641523876E+02  0.15712777499E+03  0.25312433039E+03  0.17248430515E+03 0.  0.
         24    2    5    5    0    0  0.47858055832E+01  0.19994254750E+02  0.85772395134E+02  0.11797054239E+03  0.78342012650E+02 0.  0.
          5    1    5    5  501    0 -0.83482216651E+02 -0.78635778627E+02  0.71355379857E+02  0.13515378800E+03  0.47000000000E+01 0. -1.
        -11    1    6    6    0    0 -0.28062942723E+02  0.33718879053E+02  0.35848842116E+02  0.56653605710E+02  0.00000000000E+00 0.  1.
         12    1    6    6    0    0  0.32848748306E+02 -0.13724624303E+02  0.49923553018E+02  0.61316936677E+02  0.00000000000E+00 0. -1.
         -5    1    3    3    0  503  0.41660348381E+02 -0.35851179667E+02 -0.14836458529E+03  0.15828781343E+03  0.47000000000E+01 0.  1.
         13    1    4    4    0    0  0.44911548337E+02  0.41973181206E+02 -0.13066137513E+03  0.14439941158E+03  0.00000000000E+00 0. -1.
        -14    1    4    4    0    0 -0.78754856507E+01  0.52519522337E+02 -0.33417254691E+02  0.62745807922E+02  0.00000000000E+00 0.  1.
</event>
<event>
12    1  0.8494789E-002  0.2181814E+03  0.7818608E-02  0.1136408E+00
         21   -1    0    0  503  502  0.00000000000E+00  0.00000000000E+00  0.25701916733E+03  0.25701916733E+03  0.00000000000E+00 0.  1.
         21   -1    0    0  501  503 -0.00000000000E+00 -0.00000000000E+00 -0.27024487323E+03  0.27024487323E+03  0.00000000000E+00 0.  1.
          6    2    1    2  501    0 -0.95117872000E+02  0.78226414157E+02 -0.15880884527E+03  0.26497115893E+03  0.17269245577E+03 0.  0.
         24    2    3    3    0    0  0.14514560008E+02  0.43867747741E+02 -0.10686577819E+03  0.13879683379E+03  0.75559346064E+02 0.  0.
         -6    2    1    2    0  502  0.95117872000E+02 -0.78226414157E+02  0.14558313937E+03  0.26229288163E+03  0.18010087130E+03 0.  0.
        -24    2    5    5    0    0  0.49351214236E+02 -0.18332904113E+01  0.14556391892E+03  0.17311560489E+03  0.79631996491E+02 0.  0.
          5    1    3    3  501    0 -0.10963243201E+03  0.34358666416E+02 -0.51943067079E+02  0.12617432514E+03  0.47000000000E+01 0. -1.
        -13    1    4    4    0    0 -0.53245817081E+01  0.59801956932E+02 -0.56865457421E+02  0.82694047374E+02  0.00000000000E+00 0.  1.
         14    1    4    4    0    0  0.19839141716E+02 -0.15934209192E+02 -0.50000320769E+02  0.56102786416E+02  0.00000000000E+00 0. -1.
         -5    1    5    5    0  502  0.45766657764E+02 -0.76393123746E+02  0.19220453123E-01  0.89177276747E+02  0.47000000000E+01 0.  1.
         13    1    6    6    0    0  0.35759540602E+02  0.25093494010E+02  0.28338917200E+02  0.52072280666E+02  0.00000000000E+00 0. -1.
        -14    1    6    6    0    0  0.13591673635E+02 -0.26926784421E+02  0.11722500172E+03  0.12104332422E+03  0.00000000000E+00 0.  1.
</event>
<event>
12    1  0.8494789E-002  0.3059324E+03  0.7818608E-02  0.1082680E+00
         21   -1    0    0  501  502  0.00000000000E+00  0.00000000000E+00  0.82785646766E+03  0.82785646766E+03  0.00000000000E+00 0.  1.
         21   -1    0    0  502  503 -0.00000000000E+00 -0.00000000000E+00 -0.11247052464E+03  0.11247052464E+03  0.00000000000E+00 0. -1.
         -6    2    1    2    0  503  0.24888454544E+03 -0.10678855467E+02  0.32394826391E+03  0.44351910311E+03  0.17236345964E+03 0.  0.
        -24    2    3    3    0    0  0.15594789572E+03  0.30616998016E+00  0.99943255165E+02  0.20070595357E+03  0.77294150013E+02 0.  0.
          6    2    1    2  501    0 -0.24888454544E+03  0.10678855467E+02  0.39143767911E+03  0.49680788919E+03  0.17758678788E+03 0.  0.
         24    2    5    5    0    0 -0.49142944576E+02  0.42908959427E+02  0.10479550074E+03  0.14592141876E+03  0.77812310575E+02 0.  0.
          5    1    5    5  501    0 -0.19974160086E+03 -0.32230103959E+02  0.28664217836E+03  0.35088647043E+03  0.47000000000E+01 0. -1.
        -13    1    6    6    0    0 -0.53661441779E+02  0.22532300731E+02  0.10996700818E+03  0.12441863927E+03  0.00000000000E+00 0.  1.
         14    1    6    6    0    0  0.45184972033E+01  0.20376658696E+02 -0.51715074390E+01  0.21502779490E+02  0.00000000000E+00 0. -1.
         -5    1    3    3    0  503  0.92936649718E+02 -0.10985025448E+02  0.22400500875E+03  0.24281314954E+03  0.47000000000E+01 0.  1.
         11    1    4    4    0    0  0.27592360511E+02  0.20747928888E+02 -0.33521288124E+01  0.34685035379E+02  0.00000000000E+00 0. -1.
        -12    1    4    4    0    0  0.12835553521E+03 -0.20441758908E+02  0.10329538398E+03  0.16602091819E+03  0.00000000000E+00 0.  1.
</event>
<event>
12    1  0.8494789E-002  0.2089073E+03  0.7818608E-02  0.1142464E+00
         21   -1    0    0  503  502  0.00000000000E+00  0.00000000000E+00  0.22416488519E+03  0.22416488519E+03  0.00000000000E+00 0.  1.
         21   -1    0    0  501  503 -0.00000000000E+00 -0.00000000000E+00 -0.19464395833E+03  0.19464395833E+03  0.00000000000E+00 0. -1.
          6    2    1    2  501    0  0.11445307504E+02  0.11480705393E+03  0.10122617350E+02  0.20915239487E+03  0.17415683220E+03 0.  0.
         24    2    3    3    0    0  0.58435856102E+02  0.12444365622E+03 -0.16288166229E+01  0.15954229548E+03  0.80932800213E+02 0.  0.
         -6    2    1    2    0  502 -0.11445307504E+02 -0.11480705393E+03  0.19398309504E+02  0.20965644865E+03  0.17397665750E+03 0.  0.
        -24    2    5    5    0    0 -0.28776126300E+01  0.11023460118E+02  0.35842569726E+01  0.82460151859E+02  0.81590639287E+02 0.  0.
          5    1    3    3  501    0 -0.46990548599E+02 -0.96366022949E+01  0.11751433973E+02  0.49610099393E+02  0.47000000000E+01 0. -1.
        -13    1    4    4    0    0 -0.76052479323E+01  0.38711637678E+02  0.26748186967E+02  0.47664412236E+02  0.00000000000E+00 0.  1.
         14    1    4    4    0    0  0.66041104034E+02  0.85732018543E+02 -0.28377003590E+02  0.11187788324E+03  0.00000000000E+00 0. -1.
         -5    1    5    5    0  502 -0.85676948736E+01 -0.12583051404E+03  0.15814052532E+02  0.12719629679E+03  0.47000000000E+01 0.  1.
         13    1    6    6    0    0 -0.36458159745E+02 -0.11330355041E+01 -0.18058059406E+02  0.40701040416E+02  0.00000000000E+00 0. -1.
        -14    1    6    6    0    0  0.33580547115E+02  0.12156495622E+02  0.21642316378E+02  0.41759111444E+02  0.00000000000E+00 0.  1.
</event>
<event>
12    1  0.8494789E-002  0.1910787E+03  0.7818608E-02  0.1157871E+00
         21   -1    0    0  501  502  0.00000000000E+00  0.00000000000E+00  0.61934603273E+02  0.61934603273E+02  0.00000000000E+00 0. -1.
         21   -1    0    0  502  503 -0.00000000000E+00 -0.00000000000E+00 -0.10190486702E+04  0.10190486702E+04  0.00000000000E+00 0. -1.
         -6    2    1    2    0  503  0.12412031989E+02  0.82499693824E+02 -0.83279254161E+03  0.85443225241E+03  0.17190345716E+03 0.  0.
        -24    2    3    3    0    0  0.16092906480E+02  0.11843445316E+03 -0.51307214828E+03  0.53264338424E+03  0.78614528589E+02 0.  0.
          6    2    1    2  501    0 -0.12412031989E+02 -0.82499693824E+02 -0.12432152530E+03  0.22655102104E+03  0.17002724918E+03 0.  0.
         24    2    5    5    0    0 -0.33105344343E+02  0.60073026127E+01 -0.10092459855E+03  0.13257651505E+03  0.79111985456E+02 0.  0.
          5    1    5    5  501    0  0.20693312353E+02 -0.88506996436E+02 -0.23396926751E+02  0.93974505988E+02  0.47000000000E+01 0. -1.
        -13    1    6    6    0    0 -0.17891840281E+02  0.50413790331E+01 -0.11212794697E+03  0.11365830345E+03  0.00000000000E+00 0.  1.
         14    1    6    6    0    0 -0.15213504062E+02  0.96592357960E+00  0.11203348426E+02  0.18918211600E+02  0.00000000000E+00 0. -1.
         -5    1    3    3    0  503 -0.36808744903E+01 -0.35934759335E+02 -0.31972039333E+03  0.32178886817E+03  0.47000000000E+01 0.  1.
         11    1    4    4    0    0 -0.10782618358E+02  0.53903832964E+02 -0.36239615939E+03  0.36654176352E+03  0.00000000000E+00 0. -1.
        -12    1    4    4    0    0  0.26875524837E+02  0.64530620195E+02 -0.15067598889E+03  0.16610162072E+03  0.00000000000E+00 0.  1.
</event>
<event>
12    1  0.8494789E-002  0.1956504E+03  0.7818608E-02  0.1153542E+00
         21   -1    0    0  503  502  0.00000000000E+00  0.00000000000E+00  0.31448661777E+02  0.31448661777E+02  0.00000000000E+00 0. -1.
         21   -1    0    0  501  503 -0.00000000000E+00 -0.00000000000E+00 -0.12752543536E+04  0.12752543536E+04  0.00000000000E+00 0. -1.
          6    2    1    2  501    0  0.87147994067E+02 -0.31735173749E+02 -0.76462790925E+03  0.78926226061E+03  0.17227066579E+03 0.  0.
         24    2    3    3    0    0  0.69383250268E+02  0.35726123245E+02 -0.30421081583E+03  0.32356643431E+03  0.77850020208E+02 0.  0.
         -6    2    1    2    0  502 -0.87147994067E+02  0.31735173749E+02 -0.47917778261E+03  0.51744075480E+03  0.17184787827E+03 0.  0.
        -24    2    5    5    0    0  0.34786664551E+01  0.59045455884E+02 -0.27039617464E+03  0.28815732119E+03  0.80137903080E+02 0.  0.
          5    1    3    3  501    0  0.17764743799E+02 -0.67461296994E+02 -0.46041709343E+03  0.46569582630E+03  0.47000000000E+01 0. -1.
        -13    1    4    4    0    0  0.69019900401E+02  0.86720334209E+01 -0.27537212397E+03  0.28402245946E+03  0.00000000000E+00 0.  1.
         14    1    4    4    0    0  0.36334986731E+00  0.27054089824E+02 -0.28838691855E+02  0.39543974854E+02  0.00000000000E+00 0. -1.
         -5    1    5    5    0  502 -0.90626660522E+02 -0.27310282135E+02 -0.20878160796E+03  0.22928343362E+03  0.47000000000E+01 0.  1.
         13    1    6    6    0    0  0.44453553151E+01 -0.75495855163E+01  0.89836745880E+00  0.88070704231E+01  0.00000000000E+00 0. -1.
        -14    1    6    6    0    0 -0.96668885999E+00  0.66595041401E+02 -0.27129454210E+03  0.27935025076E+03  0.00000000000E+00 0.  1.
</event>
<event>
12    1  0.8494789E-002  0.1837291E+03  0.7818608E-02  0.1164633E+00
         21   -1    0    0  501  502  0.00000000000E+00  0.00000000000E+00  0.27424280382E+03  0.27424280382E+03  0.00000000000E+00 0. -1.
         21   -1    0    0  502  503 -0.00000000000E+00 -0.00000000000E+00 -0.15147991554E+03  0.15147991554E+03  0.00000000000E+00 0. -1.
         -6    2    1    2    0  503 -0.58810513916E+02 -0.20209756741E+02 -0.32322110869E+02  0.18655054025E+03  0.17288514801E+03 0.  0.
        -24    2    3    3    0    0 -0.69255494747E+02  0.44692521356E+01  0.37079843168E+02  0.11200610835E+03  0.79712958613E+02 0.  0.
          6    2    1    2  501    0  0.58810513916E+02  0.20209756741E+02  0.15508499915E+03  0.23917217911E+03  0.17112820773E+03 0.  0.
         24    2    5    5    0    0  0.10002482431E+03 -0.14422306128E+02  0.10902282495E+03  0.16816645362E+03  0.78619408357E+02 0.  0.
          5    1    5    5  501    0 -0.41214310394E+02  0.34632062869E+02  0.46062174200E+02  0.71005725487E+02  0.47000000000E+01 0. -1.
        -11    1    6    6    0    0  0.63931298041E+02  0.17084970889E+02  0.23659827599E+02  0.70277269024E+02  0.00000000000E+00 0.  1.
         12    1    6    6    0    0  0.36093526269E+02 -0.31507277017E+02  0.85362997356E+02  0.97889184597E+02  0.00000000000E+00 0. -1.
         -5    1    3    3    0  503  0.10444980831E+02 -0.24679008877E+02 -0.69401954037E+02  0.74544431904E+02  0.47000000000E+01 0.  1.
         11    1    4    4    0    0 -0.55139863503E+02  0.15694003904E+02 -0.12993712778E+02  0.58783865792E+02  0.00000000000E+00 0. -1.
        -12    1    4    4    0    0 -0.14115631244E+02 -0.11224751769E+02  0.50073555946E+02  0.53222242557E+02  0.00000000000E+00 0.  1.
</event>
<event>
12    1  0.8494789E-002  0.2463924E+03  0.7818608E-02  0.1115711E+00
         21   -1    0    0  503  502  0.00000000000E+00  0.00000000000E+00  0.98489743971E+02  0.98489743971E+02  0.00000000000E+00 0. -1.
         21   -1    0    0  501  503 -0.00000000000E+00 -0.00000000000E+00 -0.61764742793E+03  0.61764742793E+03  0.00000000000E+00 0. -1.
          6    2    1    2  501    0 -0.10837496658E+03 -0.13741613462E+03 -0.23548374325E+03  0.34082521356E+03  0.17343847736E+03 0.  0.
         24    2    3    3    0    0 -0.40262394116E+02 -0.43186057822E+01 -0.49250125724E+02  0.10195427559E+03  0.79557455287E+02 0.  0.
         -6    2    1    2    0  502  0.10837496658E+03  0.13741613462E+03 -0.28367394071E+03  0.37531195834E+03  0.17251038809E+03 0.  0.
        -24    2    5    5    0    0  0.12493075445E+03  0.13070633316E+03 -0.29393439949E+03  0.35418182436E+03  0.79721355785E+02 0.  0.
          5    1    3    3  501    0 -0.68112572466E+02 -0.13309752883E+03 -0.18623361752E+03  0.23887093797E+03  0.47000000000E+01 0. -1.
        -11    1    4    4    0    0  0.21135230781E+02  0.11907992860E+02 -0.22353814167E+02  0.32987744420E+02  0.00000000000E+00 0.  1.
         12    1    4    4    0    0 -0.61397624897E+02 -0.16226598642E+02 -0.26896311556E+02  0.68966531171E+02  0.00000000000E+00 0. -1.
         -5    1    5    5    0  502 -0.16555787867E+02  0.67098014561E+01  0.10260458783E+02  0.21130133978E+02  0.47000000000E+01 0.  1.
         11    1    6    6    0    0  0.67561925303E+02  0.88493354217E+02 -0.10816797214E+03  0.15522885584E+03  0.00000000000E+00 0. -1.
        -12    1    6    6    0    0  0.57368829146E+02  0.42212978944E+02 -0.18576642735E+03  0.19895296851E+03  0.00000000000E+00 0.  1.
</event>
<event>
12    1  0.8494789E-002  0.2048842E+03  0.7818608E-02  0.1145749E+00
         21   -1    0    0  501  502  0.00000000000E+00  0.00000000000E+00  0.21217935849E+03  0.21217935849E+03  0.00000000000E+00 0. -1.
         21   -1    0    0  502  503 -0.00000000000E+00 -0.00000000000E+00 -0.20903811710E+03  0.20903811710E+03  0.00000000000E+00 0. -1.
         -6    2    1    2    0  503 -0.10920803587E+03 -0.21492507397E+02 -0.47856429530E+02  0.21008176099E+03  0.17162687866E+03 0.  0.
        -24    2    3    3    0    0 -0.96241500157E+02 -0.44231105415E+01  0.34969056895E+02  0.12439835210E+03  0.70499112087E+02 0.  0.
          6    2    1    2  501    0  0.10920803587E+03  0.21492507397E+02  0.50997670920E+02  0.21113571460E+03  0.17201512889E+03 0.  0.
         24    2    5    5    0    0 -0.78120101094E+01 -0.12085784744E+02  0.24864682942E+02  0.86531477410E+02  0.81623222371E+02 0.  0.
          5    1    5    5  501    0  0.11702004598E+03  0.33578292142E+02  0.26132987978E+02  0.12460423719E+03  0.47000000000E+01 0. -1.
        -13    1    6    6    0    0  0.25787495780E+02  0.50393311191E+01  0.38344074669E+02  0.46482877051E+02  0.00000000000E+00 0.  1.
         14    1    6    6    0    0 -0.33599505889E+02 -0.17125115864E+02 -0.13479391728E+02  0.40048600359E+02  0.00000000000E+00 0. -1.
         -5    1    3    3    0  503 -0.12966535712E+02 -0.17069396856E+02 -0.82825486424E+02  0.85683408889E+02  0.47000000000E+01 0.  1.
         13    1    4    4    0    0 -0.30126493530E+02 -0.21980202119E+02 -0.14464820025E+02  0.39999573947E+02  0.00000000000E+00 0. -1.
        -14    1    4    4    0    0 -0.66115006627E+02  0.17557091577E+02  0.49433876919E+02  0.84398778150E+02  0.00000000000E+00 0.  1.
</event>
<event>
12    1  0.8494789E-002  0.1837480E+03  0.7818608E-02  0.1164534E+00
         21   -1    0    0  501  502  0.00000000000E+00  0.00000000000E+00  0.34583947785E+03  0.34583947785E+03  0.00000000000E+00 0. -1.
         21   -1    0    0  502  503 -0.00000000000E+00 -0.00000000000E+00 -0.99253025247E+02  0.99253025247E+02  0.00000000000E+00 0. -1.
         -6    2    1    2    0  503 -0.61303908472E+02  0.23929006657E+01  0.15689155059E+03  0.24062126071E+03  0.17181308824E+03 0.  0.
        -24    2    3    3    0    0 -0.93021370177E+02 -0.22123343814E+02  0.15816652610E+03  0.20023860127E+03  0.77048230411E+02 0.  0.
          6    2    1    2  501    0  0.61303908472E+02 -0.23929006657E+01  0.89694902012E+02  0.20447124239E+03  0.17320340167E+03 0.  0.
         24    2    5    5    0    0 -0.40802096216E+01 -0.48707701920E+02  0.80838938480E+02  0.12372062751E+03  0.79892248434E+02 0.  0.
          5    1    5    5  501    0  0.65384118093E+02  0.46314801255E+02  0.88559635320E+01  0.80750614884E+02  0.47000000000E+01 0. -1.
        -13    1    6    6    0    0  0.70948284320E+01 -0.40949600733E+02  0.95238325853E+02  0.10391123665E+03  0.00000000000E+00 0.  1.
         14    1    6    6    0    0 -0.11175038054E+02 -0.77581011870E+01 -0.14399387373E+02  0.19809390860E+02  0.00000000000E+00 0. -1.
         -5    1    3    3    0  503  0.31717461705E+02  0.24516244480E+02 -0.12749755086E+01  0.40382659434E+02  0.47000000000E+01 0.  1.
         11    1    4    4    0    0 -0.71454936681E+01  0.24076080463E+02  0.28296817423E+02  0.37834185686E+02  0.00000000000E+00 0. -1.
        -12    1    4    4    0    0 -0.85875876508E+02 -0.46199424278E+02  0.12986970868E+03  0.16240441559E+03  0.00000000000E+00 0.  1.
</event>
<event>
12    1  0.8494789E-002  0.1847701E+03  0.7818608E-02  0.1163353E+00
         21   -1    0    0  503  502  0.00000000000E+00  0.00000000000E+00  0.38133981964E+02  0.38133981964E+02  0.00000000000E+00 0.  1.
         21   -1    0    0  501  503 -0.00000000000E+00 -0.00000000000E+00 -0.12425750520E+04  0.12425750520E+04  0.00000000000E+00 0. -1.
          6    2    1    2  501    0  0.25154225753E+02  0.60545776821E+02 -0.94121485128E+03  0.95910674691E+03  0.17234218734E+03 0.  0.
         24    2    3    3    0    0 -0.37823826657E+02  0.33104052365E+02 -0.31764127113E+03  0.33174291054E+03  0.81430101447E+02 0.  0.
         -6    2    1    2    0  502 -0.25154225753E+02 -0.60545776821E+02 -0.26322621871E+03  0.32160228701E+03  0.17274681655E+03 0.  0.
        -24    2    5    5    0    0 -0.82766560857E+01  0.34315007090E+02 -0.10526366290E+03  0.13651398451E+03  0.79433031499E+02 0.  0.
          5    1    3    3  501    0  0.62978052410E+02  0.27441724456E+02 -0.62357358015E+03  0.62736383637E+03  0.47000000000E+01 0. -1.
        -13    1    4    4    0    0 -0.51022590183E+02  0.51743453111E+02 -0.25019664545E+03  0.26053608396E+03  0.00000000000E+00 0.  1.
         14    1    4    4    0    0  0.13198763526E+02 -0.18639400747E+02 -0.67444625678E+02  0.71206826580E+02  0.00000000000E+00 0. -1.
         -5    1    5    5    0  502 -0.16877569667E+02 -0.94860783911E+02 -0.15796255581E+03  0.18508830250E+03  0.47000000000E+01 0.  1.
         11    1    6    6    0    0  0.80370016772E+01  0.27331038853E+01 -0.10025804788E+03  0.10061679491E+03  0.00000000000E+00 0. -1.
        -12    1    6    6    0    0 -0.16313657763E+02  0.31581903205E+02 -0.50056150165E+01  0.35897189602E+02  0.00000000000E+00 0.  1.
</event>
<event>
12    1  0.8494789E-002  0.2354092E+03  0.7818608E-02  0.1123091E+00
         21   -1    0    0  503  502  0.00000000000E+00  0.00000000000E+00  0.46666261124E+03  0.46666261124E+03  0.00000000000E+00 0.  1.
         21   -1    0    0  501  503 -0.00000000000E+00 -0.00000000000E+00 -0.15982262352E+03  0.15982262352E+03  0.00000000000E+00 0. -1.
          6    2    1    2  501    0  0.14243806304E+03 -0.73735156710E+02  0.31306848606E+03  0.39099368269E+03  0.17070063796E+03 0.  0.
         24    2    3    3    0    0  0.17042067639E+03 -0.80504354567E+02  0.26998210178E+03  0.33896123896E+03  0.80499864536E+02 0.  0.
         -6    2    1    2    0  502 -0.14243806304E+03  0.73735156710E+02 -0.62284983469E+01  0.23549155207E+03  0.17231367261E+03 0.  0.
        -24    2    5    5    0    0 -0.13988996699E+03  0.53760084560E+02  0.43705456064E+02  0.18144540416E+03  0.92481988762E+02 0.  0.
          5    1    3    3  501    0 -0.27982613353E+02  0.67691978573E+01  0.43086384284E+02  0.52032443728E+02  0.47000000000E+01 0. -1.
        -11    1    4    4    0    0  0.12373365687E+03 -0.40478465021E+02  0.23382314499E+03  0.26762247122E+03  0.00000000000E+00 0.  1.
         12    1    4    4    0    0  0.46687019523E+02 -0.40025889546E+02  0.36158956794E+02  0.71338767738E+02  0.00000000000E+00 0. -1.
         -5    1    5    5    0  502 -0.25480960473E+01  0.19975072150E+02 -0.49933954411E+02  0.54046147911E+02  0.47000000000E+01 0.  1.
         13    1    6    6    0    0 -0.41557860675E+02  0.84704208997E+01 -0.28694078180E+02  0.51206971564E+02  0.00000000000E+00 0. -1.
        -14    1    6    6    0    0 -0.98332106316E+02  0.45289663660E+02  0.72399534245E+02  0.13023843260E+03  0.00000000000E+00 0.  1.
</event>
<event>
12    1  0.8494789E-002  0.1946224E+03  0.7818608E-02  0.1155119E+00
         21   -1    0    0  503  502  0.00000000000E+00  0.00000000000E+00  0.20264379788E+02  0.20264379788E+02  0.00000000000E+00 0. -1.
         21   -1    0    0  501  503 -0.00000000000E+00 -0.00000000000E+00 -0.18363525473E+04  0.18363525473E+04  0.00000000000E+00 0. -1.
          6    2    1    2  501    0  0.87338958286E+02  0.17457731046E+02 -0.90733898142E+03  0.92797731336E+03  0.17304623921E+03 0.  0.
         24    2    3    3    0    0  0.29021455022E+02  0.52728930847E+02 -0.73065010628E+03  0.73854120983E+03  0.89280209538E+02 0.  0.
         -6    2    1    2    0  502 -0.87338958286E+02 -0.17457731046E+02 -0.90874918611E+03  0.92863961375E+03  0.16915549932E+03 0.  0.
        -24    2    5    5    0    0 -0.47111128407E+02 -0.76063175936E+02 -0.56460329760E+03  0.57719778492E+03  0.79845689323E+02 0.  0.
          5    1    3    3  501    0  0.58317503264E+02 -0.35271199801E+02 -0.17668887514E+03  0.18943610353E+03  0.47000000000E+01 0. -1.
        -11    1    4    4    0    0 -0.11649128494E+02  0.15314378737E+01 -0.45835876457E+03  0.45850932876E+03  0.00000000000E+00 0.  1.
         12    1    4    4    0    0  0.40670583516E+02  0.51197492973E+02 -0.27229134171E+03  0.28003188108E+03  0.00000000000E+00 0. -1.
         -5    1    5    5    0  502 -0.40227829879E+02  0.58605444891E+02 -0.34414588852E+03  0.35144182883E+03  0.47000000000E+01 0.  1.
         11    1    6    6    0    0 -0.96020550452E+01 -0.42258553070E+02 -0.89721738335E+02  0.99639224699E+02  0.00000000000E+00 0. -1.
        -12    1    6    6    0    0 -0.37509073362E+02 -0.33804622866E+02 -0.47488155926E+03  0.47755856022E+03  0.00000000000E+00 0.  1.
</event>
<event>
12    1  0.8494789E-002  0.2511987E+03  0.7818608E-02  0.1112575E+00
         21   -1    0    0  503  502  0.00000000000E+00  0.00000000000E+00  0.10776704900E+04  0.10776704900E+04  0.00000000000E+00 0.  1.
         21   -1    0    0  501  503 -0.00000000000E+00 -0.00000000000E+00 -0.11337074944E+03  0.11337074944E+03  0.00000000000E+00 0.  1.
          6    2    1    2  501    0  0.15260294740E+03  0.10267278608E+03  0.89631479518E+03  0.93080534552E+03  0.17084794008E+03 0.  0.
         24    2    3    3    0    0  0.30274373963E+02 -0.25570004367E+01  0.24261392159E+03  0.25746701304E+03  0.80651546083E+02 0.  0.
         -6    2    1    2    0  502 -0.15260294740E+03 -0.10267278608E+03  0.67984945431E+02  0.26023589396E+03  0.17108888668E+03 0.  0.
        -24    2    5    5    0    0 -0.67435563897E+02 -0.23240171918E+02  0.92512268623E+02  0.14112794717E+03  0.79189120205E+02 0.  0.
          5    1    3    3  501    0  0.12232857343E+03  0.10522978652E+03  0.65370087359E+03  0.67333833248E+03  0.47000000000E+01 0. -1.
        -11    1    4    4    0    0  0.38633851298E+02  0.28719368363E+02  0.96885389243E+02  0.10818574413E+03  0.00000000000E+00 0.  1.
         12    1    4    4    0    0 -0.83594773355E+01 -0.31276368799E+02  0.14572853234E+03  0.14928126890E+03  0.00000000000E+00 0. -1.
         -5    1    5    5    0  502 -0.85167383499E+02 -0.79432614166E+02 -0.24527323192E+02  0.11910794679E+03  0.47000000000E+01 0.  1.
         11    1    6    6    0    0  0.78341968001E+01 -0.27944126206E+02  0.13861744293E+02  0.32162039484E+02  0.00000000000E+00 0. -1.
        -12    1    6    6    0    0 -0.75269760698E+02  0.47039542876E+01  0.78650524330E+02  0.10896590769E+03  0.00000000000E+00 0.  1.
</event>
<event>
12    1  0.8494789E-002  0.1967107E+03  0.7818608E-02  0.1152604E+00
         21   -1    0    0  503  502  0.00000000000E+00  0.00000000000E+00  0.57209539707E+03  0.57209539707E+03  0.00000000000E+00 0. -1.
         21   -1    0    0  501  503 -0.00000000000E+00 -0.00000000000E+00 -0.10381362627E+03  0.10381362627E+03  0.00000000000E+00 0. -1.
          6    2    1    2  501    0  0.61505567600E+01  0.94545048701E+02  0.34485743385E+02  0.19971065819E+03  0.17239050124E+03 0.  0.
         24    2    3    3    0    0  0.26760272998E+02  0.88409064553E+02  0.87802828668E+02  0.14202866544E+03  0.62693940525E+02 0.  0.
         -6    2    1    2    0  502 -0.61505567600E+01 -0.94545048701E+02  0.43379602741E+03  0.47619836514E+03  0.17207351331E+03 0.  0.
        -24    2    5    5    0    0 -0.43216319778E+02 -0.31070562046E+01  0.26643670607E+03  0.28186357747E+03  0.81124927542E+02 0.  0.
          5    1    3    3  501    0 -0.20609716238E+02  0.61359841481E+01 -0.53317085283E+02  0.57681992753E+02  0.47000000000E+01 0. -1.
        -13    1    4    4    0    0 -0.73823522335E+01  0.41780184733E+02  0.69464302631E+02  0.81396389974E+02  0.00000000000E+00 0.  1.
         14    1    4    4    0    0  0.34142625232E+02  0.46628879820E+02  0.18338526037E+02  0.60632275466E+02  0.00000000000E+00 0. -1.
         -5    1    5    5    0  502  0.37065763018E+02 -0.91437992496E+02  0.16735932135E+03  0.19433478768E+03  0.47000000000E+01 0.  1.
         11    1    6    6    0    0  0.16208370030E+02  0.25631108184E+01  0.15115612636E+03  0.15204425452E+03  0.00000000000E+00 0. -1.
        -12    1    6    6    0    0 -0.59424689807E+02 -0.56701670230E+01  0.11528057970E+03  0.12981932294E+03  0.00000000000E+00 0.  1.
</event>
<event>
12    1  0.8494789E-002  0.1889747E+03  0.7818608E-02  0.1161946E+00
         21   -1    0    0  503  502  0.00000000000E+00  0.00000000000E+00  0.67258324078E+02  0.67258324078E+02  0.00000000000E+00 0. -1.
         21   -1    0    0  501  503 -0.00000000000E+00 -0.00000000000E+00 -0.50079609908E+03  0.50079609908E+03  0.00000000000E+00 0. -1.
          6    2    1    2  501    0  0.43193813977E+02  0.52362968261E+02 -0.22086851270E+03  0.29067907556E+03  0.17636280520E+03 0.  0.
         24    2    3    3    0    0  0.60999635946E+01 -0.37936222141E+02 -0.12867731040E+03  0.15632430153E+03  0.80019188524E+02 0.  0.
         -6    2    1    2    0  502 -0.43193813977E+02 -0.52362968261E+02 -0.21266926230E+03  0.27737534759E+03  0.16462467104E+03 0.  0.
        -24    2    5    5    0    0 -0.62769287069E+02 -0.76970810204E+02 -0.20908354883E+03  0.24538015463E+03  0.81430957692E+02 0.  0.
          5    1    3    3  501    0  0.37093850382E+02  0.90299190402E+02 -0.92191202300E+02  0.13435477403E+03  0.47000000000E+01 0. -1.
        -13    1    4    4    0    0  0.30129635661E+01  0.17161122900E+02 -0.82645277016E+02  0.84461967191E+02  0.00000000000E+00 0.  1.
         14    1    4    4    0    0  0.30870000285E+01 -0.55097345041E+02 -0.46032033382E+02  0.71862334342E+02  0.00000000000E+00 0. -1.
         -5    1    5    5    0  502  0.19575473093E+02  0.24607841943E+02 -0.35857134717E+01  0.31995192967E+02  0.47000000000E+01 0.  1.
         11    1    6    6    0    0 -0.64492353115E+02 -0.16046302265E+02 -0.12446309122E+03  0.14109503359E+03  0.00000000000E+00 0. -1.
        -12    1    6    6    0    0  0.17230660451E+01 -0.60924507939E+02 -0.84620457605E+02  0.10428512104E+03  0.00000000000E+00 0.  1.
</event>
<event>
12    1  0.8494789E-002  0.2466572E+03  0.7818608E-02  0.1115601E+00
         21   -1    0    0  501  502  0.00000000000E+00  0.00000000000E+00  0.10325043923E+04  0.10325043923E+04  0.00000000000E+00 0. -1.
         21   -1    0    0  502  503 -0.00000000000E+00 -0.00000000000E+00 -0.10597353036E+03  0.10597353036E+03  0.00000000000E+00 0. -1.
         -6    2    1    2    0  503  0.12430845767E+03  0.12429234022E+03  0.83524983965E+02  0.26041546412E+03  0.17302777962E+03 0.  0.
        -24    2    3    3    0    0  0.13415548137E+03  0.10173217807E+03  0.11583794844E+03  0.21952362551E+03  0.80156488319E+02 0.  0.
          6    2    1    2  501    0 -0.12430845767E+03 -0.12429234022E+03  0.84300587801E+03  0.87806245858E+03  0.17156221122E+03 0.  0.
         24    2    5    5    0    0 -0.10020919997E+03 -0.88766642609E+02  0.80769399038E+03  0.82227833162E+03  0.76489685283E+02 0.  0.
          5    1    5    5  501    0 -0.24099257703E+02 -0.35525697612E+02  0.35311887627E+02  0.55784126958E+02  0.47000000000E+01 0. -1.
        -11    1    6    6    0    0  0.10123368756E+02 -0.14809464786E+02  0.52190408013E+02  0.55187331253E+02  0.00000000000E+00 0.  1.
         12    1    6    6    0    0 -0.11033256872E+03 -0.73957177823E+02  0.75550358237E+03  0.76709100037E+03  0.00000000000E+00 0. -1.
         -5    1    3    3    0  503 -0.98470237018E+01  0.22560162154E+02 -0.32312964475E+02  0.40891838616E+02  0.47000000000E+01 0.  1.
         11    1    4    4    0    0  0.10298076960E+03  0.28488420307E+02  0.68056353198E+02  0.12668187009E+03  0.00000000000E+00 0. -1.
        -12    1    4    4    0    0  0.31174711775E+02  0.73243757760E+02  0.47781595242E+02  0.92841755417E+02  0.00000000000E+00 0.  1.
</event>
<event>
12    1  0.8494789E-002  0.2363313E+03  0.7818608E-02  0.1123181E+00
         21   -1    0    0  503  502  0.00000000000E+00  0.00000000000E+00  0.12804656025E+03  0.12804656025E+03  0.00000000000E+00 0.  1.
         21   -1    0    0  501  503 -0.00000000000E+00 -0.00000000000E+00 -0.43878353752E+03  0.43878353752E+03  0.00000000000E+00 0.  1.
          6    2    1    2  501    0 -0.58547649883E+02  0.15088288624E+03 -0.10598004665E+03  0.25413552604E+03  0.16480176772E+03 0.  0.
         24    2    3    3    0    0 -0.48047827506E+02  0.10117516541E+03 -0.78137345005E+00  0.13721694487E+03  0.79264567071E+02 0.  0.
         -6    2    1    2    0  502  0.58547649883E+02 -0.15088288624E+03 -0.20475693062E+03  0.31269457172E+03  0.17221794878E+03 0.  0.
        -24    2    5    5    0    0  0.10935043802E+03 -0.10281474340E+03 -0.16095015280E+03  0.23003506881E+03  0.66953651452E+02 0.  0.
          5    1    3    3  501    0 -0.10499822377E+02  0.49707720838E+02 -0.10519867320E+03  0.11691858117E+03  0.47000000000E+01 0. -1.
        -13    1    4    4    0    0  0.91740454404E+01  0.45209284223E+02 -0.26431808174E+02  0.53166558785E+02  0.00000000000E+00 0.  1.
         14    1    4    4    0    0 -0.57221872947E+02  0.55965881183E+02  0.25650434724E+02  0.84050386089E+02  0.00000000000E+00 0. -1.
         -5    1    5    5    0  502 -0.50802788134E+02 -0.48068142847E+02 -0.43806777815E+02  0.82659502911E+02  0.47000000000E+01 0.  1.
         11    1    6    6    0    0  0.47545186312E+02 -0.63561160548E+01 -0.63842981222E+02  0.79855314188E+02  0.00000000000E+00 0. -1.
        -12    1    6    6    0    0  0.61805251705E+02 -0.96458627342E+02 -0.97107171580E+02  0.15017975463E+03  0.00000000000E+00 0.  1.
</event>
<event>
12    1  0.8494789E-002  0.2249407E+03  0.7818608E-02  0.1130824E+00
         21   -1    0    0  501  502  0.00000000000E+00  0.00000000000E+00  0.36688343265E+03  0.36688343265E+03  0.00000000000E+00 0. -1.
         21   -1    0    0  502  503 -0.00000000000E+00 -0.00000000000E+00 -0.68814838695E+03  0.68814838695E+03  0.00000000000E+00 0. -1.
         -6    2    1    2    0  503 -0.68272287461E+02 -0.12399474504E+03 -0.63293057660E+03  0.67067027305E+03  0.17076796633E+03 0.  0.
        -24    2    3    3    0    0  0.27247872650E+02 -0.59948014021E+02 -0.25279784636E+03  0.27349390499E+03  0.80968845830E+02 0.  0.
          6    2    1    2  501    0  0.68272287461E+02  0.12399474504E+03  0.31166562229E+03  0.38436154656E+03  0.17482144124E+03 0.  0.
         24    2    5    5    0    0 -0.77350538801E+01  0.71212271940E+02  0.25256494218E+03  0.27446120172E+03  0.80055496365E+02 0.  0.
          5    1    5    5  501    0  0.76007341341E+02  0.52782473102E+02  0.59100680112E+02  0.10990034483E+03  0.47000000000E+01 0. -1.
        -13    1    6    6    0    0 -0.10869001213E+02  0.94008110164E+01  0.17330458942E+03  0.17389937076E+03  0.00000000000E+00 0.  1.
         14    1    6    6    0    0  0.31339473326E+01  0.61811460923E+02  0.79260352759E+02  0.10056183096E+03  0.00000000000E+00 0. -1.
         -5    1    3    3    0  503 -0.95520160112E+02 -0.64046731020E+02 -0.38013273024E+03  0.39717636806E+03  0.47000000000E+01 0.  1.
         11    1    4    4    0    0  0.69250915309E+00 -0.60601717625E+02 -0.23191944948E+03  0.23970748590E+03  0.00000000000E+00 0. -1.
        -12    1    4    4    0    0  0.26555363497E+02  0.65370360437E+00 -0.20878396872E+02  0.33786419089E+02  0.00000000000E+00 0.  1.
</event>
<event>
12    1  0.8494789E-002  0.1878966E+03  0.7818608E-02  0.1161174E+00
         21   -1    0    0  503  502  0.00000000000E+00  0.00000000000E+00  0.15930315166E+03  0.15930315166E+03  0.00000000000E+00 0. -1.
         21   -1    0    0  501  503 -0.00000000000E+00 -0.00000000000E+00 -0.23894286851E+03  0.23894286851E+03  0.00000000000E+00 0. -1.
          6    2    1    2  501    0  0.70986963352E+02  0.28596378657E+01  0.20100556906E+02  0.18551787244E+03  0.17019260299E+03 0.  0.
         24    2    3    3    0    0 -0.11024595467E+02 -0.43248716571E+02 -0.11788620984E+01  0.88942617839E+02  0.76924679798E+02 0.  0.
         -6    2    1    2    0  502 -0.70986963352E+02 -0.28596378657E+01 -0.99740273761E+02  0.21272814773E+03  0.17394773965E+03 0.  0.
        -24    2    5    5    0    0 -0.92529224098E+02 -0.29059374998E+01 -0.12763272190E+03  0.17717326332E+03  0.80809354359E+02 0.  0.
          5    1    3    3  501    0  0.82011558819E+02  0.46108354436E+02  0.21279419005E+02  0.96575254604E+02  0.47000000000E+01 0. -1.
        -11    1    4    4    0    0  0.18695805479E+02 -0.29345274305E+02  0.28286932892E+02  0.44842266211E+02  0.00000000000E+00 0.  1.
         12    1    4    4    0    0 -0.29720400946E+02 -0.13903442266E+02 -0.29465794991E+02  0.44100351627E+02  0.00000000000E+00 0. -1.
         -5    1    5    5    0  502  0.21542260746E+02  0.46299634077E-01  0.27892448140E+02  0.35554884403E+02  0.47000000000E+01 0.  1.
         11    1    6    6    0    0 -0.45971321005E+02 -0.46671503919E+01 -0.55961063715E+01  0.46545258129E+02  0.00000000000E+00 0. -1.
        -12    1    6    6    0    0 -0.46557903093E+02  0.17612128921E+01 -0.12203661553E+03  0.13062800519E+03  0.00000000000E+00 0.  1.
</event>
<event>
12    1  0.8494789E-002  0.2685969E+03  0.7818608E-02  0.1102245E+00
         21   -1    0    0  503  502  0.00000000000E+00  0.00000000000E+00  0.13889710648E+04  0.13889710648E+04  0.00000000000E+00 0.  1.
         21   -1    0    0  501  503 -0.00000000000E+00 -0.00000000000E+00 -0.70015985989E+02  0.70015985989E+02  0.00000000000E+00 0. -1.
          6    2    1    2  501    0 -0.40878437988E+02  0.20234180353E+03  0.28765126300E+03  0.39355756475E+03  0.17184602271E+03 0.  0.
         24    2    3    3    0    0 -0.62617333994E+02  0.49602932202E+02  0.14354837196E+03  0.18239536260E+03  0.79249932523E+02 0.  0.
         -6    2    1    2    0  502  0.40878437988E+02 -0.20234180353E+03  0.10313038158E+04  0.10654294861E+04  0.17011518761E+03 0.  0.
        -24    2    5    5    0    0  0.27667924467E+02 -0.17445295688E+03  0.55018472872E+03  0.58329882802E+03  0.79592329038E+02 0.  0.
          5    1    3    3  501    0  0.21738896006E+02  0.15273887133E+03  0.14410289104E+03  0.21116220216E+03  0.47000000000E+01 0. -1.
        -11    1    4    4    0    0 -0.77226193400E+02  0.35066525485E+02  0.13632848409E+03  0.16055840598E+03  0.00000000000E+00 0.  1.
         12    1    4    4    0    0  0.14608859406E+02  0.14536406716E+02  0.72198878671E+01  0.21836956614E+02  0.00000000000E+00 0. -1.
         -5    1    5    5    0  502  0.13210513521E+02 -0.27888846648E+02  0.48111908711E+03  0.48213065804E+03  0.47000000000E+01 0.  1.
         11    1    6    6    0    0  0.26975729796E+02 -0.91633550248E+02  0.40537650197E+03  0.41647869799E+03  0.00000000000E+00 0. -1.
        -12    1    6    6    0    0  0.69219467101E+00 -0.82819406633E+02  0.14480822675E+03  0.16682013003E+03  0.00000000000E+00 0.  1.
</event>
<event>
12    1  0.8494789E-002  0.1977651E+03  0.7818608E-02  0.1151875E+00
         21   -1    0    0  503  502  0.00000000000E+00  0.00000000000E+00  0.12705342416E+03  0.12705342416E+03  0.00000000000E+00 0.  1.
         21   -1    0    0  501  503 -0.00000000000E+00 -0.00000000000E+00 -0.35475312467E+03  0.35475312467E+03  0.00000000000E+00 0. -1.
          6    2    1    2  501    0 -0.57722294246E+02  0.75483126209E+02 -0.24374896202E+02  0.19816592310E+03  0.17218023091E+03 0.  0.
         24    2    3    3    0    0 -0.89571518303E+02  0.78397659397E+02 -0.55167832436E+02  0.15352107458E+03  0.79724404768E+02 0.  0.
         -6    2    1    2    0  502  0.57722294246E+02 -0.75483126209E+02 -0.20332480431E+03  0.28364062574E+03  0.17344008454E+03 0.  0.
        -24    2    5    5    0    0  0.98718901472E+01 -0.11169760043E+03 -0.12962750457E+03  0.18848532476E+03  0.78419510023E+02 0.  0.
          5    1    3    3  501    0  0.31849224056E+02 -0.29145331885E+01  0.30792936235E+02  0.44644848512E+02  0.47000000000E+01 0. -1.
        -11    1    4    4    0    0 -0.99708805483E+02  0.52920583786E+02 -0.31231067199E+02  0.11712307048E+03  0.00000000000E+00 0.  1.
         12    1    4    4    0    0  0.10137287180E+02  0.25477075611E+02 -0.23936765238E+02  0.36398004109E+02  0.00000000000E+00 0. -1.
         -5    1    5    5    0  502  0.47850404099E+02  0.36214474221E+02 -0.73697299734E+02  0.95155300975E+02  0.47000000000E+01 0.  1.
         13    1    6    6    0    0  0.36558474295E+02 -0.57978767291E+02 -0.10089883382E+03  0.12197800689E+03  0.00000000000E+00 0. -1.
        -14    1    6    6    0    0 -0.26686584148E+02 -0.53718833139E+02 -0.28728670758E+02  0.66507317874E+02  0.00000000000E+00 0.  1.
</event>
<event>
12    1  0.8494789E-002  0.2435991E+03  0.7818608E-02  0.1117543E+00
         21   -1    0    0  501  502  0.00000000000E+00  0.00000000000E+00  0.59066825759E+03  0.59066825759E+03  0.00000000000E+00 0.  1.
         21   -1    0    0  502  503 -0.00000000000E+00 -0.00000000000E+00 -0.11210182730E+03  0.11210182730E+03  0.00000000000E+00 0. -1.
         -6    2    1    2    0  503  0.21517272628E+02 -0.17275911104E+03  0.35368259176E+03  0.42902479696E+03  0.16929913533E+03 0.  0.
        -24    2    3    3    0    0  0.36356249460E+02 -0.10385412918E+03  0.10937399493E+03  0.17470831648E+03  0.80329745781E+02 0.  0.
          6    2    1    2  501    0 -0.21517272628E+02  0.17275911104E+03  0.12488383852E+03  0.27374528793E+03  0.17038722391E+03 0.  0.
         24    2    5    5    0    0 -0.15545710294E+02  0.74368766248E+02  0.13603481474E+03  0.17443388992E+03  0.78417655092E+02 0.  0.
          5    1    5    5  501    0 -0.59715623344E+01  0.98390344789E+02 -0.11150976217E+02  0.99311398011E+02  0.47000000000E+01 0. -1.
        -13    1    6    6    0    0 -0.32495911712E+02  0.44504218561E+02  0.29507109138E+02  0.62508233357E+02  0.00000000000E+00 0.  1.
         14    1    6    6    0    0  0.16950201418E+02  0.29864547687E+02  0.10652770560E+03  0.11192565656E+03  0.00000000000E+00 0. -1.
         -5    1    3    3    0  503 -0.14838976832E+02 -0.68904981855E+02  0.24430859683E+03  0.25431648048E+03  0.47000000000E+01 0.  1.
         11    1    4    4    0    0 -0.56307076798E+01 -0.69211060223E+02  0.96302842465E+02  0.11872705333E+03  0.00000000000E+00 0. -1.
        -12    1    4    4    0    0  0.41986957140E+02 -0.34643068959E+02  0.13071152464E+02  0.55981263147E+02  0.00000000000E+00 0.  1.
</event>
<event>
12    1  0.8494789E-002  0.2652850E+03  0.7818608E-02  0.1104011E+00
         21   -1    0    0  501  502  0.00000000000E+00  0.00000000000E+00  0.61092418170E+03  0.61092418170E+03  0.00000000000E+00 0.  1.
         21   -1    0    0  502  503 -0.00000000000E+00 -0.00000000000E+00 -0.21598125537E+03  0.21598125537E+03  0.00000000000E+00 0.  1.
         -6    2    1    2    0  503  0.18972960662E+03 -0.67817088369E+02 -0.84971481722E+02  0.27854974502E+03  0.17254949042E+03 0.  0.
        -24    2    3    3    0    0  0.34254905306E+02 -0.57261955275E+02 -0.61573318458E+02  0.12090026793E+03  0.79832770089E+02 0.  0.
          6    2    1    2  501    0 -0.18972960662E+03  0.67817088369E+02  0.47991440805E+03  0.54835569205E+03  0.17256779782E+03 0.  0.
         24    2    5    5    0    0 -0.20003160314E+03  0.39606051625E+02  0.46228818619E+03  0.51321643446E+03  0.89996999584E+02 0.  0.
          5    1    5    5  501    0  0.10301996520E+02  0.28211036744E+02  0.17626221864E+02  0.35139257585E+02  0.47000000000E+01 0. -1.
        -13    1    6    6    0    0 -0.40583681264E+02 -0.18343491467E+02  0.47698755882E+02  0.65258640630E+02  0.00000000000E+00 0.  1.
         14    1    6    6    0    0 -0.15944792188E+03  0.57949543092E+02  0.41458943031E+03  0.44795779383E+03  0.00000000000E+00 0. -1.
         -5    1    3    3    0  503  0.15547470132E+03 -0.10555133095E+02 -0.23398163265E+02  0.15764947709E+03  0.47000000000E+01 0.  1.
         13    1    4    4    0    0 -0.22325121404E+02 -0.28646105055E+02 -0.64553317279E+01  0.36887419105E+02  0.00000000000E+00 0. -1.
        -14    1    4    4    0    0  0.56580026710E+02 -0.28615850220E+02 -0.55117986730E+02  0.84012848824E+02  0.00000000000E+00 0.  1.
</event>
<event>
12    1  0.8494789E-002  0.1862435E+03  0.7818608E-02  0.1162411E+00
         21   -1    0    0  503  502  0.00000000000E+00  0.00000000000E+00  0.14285209964E+03  0.14285209964E+03  0.00000000000E+00 0.  1.
         21   -1    0    0  501  503 -0.00000000000E+00 -0.00000000000E+00 -0.30468434486E+03  0.30468434486E+03  0.00000000000E+00 0.  1.
          6    2    1    2  501    0  0.72630054710E+02 -0.23628396062E+02 -0.18369367053E+03  0.26001428185E+03  0.16742352351E+03 0.  0.
         24    2    3    3    0    0  0.11007448635E+02  0.29577871880E+02 -0.14617426363E+03  0.17024764873E+03  0.81371568245E+02 0.  0.
         -6    2    1    2    0  502 -0.72630054710E+02  0.23628396062E+02  0.21861425304E+02  0.18752216266E+03  0.16986233728E+03 0.  0.
        -24    2    5    5    0    0  0.20541275410E+02  0.13387467237E+02 -0.11101291324E+02  0.88051543549E+02  0.83837147959E+02 0.  0.
          5    1    3    3  501    0  0.61622606075E+02 -0.53206267942E+02 -0.37519406892E+02  0.89766633117E+02  0.47000000000E+01 0. -1.
        -13    1    4    4    0    0  0.17803414557E+02  0.41246206186E+02 -0.14969688767E+03  0.15629257587E+03  0.00000000000E+00 0.  1.
         14    1    4    4    0    0 -0.67959659223E+01 -0.11668334306E+02  0.35226240381E+01  0.13955072856E+02  0.00000000000E+00 0. -1.
         -5    1    5    5    0  502 -0.93171330119E+02  0.10240928825E+02  0.32962716627E+02  0.99470619114E+02  0.47000000000E+01 0.  1.
         13    1    6    6    0    0 -0.11154890335E+02 -0.23232633201E+02 -0.26758771484E+02  0.37151294395E+02  0.00000000000E+00 0. -1.
        -14    1    6    6    0    0  0.31696165744E+02  0.36620100438E+02  0.15657480161E+02  0.50900249154E+02  0.00000000000E+00 0.  1.
</event>
<event>
12    1  0.8494789E-002  0.2361241E+03  0.7818608E-02  0.1123214E+00
         21   -1    0    0  503  502  0.00000000000E+00  0.00000000000E+00  0.77078105461E+03  0.77078105461E+03  0.00000000000E+00 0. -1.
         21   -1    0    0  501  503 -0.00000000000E+00 -0.00000000000E+00 -0.16687962837E+03  0.16687962837E+03  0.00000000000E+00 0. -1.
          6    2    1    2  501    0 -0.13918390200E+03 -0.66966645299E+02 -0.52305680480E+02  0.24184807753E+03  0.17859988307E+03 0.  0.
         24    2    3    3    0    0 -0.23910478669E+02  0.39585259528E+01  0.29482004365E+02  0.83640437267E+02  0.74425487885E+02 0.  0.
         -6    2    1    2    0  502  0.13918390200E+03  0.66966645299E+02  0.65620710672E+03  0.69581260545E+03  0.17230996729E+03 0.  0.
        -24    2    5    5    0    0  0.16881217769E+03  0.73164324277E+02  0.58681112762E+03  0.61995657167E+03  0.78410978659E+02 0.  0.
          5    1    3    3  501    0 -0.11527342333E+03 -0.70925171252E+02 -0.81787684845E+02  0.15820764026E+03  0.47000000000E+01 0. -1.
        -11    1    4    4    0    0 -0.33704395147E+02 -0.26253695316E+02  0.29433495956E+02  0.51880376388E+02  0.00000000000E+00 0.  1.
         12    1    4    4    0    0  0.97939164777E+01  0.30212221269E+02  0.48508408712E-01  0.31760060879E+02  0.00000000000E+00 0. -1.
         -5    1    5    5    0  502 -0.29628275689E+02 -0.61976789782E+01  0.69395979098E+02  0.75856033774E+02  0.47000000000E+01 0.  1.
         11    1    6    6    0    0  0.41360101157E+02  0.56118454907E+02  0.16925874942E+03  0.18305317043E+03  0.00000000000E+00 0. -1.
        -12    1    6    6    0    0  0.12745207653E+03  0.17045869370E+02  0.41755237820E+03  0.43690340124E+03  0.00000000000E+00 0.  1.
</event>
<event>
12    1  0.8494789E-002  0.2076220E+03  0.7818608E-02  0.1144307E+00
         21   -1    0    0  503  502  0.00000000000E+00  0.00000000000E+00  0.31133478279E+03  0.31133478279E+03  0.00000000000E+00 0. -1.
         21   -1    0    0  501  503 -0.00000000000E+00 -0.00000000000E+00 -0.14705216077E+03  0.14705216077E+03  0.00000000000E+00 0. -1.
          6    2    1    2  501    0 -0.38435218558E+02  0.10079986029E+03  0.17697939535E+02  0.20423350352E+03  0.17251153306E+03 0.  0.
         24    2    3    3    0    0 -0.91935931582E+02  0.78741746849E+02  0.27003802107E+02  0.14543234928E+03  0.75953174227E+02 0.  0.
         -6    2    1    2    0  502  0.38435218558E+02 -0.10079986029E+03  0.14658468248E+03  0.25415344004E+03  0.17739510727E+03 0.  0.
        -24    2    5    5    0    0 -0.11287254581E+02  0.67271082104E+01  0.90742209595E+02  0.12310060692E+03  0.82139848561E+02 0.  0.
          5    1    3    3  501    0  0.53500713024E+02  0.22058113437E+02 -0.93058625714E+01  0.58801154246E+02  0.47000000000E+01 0. -1.
        -11    1    4    4    0    0 -0.19606527974E+02 -0.14745720520E+02  0.73385086522E+01  0.25606755399E+02  0.00000000000E+00 0.  1.
         12    1    4    4    0    0 -0.72329403608E+02  0.93487467369E+02  0.19665293455E+02  0.11982559388E+03  0.00000000000E+00 0. -1.
         -5    1    5    5    0  502  0.49722473139E+02 -0.10752696850E+03  0.55842472887E+02  0.13105283311E+03  0.47000000000E+01 0.  1.
         13    1    6    6    0    0 -0.23388762450E+00  0.11286469616E+02  0.10436558639E+03  0.10497435269E+03  0.00000000000E+00 0. -1.
        -14    1    6    6    0    0 -0.11053366957E+02 -0.45593614052E+01 -0.13623376791E+02  0.18126254238E+02  0.00000000000E+00 0.  1.
</event>
<event>
12    1  0.8494789E-002  0.1878572E+03  0.7818608E-02  0.1160611E+00
         21   -1    0    0  501  502  0.00000000000E+00  0.00000000000E+00  0.59292487445E+02  0.59292487445E+02  0.00000000000E+00 0. -1.
         21   -1    0    0  502  503 -0.00000000000E+00 -0.00000000000E+00 -0.67404673078E+03  0.67404673078E+03  0.00000000000E+00 0. -1.
         -6    2    1    2    0  503  0.70443447409E+02  0.20034090979E+02 -0.43435478811E+03  0.47288904432E+03  0.17203581661E+03 0.  0.
        -24    2    3    3    0    0  0.61584112871E+02  0.74972885641E+02 -0.24332742848E+03  0.27386567611E+03  0.79878874288E+02 0.  0.
          6    2    1    2  501    0 -0.70443447409E+02 -0.20034090979E+02 -0.18039945522E+03  0.26045017390E+03  0.17299331073E+03 0.  0.
         24    2    5    5    0    0 -0.10132637794E+03  0.13172495268E+02 -0.85666193010E+02  0.15531733537E+03  0.79650665685E+02 0.  0.
          5    1    5    5  501    0  0.30882930534E+02 -0.33206586247E+02 -0.94733262209E+02  0.10513283853E+03  0.47000000000E+01 0. -1.
        -13    1    6    6    0    0 -0.21386110361E+02  0.32904015757E+02 -0.41662228279E+01  0.39463874391E+02  0.00000000000E+00 0.  1.
         14    1    6    6    0    0 -0.79940267582E+02 -0.19731520489E+02 -0.81499970182E+02  0.11585346098E+03  0.00000000000E+00 0. -1.
         -5    1    3    3    0  503  0.88593345380E+01 -0.54938794662E+02 -0.19102735963E+03  0.19902336821E+03  0.47000000000E+01 0.  1.
         11    1    4    4    0    0  0.16861121798E+02  0.49141917245E+02 -0.19942259911E+03  0.20607910737E+03  0.00000000000E+00 0. -1.
        -12    1    4    4    0    0  0.44722991073E+02  0.25830968396E+02 -0.43904829376E+02  0.67786568739E+02  0.00000000000E+00 0.  1.
</event>
<event>
12    1  0.8494789E-002  0.2680450E+03  0.7818608E-02  0.1102615E+00
         21   -1    0    0  503  502  0.00000000000E+00  0.00000000000E+00  0.89248009694E+03  0.89248009694E+03  0.00000000000E+00 0. -1.
         21   -1    0    0  501  503 -0.00000000000E+00 -0.00000000000E+00 -0.38668998441E+03  0.38668998441E+03  0.00000000000E+00 0.  1.
          6    2    1    2  501    0 -0.20460341371E+03  0.20507754636E+01 -0.31649545424E+03  0.41474994969E+03  0.17315133736E+03 0.  0.
         24    2    3    3    0    0 -0.15405892591E+03 -0.60782893019E+01 -0.31924835956E+03  0.36326698718E+03  0.79197794418E+02 0.  0.
         -6    2    1    2    0  502  0.20460341371E+03 -0.20507754636E+01  0.82228556677E+03  0.86442013166E+03  0.17088548246E+03 0.  0.
        -24    2    5    5    0    0  0.15648365738E+03  0.45657521056E+02  0.71167179395E+03  0.73461608995E+03  0.81316130349E+02 0.  0.
          5    1    3    3  501    0 -0.50544487798E+02  0.81290647655E+01  0.27529053191E+01  0.51482962506E+02  0.47000000000E+01 0. -1.
        -13    1    4    4    0    0 -0.40538387103E+02 -0.36941754087E+02 -0.11875503800E+03  0.13080830660E+03  0.00000000000E+00 0.  1.
         14    1    4    4    0    0 -0.11352053881E+03  0.30863464785E+02 -0.20049332156E+03  0.23245868058E+03  0.00000000000E+00 0. -1.
         -5    1    5    5    0  502  0.48119756328E+02 -0.47708296519E+02  0.11061377282E+03  0.12980404171E+03  0.47000000000E+01 0.  1.
         13    1    6    6    0    0  0.11034691378E+03  0.68792875357E+02  0.48359713982E+03  0.50077449488E+03  0.00000000000E+00 0. -1.
        -14    1    6    6    0    0  0.46136743605E+02 -0.23135354302E+02  0.22807465413E+03  0.23384159507E+03  0.00000000000E+00 0.  1.
</event>
<event>
12    1  0.8494789E-002  0.2437493E+03  0.7818608E-02  0.1117327E+00
         21   -1    0    0  503  502  0.00000000000E+00  0.00000000000E+00  0.25061761806E+03  0.25061761806E+03  0.00000000000E+00 0. -1.
         21   -1    0    0  501  503 -0.00000000000E+00 -0.00000000000E+00 -0.24158395943E+03  0.24158395943E+03  0.00000000000E+00 0. -1.
          6    2    1    2  501    0 -0.53654253239E+02 -0.16424829815E+03  0.38317218179E+02  0.24669958517E+03  0.17186097223E+03 0.  0.
         24    2    3    3    0    0 -0.31815806127E+01 -0.79184865455E+02 -0.40410591662E+02  0.12019489630E+03  0.80829646818E+02 0.  0.
         -6    2    1    2    0  502  0.53654253239E+02  0.16424829815E+03 -0.29283559547E+02  0.24550199232E+03  0.17192271240E+03 0.  0.
        -24    2    5    5    0    0  0.94669496216E+02  0.78412842551E+02 -0.34018126584E+02  0.15013700022E+03  0.79202263270E+02 0.  0.
          5    1    3    3  501    0 -0.50472672626E+02 -0.85063432696E+02  0.78727809841E+02  0.12650468887E+03  0.47000000000E+01 0. -1.
        -13    1    4    4    0    0 -0.21949443611E+02  0.77426171984E+01 -0.21198759662E+01  0.23371351481E+02  0.00000000000E+00 0.  1.
         14    1    4    4    0    0  0.18767862999E+02 -0.86927482653E+02 -0.38290715696E+02  0.96823544815E+02  0.00000000000E+00 0. -1.
         -5    1    5    5    0  502 -0.41015242977E+02  0.85835455599E+02  0.47345670374E+01  0.95364992106E+02  0.47000000000E+01 0.  1.
         13    1    6    6    0    0  0.22976097212E+02  0.66038185666E+02 -0.23243696002E+00  0.69921363231E+02  0.00000000000E+00 0. -1.
        -14    1    6    6    0    0  0.71693399003E+02  0.12374656885E+02 -0.33785689624E+02  0.80215636986E+02  0.00000000000E+00 0.  1.
</event>
<event>
12    1  0.8494789E-002  0.1743886E+03  0.7818608E-02  0.1176300E+00
         21   -1    0    0  501  502  0.00000000000E+00  0.00000000000E+00  0.13243511164E+02  0.13243511164E+02  0.00000000000E+00 0.  1.
         21   -1    0    0  502  503 -0.00000000000E+00 -0.00000000000E+00 -0.23668494610E+04  0.23668494610E+04  0.00000000000E+00 0.  1.
         -6    2    1    2    0  503 -0.10578601172E+02  0.29376751172E+02 -0.15726584214E+04  0.15822976585E+04  0.17157059596E+03 0.  0.
        -24    2    3    3    0    0 -0.12768658990E+02 -0.31749555900E+02 -0.51158733527E+03  0.51945469664E+03  0.83309707110E+02 0.  0.
          6    2    1    2  501    0  0.10578601172E+02 -0.29376751172E+02 -0.78094752846E+03  0.79779531368E+03  0.16007317081E+03 0.  0.
         24    2    5    5    0    0 -0.29113229964E+02  0.88806700306E+01 -0.65254593055E+03  0.65798067896E+03  0.78714267771E+02 0.  0.
          5    1    5    5  501    0  0.39691831136E+02 -0.38257421203E+02 -0.12840159791E+03  0.13981463472E+03  0.47000000000E+01 0. -1.
        -11    1    6    6    0    0 -0.42203952659E+02 -0.14302656759E+02 -0.21208912141E+03  0.21671994608E+03  0.00000000000E+00 0.  1.
         12    1    6    6    0    0  0.13090722695E+02  0.23183326789E+02 -0.44045680914E+03  0.44126073288E+03  0.00000000000E+00 0. -1.
         -5    1    3    3    0  503  0.21900578178E+01  0.61126307072E+02 -0.10610710861E+04  0.10628429618E+04  0.47000000000E+01 0.  1.
         11    1    4    4    0    0 -0.13694654418E+02  0.10059660604E+02 -0.20663831513E+02  0.26753210347E+02  0.00000000000E+00 0. -1.
        -12    1    4    4    0    0  0.92599542863E+00 -0.41809216503E+02 -0.49092350375E+03  0.49270148629E+03  0.00000000000E+00 0.  1.
</event>
<event>
12    1  0.8494789E-002  0.1808111E+03  0.7818608E-02  0.1168438E+00
         21   -1    0    0  503  502  0.00000000000E+00  0.00000000000E+00  0.52053971834E+02  0.52053971834E+02  0.00000000000E+00 0.  1.
         21   -1    0    0  501  503 -0.00000000000E+00 -0.00000000000E+00 -0.90495273121E+03  0.90495273121E+03  0.00000000000E+00 0.  1.
          6    2    1    2  501    0  0.53461848323E+02 -0.20996372048E+02 -0.70514671908E+03  0.72795917386E+03  0.17144575383E+03 0.  0.
         24    2    3    3    0    0  0.33686827551E+02  0.51148651065E+02 -0.31335832576E+03  0.32906546503E+03  0.79621938509E+02 0.  0.
         -6    2    1    2    0  502 -0.53461848323E+02  0.20996372048E+02 -0.14775204030E+03  0.22904752919E+03  0.16532721600E+03 0.  0.
        -24    2    5    5    0    0 -0.75903892224E+02  0.42041354257E+02 -0.15691202278E+03  0.19660478131E+03  0.80642301688E+02 0.  0.
          5    1    3    3  501    0  0.19775020771E+02 -0.72145023113E+02 -0.39178839332E+03  0.39889370883E+03  0.47000000000E+01 0. -1.
        -13    1    4    4    0    0  0.19427939019E+02  0.22689923879E+02 -0.24990503282E+02  0.38946151472E+02  0.00000000000E+00 0.  1.
         14    1    4    4    0    0  0.14258888533E+02  0.28458727186E+02 -0.28836782248E+03  0.29011931356E+03  0.00000000000E+00 0. -1.
         -5    1    5    5    0  502  0.22442043901E+02 -0.21044982210E+02  0.91599824782E+01  0.32442747875E+02  0.47000000000E+01 0.  1.
         11    1    6    6    0    0 -0.39042283866E+02  0.61655289484E+02 -0.12207696379E+03  0.14222678981E+03  0.00000000000E+00 0. -1.
        -12    1    6    6    0    0 -0.36861608358E+02 -0.19613935226E+02 -0.34835058987E+02  0.54377991508E+02  0.00000000000E+00 0.  1.
</event>
<event>
12    1  0.8494789E-002  0.2826136E+03  0.7818608E-02  0.1096215E+00
         21   -1    0    0  503  502  0.00000000000E+00  0.00000000000E+00  0.41161438050E+03  0.41161438050E+03  0.00000000000E+00 0.  1.
         21   -1    0    0  501  503 -0.00000000000E+00 -0.00000000000E+00 -0.25402076817E+03  0.25402076817E+03  0.00000000000E+00 0.  1.
          6    2    1    2  501    0 -0.95868247943E+02  0.18227444819E+03  0.25428974293E+03  0.38017594199E+03  0.19353495313E+03 0.  0.
         24    2    3    3    0    0 -0.91539962484E+02  0.68783242832E+02  0.51509365757E+02  0.14770882794E+03  0.77807350970E+02 0.  0.
         -6    2    1    2    0  502  0.95868247943E+02 -0.18227444819E+03 -0.96696130591E+02  0.28545920668E+03  0.17240104867E+03 0.  0.
        -24    2    5    5    0    0  0.29022797890E+02 -0.74632261006E+02  0.18193526776E+02  0.11435433234E+03  0.79583991659E+02 0.  0.
          5    1    3    3  501    0 -0.43282854595E+01  0.11349120535E+03  0.20278037717E+03  0.23246711405E+03  0.47000000000E+01 0. -1.
        -11    1    4    4    0    0 -0.73496647204E+02  0.85804301942E+02  0.47605947328E+02  0.12259878304E+03  0.00000000000E+00 0.  1.
         12    1    4    4    0    0 -0.18043315280E+02 -0.17021059110E+02  0.39034184296E+01  0.25110044901E+02  0.00000000000E+00 0. -1.
         -5    1    5    5    0  502  0.66845450054E+02 -0.10764218718E+03 -0.11488965737E+03  0.17110487434E+03  0.47000000000E+01 0.  1.
         13    1    6    6    0    0  0.74469957139E+01  0.16964755133E+02  0.59392626520E+01  0.19455988866E+02  0.00000000000E+00 0. -1.
        -14    1    6    6    0    0  0.21575802176E+02 -0.91597016139E+02  0.12254264124E+02  0.94898343475E+02  0.00000000000E+00 0.  1.
</event>
<event>
12    1  0.8494789E-002  0.1816058E+03  0.7818608E-02  0.1167396E+00
         21   -1    0    0  501  502  0.00000000000E+00  0.00000000000E+00  0.38633371782E+02  0.38633371782E+02  0.00000000000E+00 0. -1.
         21   -1    0    0  502  503 -0.00000000000E+00 -0.00000000000E+00 -0.35720781188E+04  0.35720781188E+04  0.00000000000E+00 0. -1.
         -6    2    1    2    0  503  0.14848721483E+02 -0.47793111439E+02 -0.33425627541E+04  0.33472412081E+04  0.16968580862E+03 0.  0.
        -24    2    3    3    0    0 -0.30680510493E+02  0.72045549987E+00 -0.94100932147E+03  0.94476176859E+03  0.78322688492E+02 0.  0.
          6    2    1    2  501    0 -0.14848721483E+02  0.47793111439E+02 -0.19088199288E+03  0.26347028251E+03  0.17457373379E+03 0.  0.
         24    2    5    5    0    0 -0.76000975050E+02  0.23099702112E+02 -0.98190948687E+02  0.14961475013E+03  0.80208270178E+02 0.  0.
          5    1    5    5  501    0  0.61152253567E+02  0.24693409327E+02 -0.92691044193E+02  0.11385553238E+03  0.47000000000E+01 0. -1.
        -13    1    6    6    0    0  0.16919664895E+02  0.32047737546E+01 -0.21203416021E+02  0.27315389178E+02  0.00000000000E+00 0.  1.
         14    1    6    6    0    0 -0.92920639945E+02  0.19894928358E+02 -0.76987532666E+02  0.12229936095E+03  0.00000000000E+00 0. -1.
         -5    1    3    3    0  503  0.45529231976E+02 -0.48513566939E+02 -0.24015534327E+04  0.24024794395E+04  0.47000000000E+01 0.  1.
         13    1    4    4    0    0 -0.31546089258E+02  0.14790329467E+02 -0.91035648987E+03  0.91102296801E+03  0.00000000000E+00 0. -1.
        -14    1    4    4    0    0  0.86557876497E+00 -0.14069873967E+02 -0.30652831595E+02  0.33738800584E+02  0.00000000000E+00 0.  1.
</event>
<event>
12    1  0.8494789E-002  0.2098208E+03  0.7818608E-02  0.1142057E+00
         21   -1    0    0  503  502  0.00000000000E+00  0.00000000000E+00  0.66380618946E+02  0.66380618946E+02  0.00000000000E+00 0. -1.
         21   -1    0    0  501  503 -0.00000000000E+00 -0.00000000000E+00 -0.10526392934E+04  0.10526392934E+04  0.00000000000E+00 0. -1.
          6    2    1    2  501    0  0.85049211230E+02  0.84064226836E+02 -0.15170315293E+03  0.25891816897E+03  0.17240826270E+03 0.  0.
         24    2    3    3    0    0  0.95787093640E+02  0.16031161618E+02 -0.50281555974E+02  0.13623063736E+03  0.81230451396E+02 0.  0.
         -6    2    1    2    0  502 -0.85049211230E+02 -0.84064226836E+02 -0.83455552152E+03  0.86010174337E+03  0.17027016151E+03 0.  0.
        -24    2    5    5    0    0 -0.26763185390E+01  0.46112133185E+01 -0.44990532246E+03  0.45683199151E+03  0.79071128222E+02 0.  0.
          5    1    3    3  501    0 -0.10737882410E+02  0.68033065218E+02 -0.10142159696E+03  0.12268753161E+03  0.47000000000E+01 0. -1.
        -13    1    4    4    0    0  0.31435125720E+02 -0.33098240355E+02 -0.18540215112E+02  0.49268653523E+02  0.00000000000E+00 0.  1.
         14    1    4    4    0    0  0.64351967920E+02  0.49129401972E+02 -0.31741340862E+02  0.86961983838E+02  0.00000000000E+00 0. -1.
         -5    1    5    5    0  502 -0.82372892691E+02 -0.88675440155E+02 -0.38465019905E+03  0.40326975186E+03  0.47000000000E+01 0.  1.
         11    1    6    6    0    0 -0.96691137097E+01 -0.25225293158E+01 -0.44599109571E+03  0.44610302887E+03  0.00000000000E+00 0. -1.
        -12    1    6    6    0    0  0.69927951707E+01  0.71337426343E+01 -0.39142267519E+01  0.10728962640E+02  0.00000000000E+00 0.  1.
</event>
<event>
12    1  0.8494789E-002  0.2597806E+03  0.7818608E-02  0.1107376E+00
         21   -1    0    0  501  502  0.00000000000E+00  0.00000000000E+00  0.49479452202E+03  0.49479452202E+03  0.00000000000E+00 0. -1.
         21   -1    0    0  502  503 -0.00000000000E+00 -0.00000000000E+00 -0.15262193045E+03  0.15262193045E+03  0.00000000000E+00 0. -1.
         -6    2    1    2    0  503  0.15703800473E+03 -0.11368174952E+03  0.64187047423E+02  0.26694054522E+03  0.17190928574E+03 0.  0.
        -24    2    3    3    0    0  0.81576714370E+02 -0.11454571505E+03 -0.10131489228E+02  0.16091937909E+03  0.77568797391E+02 0.  0.
          6    2    1    2  501    0 -0.15703800473E+03  0.11368174952E+03  0.27798554414E+03  0.38047590725E+03  0.17292043876E+03 0.  0.
         24    2    5    5    0    0 -0.17068586805E+02  0.13058272261E+02  0.54177315699E+02  0.97936113152E+02  0.78704800317E+02 0.  0.
          5    1    5    5  501    0 -0.13996941792E+03  0.10062347726E+03  0.22380822844E+03  0.28253979410E+03  0.47000000000E+01 0. -1.
        -13    1    6    6    0    0 -0.32277175977E+02  0.15984848661E+02 -0.53620002522E+01  0.36415416001E+02  0.00000000000E+00 0.  1.
         14    1    6    6    0    0  0.15208589172E+02 -0.29265763996E+01  0.59539315952E+02  0.61520697152E+02  0.00000000000E+00 0. -1.
         -5    1    3    3    0  503  0.75461290358E+02  0.86396552657E+00  0.74318536650E+02  0.10602116614E+03  0.47000000000E+01 0.  1.
         11    1    4    4    0    0  0.63109456365E+02 -0.69533902270E+02 -0.41885492949E+02  0.10282101715E+03  0.00000000000E+00 0. -1.
        -12    1    4    4    0    0  0.18467258004E+02 -0.45011812779E+02  0.31754003721E+02  0.58098361941E+02  0.00000000000E+00 0.  1.
</event>
<event>
12    1  0.8494789E-002  0.2063410E+03  0.7818608E-02  0.1147237E+00
         21   -1    0    0  503  502  0.00000000000E+00  0.00000000000E+00  0.13207912579E+04  0.13207912579E+04  0.00000000000E+00 0.  1.
         21   -1    0    0  501  503 -0.00000000000E+00 -0.00000000000E+00 -0.30710855847E+02  0.30710855847E+02  0.00000000000E+00 0. -1.
          6    2    1    2  501    0 -0.11327423422E+03  0.50349123744E+01  0.75058831609E+03  0.77843395090E+03  0.17239545583E+03 0.  0.
         24    2    3    3    0    0 -0.21499032818E+01 -0.23309986363E+02  0.43367039049E+03  0.44137147631E+03  0.78681605012E+02 0.  0.
         -6    2    1    2    0  502  0.11327423422E+03 -0.50349123744E+01  0.53949208601E+03  0.57306816288E+03  0.15652158307E+03 0.  0.
        -24    2    5    5    0    0  0.47526479450E+02  0.23076002779E+02  0.15146638832E+03  0.17848100791E+03  0.78244074788E+02 0.  0.
          5    1    3    3  501    0 -0.11112433094E+03  0.28344898738E+02  0.31691792560E+03  0.33706247459E+03  0.47000000000E+01 0. -1.
        -13    1    4    4    0    0  0.19699919095E+02 -0.24750067084E+02  0.67475193948E+02  0.74522174092E+02  0.00000000000E+00 0.  1.
         14    1    4    4    0    0 -0.21849822377E+02  0.14400807210E+01  0.36619519654E+03  0.36684930222E+03  0.00000000000E+00 0. -1.
         -5    1    5    5    0  502  0.65747754772E+02 -0.28110915153E+02  0.38802569769E+03  0.39458715498E+03  0.47000000000E+01 0.  1.
         13    1    6    6    0    0 -0.17231474399E+02 -0.76313306507E+01  0.14080757530E+02  0.23525064295E+02  0.00000000000E+00 0. -1.
        -14    1    6    6    0    0  0.64757953849E+02  0.30707333430E+02  0.13738563079E+03  0.15495594361E+03  0.00000000000E+00 0.  1.
</event>
<event>
12    1  0.8494789E-002  0.1815449E+03  0.7818608E-02  0.1166349E+00
         21   -1    0    0  501  502  0.00000000000E+00  0.00000000000E+00  0.13636354728E+02  0.13636354728E+02  0.00000000000E+00 0.  1.
         21   -1    0    0  502  503 -0.00000000000E+00 -0.00000000000E+00 -0.26093550206E+04  0.26093550206E+04  0.00000000000E+00 0.  1.
         -6    2    1    2    0  503  0.54309575530E+02  0.21958340190E+02 -0.16551919036E+04  0.16651035286E+04  0.17169107268E+03 0.  0.
        -24    2    3    3    0    0  0.82595024131E+02  0.18786393736E+02 -0.83399763206E+03  0.84340270136E+03  0.92742653455E+02 0.  0.
          6    2    1    2  501    0 -0.54309575530E+02 -0.21958340190E+02 -0.94052676221E+03  0.95788784669E+03  0.17183375019E+03 0.  0.
         24    2    5    5    0    0  0.24965375189E+02 -0.48945348975E+02 -0.45557126960E+03  0.46573265138E+03  0.79641721065E+02 0.  0.
          5    1    5    5  501    0 -0.79274950719E+02  0.26987008785E+02 -0.48495549261E+03  0.49215519531E+03  0.47000000000E+01 0. -1.
        -11    1    6    6    0    0  0.52309213467E+02 -0.27831945205E+02 -0.33940696037E+03  0.34454020917E+03  0.00000000000E+00 0.  1.
         12    1    6    6    0    0 -0.27343838278E+02 -0.21113403770E+02 -0.11616430923E+03  0.12119244221E+03  0.00000000000E+00 0. -1.
         -5    1    3    3    0  503 -0.28285448602E+02  0.31719464543E+01 -0.82119427156E+03  0.82170082724E+03  0.47000000000E+01 0.  1.
         13    1    4    4    0    0  0.73997564103E+02  0.31568234375E+02 -0.34867984319E+03  0.35784050352E+03  0.00000000000E+00 0. -1.
        -14    1    4    4    0    0  0.85974600282E+01 -0.12781840640E+02 -0.48531778888E+03  0.48556219784E+03  0.00000000000E+00 0.  1.
</event>
<event>
12    1  0.8494789E-002  0.3363348E+03  0.7818608E-02  0.1068410E+00
         21   -1    0    0  501  502  0.00000000000E+00  0.00000000000E+00  0.14403875249E+03  0.14403875249E+03  0.00000000000E+00 0.  1.
         21   -1    0    0  502  503 -0.00000000000E+00 -0.00000000000E+00 -0.17001581783E+04  0.17001581783E+04  0.00000000000E+00 0. -1.
         -6    2    1    2    0  503 -0.16205313971E+03 -0.23827874935E+03 -0.14545781279E+04  0.14928684268E+04  0.17268649906E+03 0.  0.
        -24    2    3    3    0    0 -0.68078158365E+02 -0.10927184379E+03 -0.46420096152E+03  0.48970188999E+03  0.88036565651E+02 0.  0.
          6    2    1    2  501    0  0.16205313971E+03  0.23827874935E+03 -0.10154129786E+03  0.35132850399E+03  0.17344480408E+03 0.  0.
         24    2    5    5    0    0  0.15466071109E+03  0.19134683115E+03 -0.13623848560E+03  0.29230954277E+03  0.79689387545E+02 0.  0.
          5    1    5    5  501    0  0.73924286221E+01  0.46931918194E+02  0.34697187742E+02  0.59018961220E+02  0.47000000000E+01 0. -1.
        -13    1    6    6    0    0  0.23615584996E+02  0.73707612142E+02 -0.15890049297E+02  0.79012667396E+02  0.00000000000E+00 0.  1.
         14    1    6    6    0    0  0.13104512609E+03  0.11763921901E+03 -0.12034843631E+03  0.21329687537E+03  0.00000000000E+00 0. -1.
         -5    1    3    3    0  503 -0.93974981347E+02 -0.12900690556E+03 -0.99037716641E+03  0.10031665368E+04  0.47000000000E+01 0.  1.
         13    1    4    4    0    0 -0.89173581186E+02 -0.83970604716E+02 -0.34826865382E+03  0.36918023413E+03  0.00000000000E+00 0. -1.
        -14    1    4    4    0    0  0.21095422822E+02 -0.25301239071E+02 -0.11593230770E+03  0.12052165586E+03  0.00000000000E+00 0.  1.
</event>
<event>
12    1  0.8494789E-002  0.2844890E+03  0.7818608E-02  0.1093291E+00
         21   -1    0    0  501  502  0.00000000000E+00  0.00000000000E+00  0.77267581370E+03  0.77267581370E+03  0.00000000000E+00 0. -1.
         21   -1    0    0  502  503 -0.00000000000E+00 -0.00000000000E+00 -0.10468988423E+03  0.10468988423E+03  0.00000000000E+00 0.  1.
         -6    2    1    2    0  503  0.99113428421E+02 -0.20521264593E+03  0.34077597575E+03  0.44391694031E+03  0.17028882085E+03 0.  0.
        -24    2    3    3    0    0  0.69982872063E+02 -0.47813235854E+02  0.96564141398E+02  0.15188154239E+03  0.80991737904E+02 0.  0.
          6    2    1    2  501    0 -0.99113428421E+02  0.20521264593E+03  0.32720995373E+03  0.43344875761E+03  0.16992872009E+03 0.  0.
         24    2    5    5    0    0 -0.89398953818E+02  0.56598297137E+02  0.13024312886E+03  0.18646977919E+03  0.81315224605E+02 0.  0.
          5    1    5    5  501    0 -0.97144746035E+01  0.14861434880E+03  0.19696682487E+03  0.24697897842E+03  0.47000000000E+01 0. -1.
        -13    1    6    6    0    0 -0.12843900080E+02  0.63239488563E+01 -0.11053196201E+02  0.18086769879E+02  0.00000000000E+00 0.  1.
         14    1    6    6    0    0 -0.76555053738E+02  0.50274348280E+02  0.14129632507E+03  0.16838300931E+03  0.00000000000E+00 0. -1.
         -5    1    3    3    0  503  0.29130556358E+02 -0.15739941008E+03  0.24421183435E+03  0.29203539793E+03  0.47000000000E+01 0.  1.
         11    1    4    4    0    0  0.61756411299E+02 -0.39309851752E+02  0.11115533321E+03  0.13309630679E+03  0.00000000000E+00 0. -1.
        -12    1    4    4    0    0  0.82264607643E+01 -0.85033841022E+01 -0.14591191810E+02  0.18785235594E+02  0.00000000000E+00 0.  1.
</event>
<event>
12    1  0.8494789E-002  0.1943844E+03  0.7818608E-02  0.1154617E+00
         21   -1    0    0  503  502  0.00000000000E+00  0.00000000000E+00  0.24048664291E+03  0.24048664291E+03  0.00000000000E+00 0. -1.
         21   -1    0    0  501  503 -0.00000000000E+00 -0.00000000000E+00 -0.15702313164E+03  0.15702313164E+03  0.00000000000E+00 0. -1.
          6    2    1    2  501    0  0.59526684557E+02 -0.67489804099E+02  0.46536762820E+02  0.19964905366E+03  0.17203422479E+03 0.  0.
         24    2    3    3    0    0  0.19157716154E+02 -0.80835478855E+02 -0.24857586018E+02  0.11642043063E+03  0.77681557373E+02 0.  0.
         -6    2    1    2    0  502 -0.59526684557E+02  0.67489804099E+02  0.36926748453E+02  0.19786072090E+03  0.17229910125E+03 0.  0.
        -24    2    5    5    0    0 -0.57813524177E+02 -0.20143509673E+02  0.42030578998E+02  0.10993648256E+03  0.81063531053E+02 0.  0.
          5    1    3    3  501    0  0.40368968403E+02  0.13345674756E+02  0.71394348838E+02  0.83228623024E+02  0.47000000000E+01 0. -1.
        -11    1    4    4    0    0  0.10374527695E+02  0.13863924017E+02 -0.10462787970E+02  0.20231390119E+02  0.00000000000E+00 0.  1.
         12    1    4    4    0    0  0.87831884595E+01 -0.94699402873E+02 -0.14394798048E+02  0.96189040513E+02  0.00000000000E+00 0. -1.
         -5    1    5    5    0  502 -0.17131603799E+01  0.87633313772E+02 -0.51038305450E+01  0.87924238338E+02  0.47000000000E+01 0.  1.
         11    1    6    6    0    0 -0.29190866575E+02 -0.32596366031E+02  0.59738284418E+02  0.74049256546E+02  0.00000000000E+00 0. -1.
        -12    1    6    6    0    0 -0.28622657602E+02  0.12452856358E+02 -0.17707705420E+02  0.35887226013E+02  0.00000000000E+00 0.  1.
</event>
<event>
12    1  0.8494789E-002  0.1904847E+03  0.7818608E-02  0.1158211E+00
         21   -1    0    0  503  502  0.00000000000E+00  0.00000000000E+00  0.59058621461E+02  0.59058621461E+02  0.00000000000E+00 0.  1.
         21   -1    0    0  501  503 -0.00000000000E+00 -0.00000000000E+00 -0.73201714030E+03  0.73201714030E+03  0.00000000000E+00 0.  1.
          6    2    1    2  501    0 -0.26245050055E+02 -0.76871494456E+02 -0.17551665717E+03  0.25840997276E+03  0.17138141021E+03 0.  0.
         24    2    3    3    0    0 -0.71948333760E+02 -0.90660501308E+02 -0.12402077826E+03  0.18803353924E+03  0.81114543756E+02 0.  0.
         -6    2    1    2    0  502  0.26245050055E+02  0.76871494456E+02 -0.49744186166E+03  0.53266578899E+03  0.17229743967E+03 0.  0.
        -24    2    5    5    0    0  0.52310271382E+02 -0.46912236497E+01 -0.19208161285E+03  0.21549258031E+03  0.82360998684E+02 0.  0.
          5    1    3    3  501    0  0.45703283705E+02  0.13789006852E+02 -0.51495878907E+02  0.70376433526E+02  0.47000000000E+01 0. -1.
        -13    1    4    4    0    0 -0.59207867185E+02 -0.10123979749E+03 -0.12504841720E+03  0.17144146167E+03  0.00000000000E+00 0.  1.
         14    1    4    4    0    0 -0.12740466575E+02  0.10579296186E+02  0.10276389394E+01  0.16592077571E+02  0.00000000000E+00 0. -1.
         -5    1    5    5    0  502 -0.26065221327E+02  0.81562718106E+02 -0.30536024882E+03  0.31717320868E+03  0.47000000000E+01 0.  1.
         13    1    6    6    0    0 -0.98161739999E+01 -0.88179712204E+00 -0.11937980906E+03  0.11978594929E+03  0.00000000000E+00 0. -1.
        -14    1    6    6    0    0  0.62126445382E+02 -0.38094265277E+01 -0.72701803791E+02  0.95706631018E+02  0.00000000000E+00 0.  1.
</event>
<event>
12    1  0.8494789E-002  0.1766442E+03  0.7818608E-02  0.1171270E+00
         21   -1    0    0  503  502  0.00000000000E+00  0.00000000000E+00  0.66818098754E+03  0.66818098754E+03  0.00000000000E+00 0. -1.
         21   -1    0    0  501  503 -0.00000000000E+00 -0.00000000000E+00 -0.70669939536E+02  0.70669939536E+02  0.00000000000E+00 0. -1.
          6    2    1    2  501    0 -0.12699186024E+02  0.34690769570E+02  0.83148238011E+02  0.19523529443E+03  0.17273815991E+03 0.  0.
         24    2    3    3    0    0 -0.34758817305E+02 -0.10203363939E+02 -0.11777816093E+02  0.87833449458E+02  0.79143628143E+02 0.  0.
         -6    2    1    2    0  502  0.12699186024E+02 -0.34690769570E+02  0.51436281000E+03  0.54361563265E+03  0.17200039806E+03 0.  0.
        -24    2    5    5    0    0  0.26975854884E+02 -0.23436222989E+02  0.13266269843E+03  0.16145394793E+03  0.84799955510E+02 0.  0.
          5    1    3    3  501    0  0.22059631281E+02  0.44894133508E+02  0.94926054104E+02  0.10740184497E+03  0.47000000000E+01 0. -1.
        -13    1    4    4    0    0  0.24481871719E+02 -0.11649925961E+02  0.13212781598E+01  0.27144586822E+02  0.00000000000E+00 0.  1.
         14    1    4    4    0    0 -0.59240689025E+02  0.14465620228E+01 -0.13099094253E+02  0.60688862636E+02  0.00000000000E+00 0. -1.
         -5    1    5    5    0  502 -0.14276668860E+02 -0.11254546581E+02  0.38170011157E+03  0.38216168471E+03  0.47000000000E+01 0.  1.
         11    1    6    6    0    0 -0.22375603966E+02 -0.33759902074E+02  0.46894856745E+02  0.61963910707E+02  0.00000000000E+00 0. -1.
        -12    1    6    6    0    0  0.49351458851E+02  0.10323679085E+02  0.85767841684E+02  0.99490037228E+02  0.00000000000E+00 0.  1.
</event>
<event>
12    1  0.8494789E-002  0.1862058E+03  0.7818608E-02  0.1162304E+00
         21   -1    0    0  503  502  0.00000000000E+00  0.00000000000E+00  0.16277488889E+03  0.16277488889E+03  0.00000000000E+00 0. -1.
         21   -1    0    0  501  503 -0.00000000000E+00 -0.00000000000E+00 -0.27403842085E+03  0.27403842085E+03  0.00000000000E+00 0. -1.
          6    2    1    2  501    0 -0.59679824225E+02  0.36726066989E+02  0.48794586219E+02  0.19249289895E+03  0.17251701100E+03 0.  0.
         24    2    3    3    0    0 -0.88876509661E+02  0.59292692731E+02  0.13362374896E+02  0.14111945603E+03  0.91222203582E+02 0.  0.
         -6    2    1    2    0  502  0.59679824225E+02 -0.36726066989E+02 -0.16005811819E+03  0.24432041079E+03  0.17077287992E+03 0.  0.
        -24    2    5    5    0    0  0.39804190659E+02 -0.91705983398E+02 -0.11449702597E+03  0.17005241538E+03  0.76248895320E+02 0.  0.
          5    1    3    3  501    0  0.29196685436E+02 -0.22566625742E+02  0.35432211323E+02  0.51373442916E+02  0.47000000000E+01 0. -1.
        -11    1    4    4    0    0 -0.61710661898E+02  0.80897002086E+02 -0.49654694927E+01  0.10186847709E+03  0.00000000000E+00 0.  1.
         12    1    4    4    0    0 -0.27165847763E+02 -0.21604309355E+02  0.18327844389E+02  0.39250978934E+02  0.00000000000E+00 0. -1.
         -5    1    5    5    0  502  0.19875633566E+02  0.54979916409E+02 -0.45561092222E+02  0.74267995411E+02  0.47000000000E+01 0.  1.
         13    1    6    6    0    0  0.26858635462E+02 -0.77558167735E+01 -0.67306915091E+02  0.72881820860E+02  0.00000000000E+00 0. -1.
        -14    1    6    6    0    0  0.12945555197E+02 -0.83950166625E+02 -0.47190110875E+02  0.97170594524E+02  0.00000000000E+00 0.  1.
</event>
<event>
12    1  0.8494789E-002  0.2163406E+03  0.7818608E-02  0.1136795E+00
         21   -1    0    0  503  502  0.00000000000E+00  0.00000000000E+00  0.58813331680E+03  0.58813331680E+03  0.00000000000E+00 0.  1.
         21   -1    0    0  501  503 -0.00000000000E+00 -0.00000000000E+00 -0.12681593348E+03  0.12681593348E+03  0.00000000000E+00 0.  1.
          6    2    1    2  501    0 -0.12295628249E+03  0.44822698304E+02  0.12072596832E+02  0.21667721164E+03  0.17226707394E+03 0.  0.
         24    2    3    3    0    0 -0.10967327519E+03  0.14631443187E+02 -0.46389714081E+02  0.14938767334E+03  0.89007667933E+02 0.  0.
         -6    2    1    2    0  502  0.12295628249E+03 -0.44822698304E+02  0.44924478649E+03  0.49827203863E+03  0.17125076526E+03 0.  0.
        -24    2    5    5    0    0  0.18411969545E+02  0.29638652224E+02  0.17142591869E+03  0.19220110012E+03  0.79605068693E+02 0.  0.
          5    1    3    3  501    0 -0.13283007301E+02  0.30191255116E+02  0.58462310913E+02  0.67289538308E+02  0.47000000000E+01 0. -1.
        -11    1    4    4    0    0 -0.71136321340E+02  0.21809612410E+02  0.15620277433E+02  0.76026498501E+02  0.00000000000E+00 0.  1.
         12    1    4    4    0    0 -0.38536953852E+02 -0.71781692222E+01 -0.62009991513E+02  0.73361174834E+02  0.00000000000E+00 0. -1.
         -5    1    5    5    0  502  0.10454431295E+03 -0.74461350527E+02  0.27781886780E+03  0.30607093850E+03  0.47000000000E+01 0.  1.
         13    1    6    6    0    0 -0.24146732359E+02 -0.28584460025E+01  0.19670491999E+02  0.31275607950E+02  0.00000000000E+00 0. -1.
        -14    1    6    6    0    0  0.42558701904E+02  0.32497098226E+02  0.15175542669E+03  0.16092549217E+03  0.00000000000E+00 0.  1.
</event>
<event>
12    1  0.8494789E-002  0.1966159E+03  0.7818608E-02  0.1153002E+00
         21   -1    0    0  503  502  0.00000000000E+00  0.00000000000E+00  0.40565134031E+03  0.40565134031E+03  0.00000000000E+00 0.  1.
         21   -1    0    0  501  503 -0.00000000000E+00 -0.00000000000E+00 -0.15536293134E+03  0.15536293134E+03  0.00000000000E+00 0.  1.
          6    2    1    2  501    0 -0.48894577077E+02 -0.83123750252E+02  0.30110916449E+03  0.35961719709E+03  0.17134048553E+03 0.  0.
         24    2    3    3    0    0 -0.24497773298E+02 -0.10091101048E+03  0.12698517272E+03  0.18283245462E+03  0.80742178817E+02 0.  0.
         -6    2    1    2    0  502  0.48894577077E+02  0.83123750252E+02 -0.50820755516E+02  0.20139707456E+03  0.16934519457E+03 0.  0.
        -24    2    5    5    0    0  0.77027767627E+02  0.42950731699E+02  0.15055282348E+02  0.11913474907E+03  0.78666286105E+02 0.  0.
          5    1    3    3  501    0 -0.24396803779E+02  0.17787260223E+02  0.17412399176E+03  0.17678474247E+03  0.47000000000E+01 0. -1.
        -13    1    4    4    0    0  0.65323307639E+01 -0.43430758369E+02  0.10515807821E+03  0.11396106147E+03  0.00000000000E+00 0.  1.
         14    1    4    4    0    0 -0.31030104062E+02 -0.57480252107E+02  0.21827094512E+02  0.68871393156E+02  0.00000000000E+00 0. -1.
         -5    1    5    5    0  502 -0.28133190550E+02  0.40173018553E+02 -0.65876037864E+02  0.82262325489E+02  0.47000000000E+01 0.  1.
         13    1    6    6    0    0  0.46972856724E+02  0.29555608956E+02  0.47407492873E+02  0.72989407931E+02  0.00000000000E+00 0. -1.
        -14    1    6    6    0    0  0.30054910903E+02  0.13395122743E+02 -0.32352210525E+02  0.46145341136E+02  0.00000000000E+00 0.  1.
</event>
<event>
12    1  0.8494789E-002  0.2298284E+03  0.7818608E-02  0.1126770E+00
         21   -1    0    0  503  502  0.00000000000E+00  0.00000000000E+00  0.10752376062E+04  0.10752376062E+04  0.00000000000E+00 0. -1.
         21   -1    0    0  501  503 -0.00000000000E+00 -0.00000000000E+00 -0.10571574815E+03  0.10571574815E+03  0.00000000000E+00 0. -1.
          6    2    1    2  501    0  0.15293051482E+03 -0.83137604839E+01  0.52721586390E+02  0.23579795089E+03  0.17135999239E+03 0.  0.
         24    2    3    3    0    0  0.14842225074E+03 -0.58030355691E+02  0.38269913152E+02  0.18361552910E+03  0.82785201439E+02 0.  0.
         -6    2    1    2    0  502 -0.15293051482E+03  0.83137604839E+01  0.91680027163E+03  0.94515540342E+03  0.17128671165E+03 0.  0.
        -24    2    5    5    0    0 -0.80763035172E+02 -0.27976405554E+02  0.76301424727E+03  0.77138154878E+03  0.74386861349E+02 0.  0.
          5    1    3    3  501    0  0.45082640814E+01  0.49716595207E+02  0.14451673238E+02  0.52182421785E+02  0.47000000000E+01 0. -1.
        -13    1    4    4    0    0 -0.53928640975E+01  0.44288273567E+01 -0.86364070848E+01  0.11103378867E+02  0.00000000000E+00 0.  1.
         14    1    4    4    0    0  0.15381511484E+03 -0.62459183048E+02  0.46906320237E+02  0.17251215023E+03  0.00000000000E+00 0. -1.
         -5    1    5    5    0  502 -0.72167479651E+02  0.36290166038E+02  0.15378602435E+03  0.17377385464E+03  0.47000000000E+01 0.  1.
         13    1    6    6    0    0 -0.36717108473E+02 -0.11654948258E+02  0.61244710269E+03  0.61365742680E+03  0.00000000000E+00 0. -1.
        -14    1    6    6    0    0 -0.44045926699E+02 -0.16321457296E+02  0.15056714459E+03  0.15772412199E+03  0.00000000000E+00 0.  1.
</event>
<event>
12    1  0.8494789E-002  0.1886164E+03  0.7818608E-02  0.1160225E+00
         21   -1    0    0  503  502  0.00000000000E+00  0.00000000000E+00  0.36695177558E+03  0.36695177558E+03  0.00000000000E+00 0. -1.
         21   -1    0    0  501  503 -0.00000000000E+00 -0.00000000000E+00 -0.15798367621E+03  0.15798367621E+03  0.00000000000E+00 0. -1.
          6    2    1    2  501    0 -0.61081715059E+02 -0.50424909948E+02 -0.59792990027E+02  0.19786702969E+03  0.17117976611E+03 0.  0.
         24    2    3    3    0    0 -0.79478271599E+02  0.17435157840E+02 -0.56657640370E+02  0.12733092184E+03  0.79889267488E+02 0.  0.
         -6    2    1    2    0  502  0.61081715059E+02  0.50424909948E+02  0.26876108940E+03  0.32706842210E+03  0.16872338932E+03 0.  0.
        -24    2    5    5    0    0  0.20405394845E+02 -0.17534839394E+02  0.21724283410E+03  0.23246762303E+03  0.78248936454E+02 0.  0.
          5    1    3    3  501    0  0.18396556540E+02 -0.67860067788E+02 -0.31353496569E+01  0.70536107847E+02  0.47000000000E+01 0. -1.
        -13    1    4    4    0    0 -0.13247130165E+02  0.28593756053E+02 -0.50970996663E+02  0.59926053129E+02  0.00000000000E+00 0.  1.
         14    1    4    4    0    0 -0.66231141434E+02 -0.11158598213E+02 -0.56866437072E+01  0.67404868714E+02  0.00000000000E+00 0. -1.
         -5    1    5    5    0  502  0.40676320214E+02  0.67959749341E+02  0.51518255303E+02  0.94600799077E+02  0.47000000000E+01 0.  1.
         11    1    6    6    0    0  0.25242386460E+02 -0.55802540835E+01  0.21802076942E+03  0.21954811138E+03  0.00000000000E+00 0. -1.
        -12    1    6    6    0    0 -0.48369916148E+01 -0.11954585310E+02 -0.77793532418E+00  0.12919511647E+02  0.00000000000E+00 0.  1.
</event>
<event>
12    1  0.8494789E-002  0.2337875E+03  0.7818608E-02  0.1124159E+00
         21   -1    0    0  501  502  0.00000000000E+00  0.00000000000E+00  0.16319230752E+03  0.16319230752E+03  0.00000000000E+00 0. -1.
         21   -1    0    0  502  503 -0.00000000000E+00 -0.00000000000E+00 -0.12626751253E+04  0.12626751253E+04  0.00000000000E+00 0. -1.
         -6    2    1    2    0  503 -0.49338558936E+02  0.15116598080E+03 -0.11615643848E+04  0.11848579796E+04  0.17138017601E+03 0.  0.
        -24    2    3    3    0    0 -0.43048300228E+00  0.73517730111E+02 -0.32546847965E+03  0.34372796393E+03  0.82547804226E+02 0.  0.
          6    2    1    2  501    0  0.49338558936E+02 -0.15116598080E+03  0.62081566928E+02  0.24100945326E+03  0.17013520641E+03 0.  0.
         24    2    5    5    0    0  0.33559351479E+02 -0.18047889638E+03  0.59097628704E+02  0.20725705638E+03  0.75921641119E+02 0.  0.
          5    1    5    5  501    0  0.15779207457E+02  0.29312915581E+02  0.29839382235E+01  0.33752396879E+02  0.47000000000E+01 0. -1.
        -11    1    6    6    0    0  0.21590669017E+02 -0.55813899481E+01  0.13650360372E+00  0.22300841590E+02  0.00000000000E+00 0.  1.
         12    1    6    6    0    0  0.11968682462E+02 -0.17489750644E+03  0.58961125101E+02  0.18495621479E+03  0.00000000000E+00 0. -1.
         -5    1    3    3    0  503 -0.48908075933E+02  0.77648250693E+02 -0.83609590510E+03  0.84113001567E+03  0.47000000000E+01 0.  1.
         13    1    4    4    0    0  0.21784812025E+02  0.23204343671E+02 -0.23994009851E+03  0.24204187752E+03  0.00000000000E+00 0. -1.
        -14    1    4    4    0    0 -0.22215295028E+02  0.50313386441E+02 -0.85528381142E+02  0.10168608641E+03  0.00000000000E+00 0.  1.
</event>
<event>
12    1  0.8494789E-002  0.2346466E+03  0.7818608E-02  0.1123999E+00
         21   -1    0    0  501  502  0.00000000000E+00  0.00000000000E+00  0.46811947566E+02  0.46811947566E+02  0.00000000000E+00 0. -1.
         21   -1    0    0  502  503 -0.00000000000E+00 -0.00000000000E+00 -0.11780454946E+04  0.11780454946E+04  0.00000000000E+00 0.  1.
         -6    2    1    2    0  503  0.28779725059E+02 -0.15150269011E+03 -0.63902553359E+03  0.67957974120E+03  0.17231846791E+03 0.  0.
        -24    2    3    3    0    0 -0.21114748111E+02 -0.96296079240E+02 -0.21706074881E+03  0.25107816836E+03  0.78778870807E+02 0.  0.
          6    2    1    2  501    0 -0.28779725059E+02  0.15150269011E+03 -0.49220801340E+03  0.54527770092E+03  0.17685503945E+03 0.  0.
         24    2    5    5    0    0  0.22015532191E+02  0.13744976152E+03 -0.45118692071E+03  0.47832650223E+03  0.76481924091E+02 0.  0.
          5    1    5    5  501    0 -0.50795257250E+02  0.14052928598E+02 -0.41021092689E+02  0.66951198695E+02  0.47000000000E+01 0. -1.
        -13    1    6    6    0    0  0.25387434466E+02  0.82806403423E+02 -0.37270368647E+03  0.38263489149E+03  0.00000000000E+00 0.  1.
         14    1    6    6    0    0 -0.33719022750E+01  0.54643358094E+02 -0.78483234247E+02  0.95691610743E+02  0.00000000000E+00 0. -1.
         -5    1    3    3    0  503  0.49894473171E+02 -0.55206610874E+02 -0.42196478478E+03  0.42850157285E+03  0.47000000000E+01 0.  1.
         13    1    4    4    0    0 -0.94307780365E+01 -0.97643336866E+02 -0.21822437828E+03  0.23925935736E+03  0.00000000000E+00 0. -1.
        -14    1    4    4    0    0 -0.11683970075E+02  0.13472576261E+01  0.11636294682E+01  0.11818810996E+02  0.00000000000E+00 0.  1.
</event>
<event>
12    1  0.8494789E-002  0.1790623E+03  0.7818608E-02  0.1170016E+00
         21   -1    0    0  501  502  0.00000000000E+00  0.00000000000E+00  0.24432001191E+03  0.24432001191E+03  0.00000000000E+00 0. -1.
         21   -1    0    0  502  503 -0.00000000000E+00 -0.00000000000E+00 -0.12747218730E+03  0.12747218730E+03  0.00000000000E+00 0. -1.
         -6    2    1    2    0  503 -0.12443040505E+02  0.47204032318E+02  0.63501031947E+02  0.18998865361E+03  0.17227959113E+03 0.  0.
        -24    2    3    3    0    0 -0.35057262661E+02  0.91668026796E+02  0.57741741122E+02  0.13955345480E+03  0.80678493272E+02 0.  0.
          6    2    1    2  501    0  0.12443040505E+02 -0.47204032318E+02  0.53346792667E+02  0.18180354559E+03  0.16680407363E+03 0.  0.
         24    2    5    5    0    0  0.33458418581E+02  0.32315949425E+02  0.44729969751E+02  0.98969897546E+02  0.75036551528E+02 0.  0.
          5    1    5    5  501    0 -0.21015378075E+02 -0.79519981742E+02  0.86168229161E+01  0.82833648049E+02  0.47000000000E+01 0. -1.
        -13    1    6    6    0    0  0.48600220394E+02  0.34386962305E+02  0.54596558193E+02  0.80778888118E+02  0.00000000000E+00 0.  1.
         14    1    6    6    0    0 -0.15141801814E+02 -0.20710128802E+01 -0.98665884428E+01  0.18191009428E+02  0.00000000000E+00 0. -1.
         -5    1    3    3    0  503  0.22614222156E+02 -0.44463994478E+02  0.57592908244E+01  0.50435198814E+02  0.47000000000E+01 0.  1.
         13    1    4    4    0    0  0.18299129687E+02  0.10295869189E+02 -0.76165892534E+01  0.22335521071E+02  0.00000000000E+00 0. -1.
        -14    1    4    4    0    0 -0.53356392348E+02  0.81372157606E+02  0.65358330376E+02  0.11721793373E+03  0.00000000000E+00 0.  1.
</event>
<event>
12    1  0.8494789E-002  0.3775215E+03  0.7818608E-02  0.1052385E+00
         21   -1    0    0  503  502  0.00000000000E+00  0.00000000000E+00  0.11438839544E+03  0.11438839544E+03  0.00000000000E+00 0.  1.
         21   -1    0    0  501  503 -0.00000000000E+00 -0.00000000000E+00 -0.14800142606E+04  0.14800142606E+04  0.00000000000E+00 0. -1.
          6    2    1    2  501    0 -0.14874392051E+03  0.29591547998E+03 -0.34915655008E+03  0.51009072217E+03  0.16909028120E+03 0.  0.
         24    2    3    3    0    0 -0.59187612655E+01  0.89516097721E+02 -0.99058364079E+02  0.15573084330E+03  0.79946060403E+02 0.  0.
         -6    2    1    2    0  502  0.14874392051E+03 -0.29591547998E+03 -0.10164693151E+04  0.10843119339E+04  0.18119540904E+03 0.  0.
        -24    2    5    5    0    0  0.35957000398E+02 -0.99869455740E+02 -0.17995713518E+03  0.21774996258E+03  0.61348688933E+02 0.  0.
          5    1    3    3  501    0 -0.14282515925E+03  0.20639938226E+03 -0.25009818600E+03  0.35435987887E+03  0.47000000000E+01 0. -1.
        -11    1    4    4    0    0 -0.12801099956E+02  0.43142562296E+02  0.12377640653E+01  0.45018672808E+02  0.00000000000E+00 0.  1.
         12    1    4    4    0    0  0.68823386905E+01  0.46373535425E+02 -0.10029612814E+03  0.11071217049E+03  0.00000000000E+00 0. -1.
         -5    1    5    5    0  502  0.11278692011E+03 -0.19604602424E+03 -0.83651217993E+03  0.86656197133E+03  0.47000000000E+01 0.  1.
         11    1    6    6    0    0  0.34159451164E+02 -0.33886469853E+02 -0.11710705579E+03  0.12660656957E+03  0.00000000000E+00 0. -1.
        -12    1    6    6    0    0  0.17975492348E+01 -0.65982985887E+02 -0.62850079394E+02  0.91143393011E+02  0.00000000000E+00 0.  1.
</event>
<event>
12    1  0.8494789E-002  0.1876986E+03  0.7818608E-02  0.1160783E+00
         21   -1    0    0  501  502  0.00000000000E+00  0.00000000000E+00  0.86616739265E+02  0.86616739265E+02  0.00000000000E+00 0.  1.
         21   -1    0    0  502  503 -0.00000000000E+00 -0.00000000000E+00 -0.45815797475E+03  0.45815797475E+03  0.00000000000E+00 0. -1.
         -6    2    1    2    0  503  0.54571873940E+02 -0.52757051287E+02 -0.27935405764E+03  0.33655524859E+03  0.17166639144E+03 0.  0.
        -24    2    3    3    0    0 -0.78025453079E+01  0.66838419102E+01 -0.21470173969E+03  0.22873224466E+03  0.78205174165E+02 0.  0.
          6    2    1    2  501    0 -0.54571873940E+02  0.52757051287E+02 -0.92187177841E+02  0.20821946542E+03  0.17057395503E+03 0.  0.
         24    2    5    5    0    0 -0.58210829357E+02  0.55114170678E+02 -0.12867498552E+03  0.17117559794E+03  0.79484344168E+02 0.  0.
          5    1    5    5  501    0  0.36389554167E+01 -0.23571193910E+01  0.36487807678E+02  0.37043867475E+02  0.47000000000E+01 0. -1.
        -11    1    6    6    0    0 -0.12397845101E+02  0.26582424627E+02  0.23945020208E+01  0.29428990845E+02  0.00000000000E+00 0.  1.
         12    1    6    6    0    0 -0.45812984256E+02  0.28531746051E+02 -0.13106948754E+03  0.14174660710E+03  0.00000000000E+00 0. -1.
         -5    1    3    3    0  503  0.62374419248E+02 -0.59440893197E+02 -0.64652317949E+02  0.10782300393E+03  0.47000000000E+01 0.  1.
         13    1    4    4    0    0  0.23750969992E+02  0.31592576743E+00 -0.17936927930E+03  0.18093520039E+03  0.00000000000E+00 0. -1.
        -14    1    4    4    0    0 -0.31553515300E+02  0.63679161428E+01 -0.35332460395E+02  0.47797044274E+02  0.00000000000E+00 0.  1.
</event>
<event>
12    1  0.8494789E-002  0.1932918E+03  0.7818608E-02  0.1155594E+00
         21   -1    0    0  503  502  0.00000000000E+00  0.00000000000E+00  0.52188364880E+03  0.52188364880E+03  0.00000000000E+00 0. -1.
         21   -1    0    0  501  503 -0.00000000000E+00 -0.00000000000E+00 -0.10069095215E+03  0.10069095215E+03  0.00000000000E+00 0. -1.
          6    2    1    2  501    0  0.24757698396E+02  0.84153676161E+02  0.42798991395E+02  0.19767047861E+03  0.17189263978E+03 0.  0.
         24    2    3    3    0    0 -0.19438299707E+02 -0.67892664194E+01 -0.96661214798E+01  0.83659149693E+02  0.80507625656E+02 0.  0.
         -6    2    1    2    0  502 -0.24757698396E+02 -0.84153676161E+02  0.37839370525E+03  0.42490412234E+03  0.17224091316E+03 0.  0.
        -24    2    5    5    0    0 -0.63747167500E+02 -0.58818567038E+01  0.22851636036E+03  0.25131850965E+03  0.82722238460E+02 0.  0.
          5    1    3    3  501    0  0.44195998102E+02  0.90942942581E+02  0.52465112875E+02  0.11401132892E+03  0.47000000000E+01 0. -1.
        -13    1    4    4    0    0 -0.19703755222E+02 -0.42053248004E+02  0.20866857725E+01  0.46487287456E+02  0.00000000000E+00 0.  1.
         14    1    4    4    0    0  0.26545551531E+00  0.35263981584E+02 -0.11752807252E+02  0.37171862237E+02  0.00000000000E+00 0. -1.
         -5    1    5    5    0  502  0.38989469105E+02 -0.78271819458E+02  0.14987734489E+03  0.17358561269E+03  0.47000000000E+01 0.  1.
         13    1    6    6    0    0 -0.22526733863E+02 -0.41523824660E+02  0.13570158273E+03  0.14368925258E+03  0.00000000000E+00 0. -1.
        -14    1    6    6    0    0 -0.41220433638E+02  0.35641967956E+02  0.92814777633E+02  0.10762925706E+03  0.00000000000E+00 0.  1.
</event>
<event>
12    1  0.8494789E-002  0.6074613E+03  0.7818608E-02  0.9890079E-01
         21   -1    0    0  503  502  0.00000000000E+00  0.00000000000E+00  0.15764316563E+04  0.15764316563E+04  0.00000000000E+00 0.  1.
         21   -1    0    0  501  503 -0.00000000000E+00 -0.00000000000E+00 -0.24700266998E+03  0.24700266998E+03  0.00000000000E+00 0. -1.
          6    2    1    2  501    0 -0.53088427648E+03 -0.23951277149E+03  0.87342874983E+03  0.10638650608E+04  0.17241404758E+03 0.  0.
         24    2    3    3    0    0 -0.22181176255E+03 -0.15872626138E+03  0.46970373730E+03  0.54901726305E+03  0.80024185347E+02 0.  0.
         -6    2    1    2    0  502  0.53088427648E+03  0.23951277149E+03  0.45600023652E+03  0.75956926554E+03  0.17264058248E+03 0.  0.
        -24    2    5    5    0    0  0.53769853696E+03  0.24572998024E+03  0.45083294583E+03  0.74799866816E+03  0.82150609834E+02 0.  0.
          5    1    3    3  501    0 -0.30907251393E+03 -0.80786510107E+02  0.40372501254E+03  0.51484779774E+03  0.47000000000E+01 0. -1.
        -11    1    4    4    0    0 -0.13457585177E+03 -0.51228111243E+02  0.27036025560E+03  0.30631625336E+03  0.00000000000E+00 0.  1.
         12    1    4    4    0    0 -0.87235910779E+02 -0.10749815014E+03  0.19934348169E+03  0.24270100969E+03  0.00000000000E+00 0. -1.
         -5    1    5    5    0  502 -0.68142604758E+01 -0.62172087495E+01  0.51672906889E+01  0.11570597371E+02  0.47000000000E+01 0.  1.
         13    1    6    6    0    0  0.38798127987E+03  0.17307393445E+03  0.36824168784E+03  0.56221526214E+03  0.00000000000E+00 0. -1.
        -14    1    6    6    0    0  0.14971725708E+03  0.72656045788E+02  0.82591257992E+02  0.18578340603E+03  0.00000000000E+00 0.  1.
</event>
<event>
12    1  0.8494789E-002  0.1885935E+03  0.7818608E-02  0.1159772E+00
         21   -1    0    0  501  502  0.00000000000E+00  0.00000000000E+00  0.39793098356E+03  0.39793098356E+03  0.00000000000E+00 0. -1.
         21   -1    0    0  502  503 -0.00000000000E+00 -0.00000000000E+00 -0.14307238003E+03  0.14307238003E+03  0.00000000000E+00 0. -1.
         -6    2    1    2    0  503 -0.69688207588E+01  0.79380552227E+02 -0.38361564617E+02  0.19245548510E+03  0.17093176290E+03 0.  0.
        -24    2    3    3    0    0  0.98547010074E+01  0.28063806143E+02  0.43644761153E+02  0.94152042738E+02  0.77942604706E+02 0.  0.
          6    2    1    2  501    0  0.69688207588E+01 -0.79380552227E+02  0.29322016815E+03  0.34854787849E+03  0.17075631777E+03 0.  0.
         24    2    5    5    0    0 -0.25962256352E+02 -0.97074851804E+02  0.13514360670E+03  0.18604300670E+03  0.79060991026E+02 0.  0.
          5    1    5    5  501    0  0.32931077110E+02  0.17694299577E+02  0.15807656145E+03  0.16250487180E+03  0.47000000000E+01 0. -1.
        -13    1    6    6    0    0 -0.49039564395E+02 -0.66187407795E+02  0.61097748391E+02  0.10256016130E+03  0.00000000000E+00 0.  1.
         14    1    6    6    0    0  0.23077308043E+02 -0.30887444009E+02  0.74045858305E+02  0.83482845399E+02  0.00000000000E+00 0. -1.
         -5    1    3    3    0  503 -0.16823521766E+02  0.51316746084E+02 -0.82006325770E+02  0.98303442358E+02  0.47000000000E+01 0.  1.
         13    1    4    4    0    0 -0.21917319108E+02  0.38577367372E+02  0.76860994811E+01  0.45029526707E+02  0.00000000000E+00 0. -1.
        -14    1    4    4    0    0  0.31772020116E+02 -0.10513561229E+02  0.35958661672E+02  0.49122516031E+02  0.00000000000E+00 0.  1.
</event>
<event>
12    1  0.8494789E-002  0.1750464E+03  0.7818608E-02  0.1173735E+00
         21   -1    0    0  503  502  0.00000000000E+00  0.00000000000E+00  0.38124317946E+03  0.38124317946E+03  0.00000000000E+00 0. -1.
         21   -1    0    0  501  503 -0.00000000000E+00 -0.00000000000E+00 -0.18623677010E+03  0.18623677010E+03  0.00000000000E+00 0. -1.
          6    2    1    2  501    0  0.94791904229E+01 -0.30159388793E+02 -0.11880401011E+03  0.20814972113E+03  0.16796568044E+03 0.  0.
         24    2    3    3    0    0  0.38679749466E+02  0.28277652955E+02 -0.20678305421E+02  0.90173857427E+02  0.73538993553E+02 0.  0.
         -6    2    1    2    0  502 -0.94791904229E+01  0.30159388793E+02  0.31381041947E+03  0.35933022842E+03  0.17216791195E+03 0.  0.
        -24    2    5    5    0    0 -0.13703282286E+02  0.16649617592E+02  0.54204036280E+02  0.99295767124E+02  0.80352859988E+02 0.  0.
          5    1    3    3  501    0 -0.29200559043E+02 -0.58437041748E+02 -0.98125704689E+02  0.11797586371E+03  0.47000000000E+01 0. -1.
        -13    1    4    4    0    0 -0.14908131258E+02  0.12352496285E+02 -0.27737174128E+02  0.33825838803E+02  0.00000000000E+00 0.  1.
         14    1    4    4    0    0  0.53587880724E+02  0.15925156669E+02  0.70588687077E+01  0.56348018624E+02  0.00000000000E+00 0. -1.
         -5    1    5    5    0  502  0.42240918633E+01  0.13509771201E+02  0.25960638319E+03  0.26003446130E+03  0.47000000000E+01 0.  1.
         13    1    6    6    0    0 -0.27724028284E+02  0.27632461282E+02  0.66840176384E+02  0.77458271604E+02  0.00000000000E+00 0. -1.
        -14    1    6    6    0    0  0.14020745998E+02 -0.10982843690E+02 -0.12636140104E+02  0.21837495520E+02  0.00000000000E+00 0.  1.
</event>
<event>
12    1  0.8494789E-002  0.2404542E+03  0.7818608E-02  0.1119548E+00
         21   -1    0    0  501  502  0.00000000000E+00  0.00000000000E+00  0.11036199506E+04  0.11036199506E+04  0.00000000000E+00 0.  1.
         21   -1    0    0  502  503 -0.00000000000E+00 -0.00000000000E+00 -0.15277199543E+03  0.15277199543E+03  0.00000000000E+00 0.  1.
         -6    2    1    2    0  503 -0.16181861416E+03  0.41364737223E+02 -0.34097874880E+02  0.24251991225E+03  0.17250199242E+03 0.  0.
        -24    2    3    3    0    0 -0.70660044552E+02  0.73352426064E+02  0.21490432094E+02  0.13096164531E+03  0.79471338003E+02 0.  0.
          6    2    1    2  501    0  0.16181861416E+03 -0.41364737223E+02  0.98494583001E+03  0.10138720338E+04  0.17297949993E+03 0.  0.
         24    2    5    5    0    0  0.56812809008E+02 -0.70309032860E+02  0.47452424447E+03  0.49193690718E+03  0.93046260998E+02 0.  0.
          5    1    5    5  501    0  0.10500580515E+03  0.28944295636E+02  0.51042158554E+03  0.52193512657E+03  0.47000000000E+01 0. -1.
        -13    1    6    6    0    0  0.76827978690E+02 -0.66320065283E+02  0.44228595790E+03  0.45378161920E+03  0.00000000000E+00 0.  1.
         14    1    6    6    0    0 -0.20015169682E+02 -0.39889675769E+01  0.32238286567E+02  0.38155287975E+02  0.00000000000E+00 0. -1.
         -5    1    3    3    0  503 -0.91158569609E+02 -0.31987688841E+02 -0.55588306974E+02  0.11155826694E+03  0.47000000000E+01 0.  1.
         11    1    4    4    0    0 -0.61140589496E+02  0.16105636018E+02 -0.11415735027E+02  0.64248596884E+02  0.00000000000E+00 0. -1.
        -12    1    4    4    0    0 -0.95194550567E+01  0.57246790046E+02  0.32906167121E+02  0.66713048421E+02  0.00000000000E+00 0.  1.
</event>
<event>
12    1  0.8494789E-002  0.2522816E+03  0.7818608E-02  0.1112130E+00
         21   -1    0    0  503  502  0.00000000000E+00  0.00000000000E+00  0.66350697698E+03  0.66350697698E+03  0.00000000000E+00 0. -1.
         21   -1    0    0  501  503 -0.00000000000E+00 -0.00000000000E+00 -0.97186423728E+02  0.97186423728E+02  0.00000000000E+00 0. -1.
          6    2    1    2  501    0  0.11789108688E+03  0.14136719304E+03  0.22921011077E+03  0.33963585864E+03  0.17009482638E+03 0.  0.
         24    2    3    3    0    0  0.13835627960E+03  0.15742290483E+03  0.20223315283E+03  0.30186740284E+03  0.79380411442E+02 0.  0.
         -6    2    1    2    0  502 -0.11789108688E+03 -0.14136719304E+03  0.33711044249E+03  0.42105754207E+03  0.17251959792E+03 0.  0.
        -24    2    5    5    0    0 -0.11850385865E+03 -0.16994299339E+03  0.31087094400E+03  0.38197361781E+03  0.79619817642E+02 0.  0.
          5    1    3    3  501    0 -0.20465192725E+02 -0.16055711788E+02  0.26976957936E+02  0.37768455804E+02  0.47000000000E+01 0. -1.
        -13    1    4    4    0    0  0.45541616011E+02  0.53184362162E+01  0.38307856488E+02  0.59747940729E+02  0.00000000000E+00 0.  1.
         14    1    4    4    0    0  0.92814663589E+02  0.15210446861E+03  0.16392529634E+03  0.24211946211E+03  0.00000000000E+00 0. -1.
         -5    1    5    5    0  502  0.61277177451E+00  0.28575800348E+02  0.26239498483E+02  0.39083924258E+02  0.47000000000E+01 0.  1.
         11    1    6    6    0    0 -0.87794442024E+02 -0.15681152890E+03  0.21369944058E+03  0.27922243920E+03  0.00000000000E+00 0. -1.
        -12    1    6    6    0    0 -0.30709416626E+02 -0.13131464487E+02  0.97171503423E+02  0.10275117861E+03  0.00000000000E+00 0.  1.
</event>
<event>
12    1  0.8494789E-002  0.2225000E+03  0.7818608E-02  0.1132689E+00
         21   -1    0    0  503  502  0.00000000000E+00  0.00000000000E+00  0.15774668290E+04  0.15774668290E+04  0.00000000000E+00 0.  1.
         21   -1    0    0  501  503 -0.00000000000E+00 -0.00000000000E+00 -0.34722331124E+02  0.34722331124E+02  0.00000000000E+00 0.  1.
          6    2    1    2  501    0  0.12937312493E+03 -0.48712702299E+02  0.50893766046E+03  0.55544918854E+03  0.17434427436E+03 0.  0.
         24    2    3    3    0    0  0.59711820589E+02 -0.95865355453E+02  0.31817032934E+03  0.34690582460E+03  0.79722172431E+02 0.  0.
         -6    2    1    2    0  502 -0.12937312493E+03  0.48712702299E+02  0.10338068374E+04  0.10567399715E+04  0.16980122976E+03 0.  0.
        -24    2    5    5    0    0  0.27156246034E+01 -0.19600805231E+01  0.34451398557E+03  0.35306256376E+03  0.77149667153E+02 0.  0.
          5    1    3    3  501    0  0.69661304337E+02  0.47152653154E+02  0.19076733112E+03  0.20854336394E+03  0.47000000000E+01 0. -1.
        -11    1    4    4    0    0  0.39430780386E+02 -0.68803068385E+01  0.52647168137E+02  0.66135084311E+02  0.00000000000E+00 0.  1.
         12    1    4    4    0    0  0.20281040203E+02 -0.88985048614E+02  0.26552316120E+03  0.28077074029E+03  0.00000000000E+00 0. -1.
         -5    1    5    5    0  502 -0.13208874953E+03  0.50672782822E+02  0.68929285181E+03  0.70367740779E+03  0.47000000000E+01 0.  1.
         13    1    6    6    0    0 -0.13516075672E+02 -0.32492067779E+02  0.97831489845E+02  0.10396835661E+03  0.00000000000E+00 0. -1.
        -14    1    6    6    0    0  0.16231700275E+02  0.30531987256E+02  0.24668249572E+03  0.24909420715E+03  0.00000000000E+00 0.  1.
</event>
<event>
12    1  0.8494789E-002  0.2195562E+03  0.7818608E-02  0.1136136E+00
         21   -1    0    0  503  502  0.00000000000E+00  0.00000000000E+00  0.29339025594E+03  0.29339025594E+03  0.00000000000E+00 0. -1.
         21   -1    0    0  501  503 -0.00000000000E+00 -0.00000000000E+00 -0.19486295036E+03  0.19486295036E+03  0.00000000000E+00 0.  1.
          6    2    1    2  501    0 -0.68678752843E+02 -0.11502431526E+03 -0.57562493085E+02  0.22697660203E+03  0.17394704098E+03 0.  0.
         24    2    3    3    0    0 -0.91155583745E+02 -0.11353786079E+03 -0.30092760294E+01  0.16776882412E+03  0.83289473064E+02 0.  0.
         -6    2    1    2    0  502  0.68678752843E+02  0.11502431526E+03  0.15608979867E+03  0.26127660427E+03  0.16110268308E+03 0.  0.
        -24    2    5    5    0    0 -0.54520424239E+01  0.58575560011E+02  0.31836735270E+02  0.10589722810E+03  0.82096432374E+02 0.  0.
          5    1    3    3  501    0  0.22476830902E+02 -0.14864544717E+01 -0.54553217055E+02  0.59207777913E+02  0.47000000000E+01 0. -1.
        -13    1    4    4    0    0 -0.94641573227E+01 -0.32734161543E+02 -0.34641164067E+02  0.48591211692E+02  0.00000000000E+00 0.  1.
         14    1    4    4    0    0 -0.81691426422E+02 -0.80803699242E+02  0.31631888038E+02  0.11917761242E+03  0.00000000000E+00 0. -1.
         -5    1    5    5    0  502  0.74130795266E+02  0.56448755247E+02  0.12425306340E+03  0.15537937617E+03  0.47000000000E+01 0.  1.
         11    1    6    6    0    0 -0.17143380855E+02 -0.51526880986E+01  0.36792500396E+02  0.40916180017E+02  0.00000000000E+00 0. -1.
        -12    1    6    6    0    0  0.11691338432E+02  0.63728248109E+02 -0.49557651263E+01  0.64981048078E+02  0.00000000000E+00 0.  1.
</event>
<event>
12    1  0.8494789E-002  0.1775268E+03  0.7818608E-02  0.1170740E+00
         21   -1    0    0  501  502  0.00000000000E+00  0.00000000000E+00  0.46932478581E+02  0.46932478581E+02  0.00000000000E+00 0. -1.
         21   -1    0    0  502  503 -0.00000000000E+00 -0.00000000000E+00 -0.79898595884E+03  0.79898595884E+03  0.00000000000E+00 0.  1.
         -6    2    1    2    0  503  0.29246894235E+02 -0.32502076320E+02 -0.54828662837E+03  0.57566542982E+03  0.16988435610E+03 0.  0.
        -24    2    3    3    0    0  0.90096675162E+01  0.46904077228E+02 -0.31819396093E+03  0.33137132801E+03  0.79236315453E+02 0.  0.
          6    2    1    2  501    0 -0.29246894235E+02  0.32502076320E+02 -0.20376685189E+03  0.27025300761E+03  0.17205810764E+03 0.  0.
         24    2    5    5    0    0 -0.64000743016E+02  0.46553492697E+02 -0.20336708154E+03  0.23247044386E+03  0.80131233755E+02 0.  0.
          5    1    5    5  501    0  0.34753848781E+02 -0.14051416377E+02 -0.39977035020E+00  0.37782563752E+02  0.47000000000E+01 0. -1.
        -13    1    6    6    0    0 -0.59477713724E+02  0.66793376968E+02 -0.14325618390E+03  0.16888246760E+03  0.00000000000E+00 0.  1.
         14    1    6    6    0    0 -0.45230292925E+01 -0.20239884271E+02 -0.60110897640E+02  0.63587976256E+02  0.00000000000E+00 0. -1.
         -5    1    3    3    0  503  0.20237226719E+02 -0.79406153548E+02 -0.23009266744E+03  0.24429410181E+03  0.47000000000E+01 0.  1.
         11    1    4    4    0    0  0.27730278380E+02  0.23868618685E+01 -0.22197286289E+03  0.22371101293E+03  0.00000000000E+00 0. -1.
        -12    1    4    4    0    0 -0.18720610863E+02  0.44517215360E+02 -0.96221098039E+02  0.10766031508E+03  0.00000000000E+00 0.  1.
</event>
<event>
12    1  0.8494789E-002  0.1755752E+03  0.7818608E-02  0.1172839E+00
         21   -1    0    0  501  502  0.00000000000E+00  0.00000000000E+00  0.74624599111E+02  0.74624599111E+02  0.00000000000E+00 0. -1.
         21   -1    0    0  502  503 -0.00000000000E+00 -0.00000000000E+00 -0.43688431664E+03  0.43688431664E+03  0.00000000000E+00 0. -1.
         -6    2    1    2    0  503  0.26150467918E+02 -0.25178431173E+02 -0.24700435978E+03  0.30148407350E+03  0.16900796565E+03 0.  0.
        -24    2    3    3    0    0 -0.34555603223E+02  0.20891245064E+02 -0.94567680384E+02  0.13099456248E+03  0.81154145871E+02 0.  0.
          6    2    1    2  501    0 -0.26150467918E+02  0.25178431173E+02 -0.11525535775E+03  0.21002484225E+03  0.17178136250E+03 0.  0.
         24    2    5    5    0    0 -0.42866377900E+01  0.52143172295E+02 -0.13791562077E+03  0.16830312306E+03  0.81042810292E+02 0.  0.
          5    1    5    5  501    0 -0.21863830128E+02 -0.26964741122E+02  0.22660263022E+02  0.41721719187E+02  0.47000000000E+01 0. -1.
        -11    1    6    6    0    0  0.35825936927E+02  0.13565384143E+02 -0.38147821636E+02  0.54062683056E+02  0.00000000000E+00 0.  1.
         12    1    6    6    0    0 -0.40112574717E+02  0.38577788152E+02 -0.99767799132E+02  0.11424044001E+03  0.00000000000E+00 0. -1.
         -5    1    3    3    0  503  0.60706071141E+02 -0.46069676236E+02 -0.15243667940E+03  0.17048951102E+03  0.47000000000E+01 0.  1.
         13    1    4    4    0    0 -0.56655693915E+02  0.40073978836E+00 -0.78590092780E+02  0.96883594733E+02  0.00000000000E+00 0. -1.
        -14    1    4    4    0    0  0.22100090692E+02  0.20490505275E+02 -0.15977587604E+02  0.34110967748E+02  0.00000000000E+00 0.  1.
</event>
<event>
12    1  0.8494789E-002  0.1851091E+03  0.7818608E-02  0.1163056E+00
         21   -1    0    0  501  502  0.00000000000E+00  0.00000000000E+00  0.94687092324E+02  0.94687092324E+02  0.00000000000E+00 0.  1.
         21   -1    0    0  502  503 -0.00000000000E+00 -0.00000000000E+00 -0.50702276309E+03  0.50702276309E+03  0.00000000000E+00 0.  1.
         -6    2    1    2    0  503  0.53091794220E+01 -0.67540933707E+02 -0.36782214567E+03  0.41177482076E+03  0.17226551325E+03 0.  0.
        -24    2    3    3    0    0  0.44405466343E+02 -0.97052700849E+02 -0.29014335457E+03  0.31982076355E+03  0.81921196366E+02 0.  0.
          6    2    1    2  501    0 -0.53091794220E+01  0.67540933707E+02 -0.44513525095E+02  0.18993503465E+03  0.17176698856E+03 0.  0.
         24    2    5    5    0    0  0.12019448788E+02  0.37720942937E+02 -0.94380522887E+02  0.12912121489E+03  0.78722730831E+02 0.  0.
          5    1    5    5  501    0 -0.17328628210E+02  0.29819990769E+02  0.49866997792E+02  0.60813819761E+02  0.47000000000E+01 0. -1.
        -11    1    6    6    0    0  0.19606838173E+02  0.46028329321E+02 -0.19976074754E+02  0.53870945470E+02  0.00000000000E+00 0.  1.
         12    1    6    6    0    0 -0.75873893847E+01 -0.83073863835E+01 -0.74404448132E+02  0.75250269422E+02  0.00000000000E+00 0. -1.
         -5    1    3    3    0  503 -0.39096286921E+02  0.29511767142E+02 -0.77678791106E+02  0.91954057216E+02  0.47000000000E+01 0.  1.
         11    1    4    4    0    0 -0.20149027219E+01  0.50531423815E+01 -0.91791593441E+02  0.91952654705E+02  0.00000000000E+00 0. -1.
        -12    1    4    4    0    0  0.46420369065E+02 -0.10210584323E+03 -0.19835176113E+03  0.22786810884E+03  0.00000000000E+00 0.  1.
</event>
<event>
12    1  0.8494789E-002  0.2235867E+03  0.7818608E-02  0.1132171E+00
         21   -1    0    0  501  502  0.00000000000E+00  0.00000000000E+00  0.55410204345E+02  0.55410204345E+02  0.00000000000E+00 0.  1.
         21   -1    0    0  502  503 -0.00000000000E+00 -0.00000000000E+00 -0.26300044941E+04  0.26300044941E+04  0.00000000000E+00 0.  1.
         -6    2    1    2    0  503  0.67966367273E+02  0.11589357084E+03 -0.23770108596E+04  0.23870353333E+04  0.17235518309E+03 0.  0.
        -24    2    3    3    0    0 -0.31679864331E+02  0.77523599870E+02 -0.12067760367E+04  0.12119296969E+04  0.73835391677E+02 0.  0.
          6    2    1    2  501    0 -0.67966367273E+02 -0.11589357084E+03 -0.19758343019E+03  0.29837936514E+03  0.17871845683E+03 0.  0.
         24    2    5    5    0    0 -0.70224535574E+02 -0.14657218669E+03 -0.12677410058E+03  0.22103385490E+03  0.79808527901E+02 0.  0.
          5    1    5    5  501    0  0.22581683008E+01  0.30678615851E+02 -0.70809329610E+02  0.77345510241E+02  0.47000000000E+01 0. -1.
        -13    1    6    6    0    0 -0.54159911454E+02 -0.13666759471E+03 -0.13578344915E+03  0.20012114460E+03  0.00000000000E+00 0.  1.
         14    1    6    6    0    0 -0.16064624120E+02 -0.99045919771E+01  0.90093485695E+01  0.20912710298E+02  0.00000000000E+00 0. -1.
         -5    1    3    3    0  503  0.99646231603E+02  0.38369970965E+02 -0.11702348228E+04  0.11751056364E+04  0.47000000000E+01 0.  1.
         13    1    4    4    0    0 -0.39747904822E+02  0.12857415132E+02 -0.31211272188E+03  0.31489611020E+03  0.00000000000E+00 0. -1.
        -14    1    4    4    0    0  0.80680404918E+01  0.64666184738E+02 -0.89466331485E+03  0.89703358670E+03  0.00000000000E+00 0.  1.
</event>
<event>
12    1  0.8494789E-002  0.2174751E+03  0.7818608E-02  0.1135825E+00
         21   -1    0    0  503  502  0.00000000000E+00  0.00000000000E+00  0.16665024886E+03  0.16665024886E+03  0.00000000000E+00 0. -1.
         21   -1    0    0  501  503 -0.00000000000E+00 -0.00000000000E+00 -0.28366358035E+03  0.28366358035E+03  0.00000000000E+00 0. -1.
          6    2    1    2  501    0  0.12526294783E+03 -0.48976912995E+02 -0.64130221652E+02  0.22673354379E+03  0.17089725113E+03 0.  0.
         24    2    3    3    0    0  0.41702049664E+02  0.14552746480E+02  0.18865690086E+02  0.92834877994E+02  0.79445307812E+02 0.  0.
         -6    2    1    2    0  502 -0.12526294783E+03  0.48976912995E+02 -0.52883109839E+02  0.22358028543E+03  0.17059301456E+03 0.  0.
        -24    2    5    5    0    0 -0.10773487741E+03  0.41895725851E+02  0.27777558691E+02  0.14060071016E+03  0.75066046087E+02 0.  0.
          5    1    3    3  501    0  0.83560898170E+02 -0.63529659475E+02 -0.82995911738E+02  0.13389866579E+03  0.47000000000E+01 0. -1.
        -11    1    4    4    0    0  0.48426286783E+02 -0.19415609864E+02  0.24690613645E+02  0.57720858969E+02  0.00000000000E+00 0.  1.
         12    1    4    4    0    0 -0.67242371188E+01  0.33968356345E+02 -0.58249235592E+01  0.35114019025E+02  0.00000000000E+00 0. -1.
         -5    1    5    5    0  502 -0.17528070427E+02  0.70811871440E+01 -0.80660668530E+02  0.82979575270E+02  0.47000000000E+01 0.  1.
         11    1    6    6    0    0 -0.64131071491E+02 -0.15093478730E+02  0.16976989603E+02  0.68035473150E+02  0.00000000000E+00 0. -1.
        -12    1    6    6    0    0 -0.43603805916E+02  0.56989204581E+02  0.10800569088E+02  0.72565237006E+02  0.00000000000E+00 0.  1.
</event>
<event>
12    1  0.8494789E-002  0.1797848E+03  0.7818608E-02  0.1168430E+00
         21   -1    0    0  503  502  0.00000000000E+00  0.00000000000E+00  0.19469449675E+03  0.19469449675E+03  0.00000000000E+00 0. -1.
         21   -1    0    0  501  503 -0.00000000000E+00 -0.00000000000E+00 -0.16443607665E+03  0.16443607665E+03  0.00000000000E+00 0.  1.
          6    2    1    2  501    0  0.16714507038E+02  0.44828085085E+02  0.14349307242E+02  0.17864323092E+03  0.17151842285E+03 0.  0.
         24    2    3    3    0    0 -0.54426048962E+02  0.31881645862E+02  0.28159709936E+02  0.10487734301E+03  0.78915484316E+02 0.  0.
         -6    2    1    2    0  502 -0.16714507038E+02 -0.44828085085E+02  0.15909112856E+02  0.18048734248E+03  0.17330218973E+03 0.  0.
        -24    2    5    5    0    0 -0.20206530065E+01 -0.84109243902E+02  0.49975095597E+02  0.12625174564E+03  0.79771831802E+02 0.  0.
          5    1    3    3  501    0  0.71140555999E+02  0.12946439223E+02 -0.13810402693E+02  0.73765887909E+02  0.47000000000E+01 0. -1.
        -11    1    4    4    0    0  0.19334860893E+02  0.35655820425E-01 -0.11174606812E+01  0.19367158683E+02  0.00000000000E+00 0.  1.
         12    1    4    4    0    0 -0.73760909855E+02  0.31845990042E+02  0.29277170617E+02  0.85510184327E+02  0.00000000000E+00 0. -1.
         -5    1    5    5    0  502 -0.14693854031E+02  0.39281158817E+02 -0.34065982741E+02  0.54235596839E+02  0.47000000000E+01 0.  1.
         13    1    6    6    0    0 -0.70575404055E+01 -0.93654273072E+01  0.49981115140E+02  0.51338406441E+02  0.00000000000E+00 0. -1.
        -14    1    6    6    0    0  0.50368873990E+01 -0.74743816595E+02 -0.60195435336E-02  0.74913339200E+02  0.00000000000E+00 0.  1.
</event>
<event>
12    1  0.8494789E-002  0.2290626E+03  0.7818608E-02  0.1127349E+00
         21   -1    0    0  501  502  0.00000000000E+00  0.00000000000E+00  0.12018874074E+03  0.12018874074E+03  0.00000000000E+00 0.  1.
         21   -1    0    0  502  503 -0.00000000000E+00 -0.00000000000E+00 -0.75743560170E+03  0.75743560170E+03  0.00000000000E+00 0.  1.
         -6    2    1    2    0  503 -0.14051096179E+03  0.54276695699E+02 -0.60435412380E+03  0.64621210477E+03  0.17221175136E+03 0.  0.
        -24    2    3    3    0    0 -0.21935706502E+02  0.46613052419E+02 -0.36156907083E+03  0.37586881459E+03  0.88832544286E+02 0.  0.
          6    2    1    2  501    0  0.14051096179E+03 -0.54276695699E+02 -0.32892737163E+02  0.23141223767E+03  0.17256999017E+03 0.  0.
         24    2    5    5    0    0  0.12621222306E+03  0.89864502878E+01 -0.59567968750E+02  0.16112470286E+03  0.80015907379E+02 0.  0.
          5    1    5    5  501    0  0.14298738738E+02 -0.63263145986E+02  0.26675231587E+02  0.70287534811E+02  0.47000000000E+01 0. -1.
        -11    1    6    6    0    0  0.82613883904E+02  0.34504387326E+02 -0.64533896711E+02  0.11036408104E+03  0.00000000000E+00 0.  1.
         12    1    6    6    0    0  0.43598339152E+02 -0.25517937038E+02  0.49659279615E+01  0.50760621825E+02  0.00000000000E+00 0. -1.
         -5    1    3    3    0  503 -0.11857525529E+03  0.76636432793E+01 -0.24278505298E+03  0.27034329018E+03  0.47000000000E+01 0.  1.
         11    1    4    4    0    0  0.28500254005E+02  0.38675279517E+02 -0.12642050111E+03  0.13524120979E+03  0.00000000000E+00 0. -1.
        -12    1    4    4    0    0 -0.50435960507E+02  0.79377729020E+01 -0.23514856972E+03  0.24062760480E+03  0.00000000000E+00 0.  1.
</event>
<event>
12    1  0.8494789E-002  0.1836742E+03  0.7818608E-02  0.1168245E+00
         21   -1    0    0  501  502  0.00000000000E+00  0.00000000000E+00  0.12797373568E+04  0.12797373568E+04  0.00000000000E+00 0.  1.
         21   -1    0    0  502  503 -0.00000000000E+00 -0.00000000000E+00 -0.56907300583E+02  0.56907300583E+02  0.00000000000E+00 0.  1.
         -6    2    1    2    0  503  0.30958054792E+02 -0.56498895008E+02  0.92565015842E+02  0.19155284165E+03  0.15483437181E+03 0.  0.
        -24    2    3    3    0    0  0.35645011351E+02 -0.28145720077E+02  0.11984687236E+03  0.15164971163E+03  0.81065491000E+02 0.  0.
          6    2    1    2  501    0 -0.30958054792E+02  0.56498895008E+02  0.11302650404E+04  0.11450918157E+04  0.17200487977E+03 0.  0.
         24    2    5    5    0    0  0.15798317528E+02  0.68054778574E+02  0.10093537443E+04  0.10148561512E+04  0.79101117404E+02 0.  0.
          5    1    5    5  501    0 -0.46756372320E+02 -0.11555883567E+02  0.12091129612E+03  0.13023566458E+03  0.47000000000E+01 0. -1.
        -11    1    6    6    0    0 -0.31044598691E+02  0.19843301798E+02  0.44231656971E+03  0.44384847817E+03  0.00000000000E+00 0.  1.
         12    1    6    6    0    0  0.46842916218E+02  0.48211476777E+02  0.56703717454E+03  0.57100767298E+03  0.00000000000E+00 0. -1.
         -5    1    3    3    0  503 -0.46869565593E+01 -0.28353174930E+02 -0.27281856517E+02  0.39903130021E+02  0.47000000000E+01 0.  1.
         11    1    4    4    0    0 -0.20918462543E+02 -0.26481744391E+02  0.28383902831E+02  0.44096607591E+02  0.00000000000E+00 0. -1.
        -12    1    4    4    0    0  0.56563473894E+02 -0.16639756867E+01  0.91462969529E+02  0.10755310404E+03  0.00000000000E+00 0.  1.
</event>
<event>
12    1  0.8494789E-002  0.3040476E+03  0.7818608E-02  0.1083337E+00
         21   -1    0    0  501  502  0.00000000000E+00  0.00000000000E+00  0.86734299362E+03  0.86734299362E+03  0.00000000000E+00 0.  1.
         21   -1    0    0  502  503 -0.00000000000E+00 -0.00000000000E+00 -0.11427604558E+03  0.11427604558E+03  0.00000000000E+00 0. -1.
         -6    2    1    2    0  503 -0.89832608471E+02  0.23358258504E+03  0.24632732268E+03  0.39066219025E+03  0.17119893521E+03 0.  0.
        -24    2    3    3    0    0  0.11411642242E+02  0.87455104008E+02  0.61439329173E+02  0.13412895818E+03  0.80231947859E+02 0.  0.
          6    2    1    2  501    0  0.89832608471E+02 -0.23358258504E+03  0.50673962537E+03  0.59095684895E+03  0.17266796989E+03 0.  0.
         24    2    5    5    0    0  0.13041851299E+03 -0.17130076708E+03  0.38930943403E+03  0.45189506293E+03  0.79337072925E+02 0.  0.
          5    1    5    5  501    0 -0.40585904521E+02 -0.62281817959E+02  0.11743019133E+03  0.13906178602E+03  0.47000000000E+01 0. -1.
        -13    1    6    6    0    0  0.93472631535E+02 -0.14343074558E+03  0.35552039267E+03  0.39459379269E+03  0.00000000000E+00 0.  1.
         14    1    6    6    0    0  0.36945881457E+02 -0.27870021504E+02  0.33789041362E+02  0.57301270243E+02  0.00000000000E+00 0. -1.
         -5    1    3    3    0  503 -0.10124425071E+03  0.14612748103E+03  0.18488799350E+03  0.25653323207E+03  0.47000000000E+01 0.  1.
         13    1    4    4    0    0  0.82199188010E+01  0.91064706686E+02  0.75934134132E+02  0.11885428303E+03  0.00000000000E+00 0. -1.
        -14    1    4    4    0    0  0.31917234412E+01 -0.36096026780E+01 -0.14494804959E+02  0.15274675146E+02  0.00000000000E+00 0.  1.
</event>
<event>
12    1  0.8494789E-002  0.1938321E+03  0.7818608E-02  0.1155289E+00
         21   -1    0    0  503  502  0.00000000000E+00  0.00000000000E+00  0.22630134240E+03  0.22630134240E+03  0.00000000000E+00 0.  1.
         21   -1    0    0  501  503 -0.00000000000E+00 -0.00000000000E+00 -0.16623350090E+03  0.16623350090E+03  0.00000000000E+00 0.  1.
          6    2    1    2  501    0 -0.28963748761E+02  0.83066936671E+02  0.46379310207E+02  0.19930363068E+03  0.17271908428E+03 0.  0.
         24    2    3    3    0    0 -0.58419935709E+02  0.63741075529E+02 -0.28973239651E+02  0.11598945044E+03  0.71681869390E+02 0.  0.
         -6    2    1    2    0  502  0.28963748761E+02 -0.83066936671E+02  0.13688531287E+02  0.19323121262E+03  0.17149901146E+03 0.  0.
        -24    2    5    5    0    0  0.65626913178E+02 -0.89349942244E+02 -0.26384348875E+02  0.13835326160E+03  0.78455001220E+02 0.  0.
          5    1    3    3  501    0  0.29456186949E+02  0.19325861142E+02  0.75352549858E+02  0.83314180237E+02  0.47000000000E+01 0. -1.
        -11    1    4    4    0    0 -0.39963926529E+02  0.29500193219E+02 -0.51078702308E+02  0.71248934399E+02  0.00000000000E+00 0.  1.
         12    1    4    4    0    0 -0.18456009181E+02  0.34240882310E+02  0.22105462656E+02  0.44740516040E+02  0.00000000000E+00 0. -1.
         -5    1    5    5    0  502 -0.36663164418E+02  0.62830055736E+01  0.40072880162E+02  0.54877951024E+02  0.47000000000E+01 0.  1.
         11    1    6    6    0    0 -0.74633411354E+01  0.26967698923E+01 -0.18993712291E+02  0.20584827795E+02  0.00000000000E+00 0. -1.
        -12    1    6    6    0    0  0.73090254314E+02 -0.92046712137E+02 -0.73906365839E+01  0.11776843380E+03  0.00000000000E+00 0.  1.
</event>
<event>
12    1  0.8494789E-002  0.1805657E+03  0.7818608E-02  0.1167265E+00
         21   -1    0    0  501  502  0.00000000000E+00  0.00000000000E+00  0.93527711963E+02  0.93527711963E+02  0.00000000000E+00 0. -1.
         21   -1    0    0  502  503 -0.00000000000E+00 -0.00000000000E+00 -0.52555483823E+03  0.52555483823E+03  0.00000000000E+00 0. -1.
         -6    2    1    2    0  503 -0.47426460175E+02 -0.27367230884E+02 -0.39567597541E+03  0.43492922640E+03  0.17206312797E+03 0.  0.
        -24    2    3    3    0    0 -0.28875007393E+02 -0.44483970196E+02 -0.39753933382E+03  0.40918624154E+03  0.81137344494E+02 0.  0.
          6    2    1    2  501    0  0.47426460175E+02  0.27367230884E+02 -0.36351150863E+02  0.18415332380E+03  0.17202559707E+03 0.  0.
         24    2    5    5    0    0 -0.18290540334E+02 -0.16672444735E+02 -0.47082009146E+02  0.10418171319E+03  0.89580128925E+02 0.  0.
          5    1    5    5  501    0  0.65717000509E+02  0.44039675619E+02  0.10730858284E+02  0.79971610613E+02  0.47000000000E+01 0. -1.
        -11    1    6    6    0    0 -0.28465422723E+02  0.32114019500E+02 -0.18505205008E+02  0.46733640471E+02  0.00000000000E+00 0.  1.
         12    1    6    6    0    0  0.10174882389E+02 -0.48786464235E+02 -0.28576804138E+02  0.57448072717E+02  0.00000000000E+00 0. -1.
         -5    1    3    3    0  503 -0.18551452781E+02  0.17116739312E+02  0.18633584113E+01  0.25742984861E+02  0.47000000000E+01 0.  1.
         11    1    4    4    0    0 -0.51338263846E+02 -0.41712071228E+02 -0.20711613007E+03  0.21742264270E+03  0.00000000000E+00 0. -1.
        -12    1    4    4    0    0  0.22463256452E+02 -0.27718989689E+01 -0.19042320375E+03  0.19176359884E+03  0.00000000000E+00 0.  1.
</event>
<event>
12    1  0.8494789E-002  0.2027033E+03  0.7818608E-02  0.1147629E+00
         21   -1    0    0  503  502  0.00000000000E+00  0.00000000000E+00  0.15764649313E+04  0.15764649313E+04  0.00000000000E+00 0.  1.
         21   -1    0    0  501  503 -0.00000000000E+00 -0.00000000000E+00 -0.53239029167E+02  0.53239029167E+02  0.00000000000E+00 0.  1.
          6    2    1    2  501    0  0.10432463398E+03 -0.20234358314E+02  0.17911067368E+03  0.27049815995E+03  0.17261391195E+03 0.  0.
         24    2    3    3    0    0  0.54432796692E+02  0.23094421435E+02  0.17768426878E+03  0.20423577836E+03  0.81512404778E+02 0.  0.
         -6    2    1    2    0  502 -0.10432463398E+03  0.20234358314E+02  0.13441152285E+04  0.13592058006E+04  0.17176030476E+03 0.  0.
        -24    2    5    5    0    0 -0.83131363829E+02 -0.27906445706E+02  0.51662639877E+03  0.53003359587E+03  0.79644105122E+02 0.  0.
          5    1    3    3  501    0  0.49891837289E+02 -0.43328779749E+02  0.14264048958E+01  0.66262381586E+02  0.47000000000E+01 0. -1.
        -11    1    4    4    0    0  0.48422259907E+02 -0.32239231627E+01  0.37108438395E+02  0.61091285264E+02  0.00000000000E+00 0.  1.
         12    1    4    4    0    0  0.60105367851E+01  0.26318344598E+02  0.14057583039E+03  0.14314449310E+03  0.00000000000E+00 0. -1.
         -5    1    5    5    0  502 -0.21193270152E+02  0.48140804020E+02  0.82748882972E+03  0.82917220469E+03  0.47000000000E+01 0.  1.
         13    1    6    6    0    0  0.72730379720E+01  0.10480516339E+02  0.19529953927E+02  0.23327181666E+02  0.00000000000E+00 0. -1.
        -14    1    6    6    0    0 -0.90404401801E+02 -0.38386962045E+02  0.49709644485E+03  0.50670641421E+03  0.00000000000E+00 0.  1.
</event>
<event>
12    1  0.8494789E-002  0.2143693E+03  0.7818608E-02  0.1138264E+00
         21   -1    0    0  503  502  0.00000000000E+00  0.00000000000E+00  0.16157550297E+03  0.16157550297E+03  0.00000000000E+00 0.  1.
         21   -1    0    0  501  503 -0.00000000000E+00 -0.00000000000E+00 -0.51087909707E+03  0.51087909707E+03  0.00000000000E+00 0.  1.
          6    2    1    2  501    0  0.12599536570E+03 -0.19702950831E+02 -0.39875913815E+03  0.45245451505E+03  0.17159020798E+03 0.  0.
         24    2    3    3    0    0  0.12560834815E+03 -0.37541455096E+02 -0.40530017873E+03  0.43287806928E+03  0.76995909007E+02 0.  0.
         -6    2    1    2    0  502 -0.12599536570E+03  0.19702950831E+02  0.49455544047E+02  0.22000008499E+03  0.17231119554E+03 0.  0.
        -24    2    5    5    0    0 -0.11437206704E+03 -0.44635692985E+02  0.49712435214E+02  0.15445072837E+03  0.79437941012E+02 0.  0.
          5    1    3    3  501    0  0.38701755386E+00  0.17838504265E+02  0.65410405826E+01  0.19576445768E+02  0.47000000000E+01 0. -1.
        -13    1    4    4    0    0  0.15867388130E+02 -0.17047449089E+02 -0.17932226104E+03  0.18082826889E+03  0.00000000000E+00 0.  1.
         14    1    4    4    0    0  0.10974096002E+03 -0.20494006008E+02 -0.22597791769E+03  0.25204980038E+03  0.00000000000E+00 0. -1.
         -5    1    5    5    0  502 -0.11623298662E+02  0.64338643817E+02 -0.25689116782E+00  0.65549356618E+02  0.47000000000E+01 0.  1.
         11    1    6    6    0    0 -0.22385372959E+02 -0.47992045073E+02  0.27889820247E+02  0.59851344063E+02  0.00000000000E+00 0. -1.
        -12    1    6    6    0    0 -0.91986694083E+02  0.33563520877E+01  0.21822614968E+02  0.94599384310E+02  0.00000000000E+00 0.  1.
</event>
<event>
12    1  0.8494789E-002  0.2254106E+03  0.7818608E-02  0.1130490E+00
         21   -1    0    0  501  502  0.00000000000E+00  0.00000000000E+00  0.47915842173E+03  0.47915842173E+03  0.00000000000E+00 0. -1.
         21   -1    0    0  502  503 -0.00000000000E+00 -0.00000000000E+00 -0.12515322504E+03  0.12515322504E+03  0.00000000000E+00 0.  1.
         -6    2    1    2    0  503  0.22887593574E+02 -0.14507226990E+03  0.53370651737E+02  0.22855762950E+03  0.16679435872E+03 0.  0.
        -24    2    3    3    0    0  0.17412359657E+02 -0.12711605444E+03  0.97915264045E+02  0.17999101189E+03  0.79672353191E+02 0.  0.
          6    2    1    2  501    0 -0.22887593574E+02  0.14507226990E+03  0.30063454496E+03  0.37575401727E+03  0.17099750418E+03 0.  0.
         24    2    5    5    0    0  0.14796407988E+02  0.16334758953E+03  0.23173860952E+03  0.29499009463E+03  0.80093720660E+02 0.  0.
          5    1    5    5  501    0 -0.37684001561E+02 -0.18275319625E+02  0.68895935438E+02  0.80763922645E+02  0.47000000000E+01 0. -1.
        -13    1    6    6    0    0 -0.26438045999E+02  0.85226066068E+02  0.15057022018E+03  0.17502526623E+03  0.00000000000E+00 0.  1.
         14    1    6    6    0    0  0.41234453986E+02  0.78121523461E+02  0.81168389341E+02  0.11996482839E+03  0.00000000000E+00 0. -1.
         -5    1    3    3    0  503  0.54752339166E+01 -0.17956215465E+02 -0.44544612308E+02  0.48566617609E+02  0.47000000000E+01 0.  1.
         13    1    4    4    0    0  0.43648284107E+02 -0.37692997518E+02  0.41536506399E+02  0.71071908172E+02  0.00000000000E+00 0. -1.
        -14    1    4    4    0    0 -0.26235924450E+02 -0.89423056921E+02  0.56378757646E+02  0.10891910372E+03  0.00000000000E+00 0.  1.
</event>
<event>
12    1  0.8494789E-002  0.2052608E+03  0.7818608E-02  0.1145451E+00
         21   -1    0    0  503  502  0.00000000000E+00  0.00000000000E+00  0.25904337233E+03  0.25904337233E+03  0.00000000000E+00 0.  1.
         21   -1    0    0  501  503 -0.00000000000E+00 -0.00000000000E+00 -0.24786200541E+03  0.24786200541E+03  0.00000000000E+00 0. -1.
          6    2    1    2  501    0  0.11036875493E+03  0.92033453822E+01 -0.14327647832E+03  0.25032008969E+03  0.17281792278E+03 0.  0.
         24    2    3    3    0    0  0.78897859459E+02 -0.26386183400E+02 -0.18759720261E+02  0.11696513156E+03  0.80048810082E+02 0.  0.
         -6    2    1    2    0  502 -0.11036875493E+03 -0.92033453822E+01  0.15445784524E+03  0.25658528804E+03  0.17237407129E+03 0.  0.
        -24    2    5    5    0    0 -0.10877561116E+02 -0.48869793810E+02  0.92134268338E+02  0.13257624396E+03  0.81124342688E+02 0.  0.
          5    1    3    3  501    0  0.31470895474E+02  0.35589528782E+02 -0.12451675805E+03  0.13335495813E+03  0.47000000000E+01 0. -1.
        -13    1    4    4    0    0  0.45069632578E+02  0.24357547690E+02  0.50877319410E+01  0.51482491456E+02  0.00000000000E+00 0.  1.
         14    1    4    4    0    0  0.33828226880E+02 -0.50743731090E+02 -0.23847452202E+02  0.65482640106E+02  0.00000000000E+00 0. -1.
         -5    1    5    5    0  502 -0.99491193816E+02  0.39666448427E+02  0.62323576901E+02  0.12400904409E+03  0.47000000000E+01 0.  1.
         13    1    6    6    0    0  0.28674920095E+02  0.34641656137E+01  0.20345110715E+02  0.35329520459E+02  0.00000000000E+00 0. -1.
        -14    1    6    6    0    0 -0.39552481211E+02 -0.52333959423E+02  0.71789157623E+02  0.97246723498E+02  0.00000000000E+00 0.  1.
</event>
<event>
12    1  0.8494789E-002  0.2027750E+03  0.7818608E-02  0.1147993E+00
         21   -1    0    0  503  502  0.00000000000E+00  0.00000000000E+00  0.28039999839E+03  0.28039999839E+03  0.00000000000E+00 0.  1.
         21   -1    0    0  501  503 -0.00000000000E+00 -0.00000000000E+00 -0.25160137386E+03  0.25160137386E+03  0.00000000000E+00 0.  1.
          6    2    1    2  501    0  0.99392096060E+02 -0.25610964774E+02 -0.15907950985E+03  0.25556712188E+03  0.17167863308E+03 0.  0.
         24    2    3    3    0    0  0.67854892642E+02  0.34233680578E+00 -0.14479009835E+02  0.10523560933E+03  0.79123246236E+02 0.  0.
         -6    2    1    2    0  502 -0.99392096060E+02  0.25610964774E+02  0.18787813438E+03  0.27643425037E+03  0.17487993345E+03 0.  0.
        -24    2    5    5    0    0 -0.13083570595E+02 -0.12632882408E+02  0.15907493574E+03  0.17762398943E+03  0.76906936631E+02 0.  0.
          5    1    3    3  501    0  0.31537203418E+02 -0.25953301580E+02 -0.14460050002E+03  0.15033151256E+03  0.47000000000E+01 0. -1.
        -11    1    4    4    0    0  0.69087782822E+02  0.13264651055E+02 -0.36815837901E+02  0.79400746994E+02  0.00000000000E+00 0.  1.
         12    1    4    4    0    0 -0.12328901796E+01 -0.12922314249E+02  0.22336828067E+02  0.25834862334E+02  0.00000000000E+00 0. -1.
         -5    1    5    5    0  502 -0.86308525465E+02  0.38243847183E+02  0.28803198639E+02  0.98810260941E+02  0.47000000000E+01 0.  1.
         13    1    6    6    0    0  0.19049745857E+02 -0.31974364581E+02  0.50356283339E+02  0.62617953330E+02  0.00000000000E+00 0. -1.
        -14    1    6    6    0    0 -0.32133316452E+02  0.19341482172E+02  0.10871865240E+03  0.11500603610E+03  0.00000000000E+00 0.  1.
</event>
<event>
12    1  0.8494789E-002  0.2335795E+03  0.7818608E-02  0.1124222E+00
         21   -1    0    0  501  502  0.00000000000E+00  0.00000000000E+00  0.21719918471E+03  0.21719918471E+03  0.00000000000E+00 0.  1.
         21   -1    0    0  502  503 -0.00000000000E+00 -0.00000000000E+00 -0.25537320119E+03  0.25537320119E+03  0.00000000000E+00 0. -1.
         -6    2    1    2    0  503 -0.24770999630E+02  0.15597885116E+03 -0.51002864641E+02  0.23908301915E+03  0.17209414114E+03 0.  0.
        -24    2    3    3    0    0  0.33279710385E+02  0.10275918392E+03 -0.75355603508E+02  0.15651569023E+03  0.84567755715E+02 0.  0.
          6    2    1    2  501    0  0.24770999630E+02 -0.15597885116E+03  0.12828848152E+02  0.23348936675E+03  0.17149256720E+03 0.  0.
         24    2    5    5    0    0  0.68221142582E+02 -0.15419973130E+03 -0.34759856529E+01  0.18680941607E+03  0.80336753898E+02 0.  0.
          5    1    5    5  501    0 -0.43450142951E+02 -0.17791198609E+01  0.16304833805E+02  0.46679950679E+02  0.47000000000E+01 0. -1.
        -13    1    6    6    0    0  0.16713579343E+02 -0.12780169847E+03 -0.32438225304E+01  0.12893075758E+03  0.00000000000E+00 0.  1.
         14    1    6    6    0    0  0.51507563239E+02 -0.26398032829E+02 -0.23216312257E+00  0.57878658483E+02  0.00000000000E+00 0. -1.
         -5    1    3    3    0  503 -0.58050710015E+02  0.53219667245E+02  0.24352738866E+02  0.82567328922E+02  0.47000000000E+01 0.  1.
         13    1    4    4    0    0  0.55161544466E+02  0.38549516626E+02 -0.24057979795E+02  0.71467808220E+02  0.00000000000E+00 0. -1.
        -14    1    4    4    0    0 -0.21881834081E+02  0.64209667290E+02 -0.51297623712E+02  0.85047882012E+02  0.00000000000E+00 0.  1.
</event>
<event>
12    1  0.8494789E-002  0.1760140E+03  0.7818608E-02  0.1171778E+00
         21   -1    0    0  501  502  0.00000000000E+00  0.00000000000E+00  0.37789011779E+02  0.37789011779E+02  0.00000000000E+00 0.  1.
         21   -1    0    0  502  503 -0.00000000000E+00 -0.00000000000E+00 -0.89829048341E+03  0.89829048341E+03  0.00000000000E+00 0.  1.
         -6    2    1    2    0  503 -0.39904386700E+02 -0.19002772509E+01 -0.29067816590E+03  0.33969075744E+03  0.17117255453E+03 0.  0.
        -24    2    3    3    0    0 -0.22082443834E+02  0.57126787657E+02 -0.23893429852E+03  0.25905990819E+03  0.79191747207E+02 0.  0.
          6    2    1    2  501    0  0.39904386700E+02  0.19002772509E+01 -0.56982330573E+03  0.59638873775E+03  0.17142040613E+03 0.  0.
         24    2    5    5    0    0  0.12863275937E+01 -0.58217054784E+02 -0.39286212291E+03  0.40548876833E+03  0.81790057592E+02 0.  0.
          5    1    5    5  501    0  0.38618059107E+02  0.60117332035E+02 -0.17696118282E+03  0.19089996942E+03  0.47000000000E+01 0. -1.
        -11    1    6    6    0    0  0.75318890243E+01  0.12528105955E+02 -0.18986036929E+03  0.19042227448E+03  0.00000000000E+00 0.  1.
         12    1    6    6    0    0 -0.62455614306E+01 -0.70745160740E+02 -0.20300175361E+03  0.21506649385E+03  0.00000000000E+00 0. -1.
         -5    1    3    3    0  503 -0.17821942867E+02 -0.59027064908E+02 -0.51743867384E+02  0.80630849252E+02  0.47000000000E+01 0.  1.
         13    1    4    4    0    0 -0.21845748544E+02  0.25204321716E+02 -0.21877764476E+03  0.22130556344E+03  0.00000000000E+00 0. -1.
        -14    1    4    4    0    0 -0.23669528989E+00  0.31922465941E+02 -0.20156653762E+02  0.37754344747E+02  0.00000000000E+00 0.  1.
</event>
<event>
12    1  0.8494789E-002  0.1902558E+03  0.7818608E-02  0.1158345E+00
         21   -1    0    0  503  502  0.00000000000E+00  0.00000000000E+00  0.26481095803E+03  0.26481095803E+03  0.00000000000E+00 0. -1.
         21   -1    0    0  501  503 -0.00000000000E+00 -0.00000000000E+00 -0.20428884656E+03  0.20428884656E+03  0.00000000000E+00 0. -1.
          6    2    1    2  501    0 -0.73892002623E+02  0.34452385437E+02 -0.10499432963E+03  0.21730412830E+03  0.17190194882E+03 0.  0.
         24    2    3    3    0    0  0.71318210817E+01  0.62414669876E+02 -0.39000543858E+02  0.10902661854E+03  0.80120579391E+02 0.  0.
         -6    2    1    2    0  502  0.73892002623E+02 -0.34452385437E+02  0.16551644109E+03  0.25179567629E+03  0.17134285924E+03 0.  0.
        -24    2    5    5    0    0  0.98579661184E+02 -0.54736289975E+02  0.16988199086E+03  0.21920633304E+03  0.80483008073E+02 0.  0.
          5    1    3    3  501    0 -0.81023823704E+02 -0.27962284439E+02 -0.65993785772E+02  0.10827750976E+03  0.47000000000E+01 0. -1.
        -13    1    4    4    0    0 -0.24900754570E+02  0.45281456762E+02 -0.49140813644E+02  0.71311131460E+02  0.00000000000E+00 0.  1.
         14    1    4    4    0    0  0.32032575652E+02  0.17133213115E+02  0.10140269786E+02  0.37715487082E+02  0.00000000000E+00 0. -1.
         -5    1    5    5    0  502 -0.24687658561E+02  0.20283904538E+02 -0.43655497661E+01  0.32589343248E+02  0.47000000000E+01 0.  1.
         11    1    6    6    0    0  0.41520124326E+02 -0.59117376412E+02  0.13231027770E+03  0.15074745272E+03  0.00000000000E+00 0. -1.
        -12    1    6    6    0    0  0.57059536857E+02  0.43810864362E+01  0.37571713159E+02  0.68458880319E+02  0.00000000000E+00 0.  1.
</event>
<event>
12    1  0.8494789E-002  0.2178375E+03  0.7818608E-02  0.1135601E+00
         21   -1    0    0  501  502  0.00000000000E+00  0.00000000000E+00  0.74005975425E+02  0.74005975425E+02  0.00000000000E+00 0.  1.
         21   -1    0    0  502  503 -0.00000000000E+00 -0.00000000000E+00 -0.64031099526E+03  0.64031099526E+03  0.00000000000E+00 0.  1.
         -6    2    1    2    0  503 -0.11906484319E+03  0.58833214073E+02 -0.27261358758E+03  0.34895748174E+03  0.17267128298E+03 0.  0.
        -24    2    3    3    0    0 -0.13359488457E+02  0.71432618812E+02 -0.12604771078E+03  0.16775038126E+03  0.83492934191E+02 0.  0.
          6    2    1    2  501    0  0.11906484319E+03 -0.58833214073E+02 -0.29369143226E+03  0.36535948895E+03  0.17203230750E+03 0.  0.
         24    2    5    5    0    0  0.53655754660E+02 -0.95561428236E+02 -0.22828979213E+03  0.26572628611E+03  0.80518962751E+02 0.  0.
          5    1    5    5  501    0  0.65409088528E+02  0.36728214162E+02 -0.65401640126E+02  0.99633202844E+02  0.47000000000E+01 0. -1.
        -13    1    6    6    0    0  0.13802112584E+02 -0.94138997874E+02 -0.14573514320E+03  0.17404419323E+03  0.00000000000E+00 0.  1.
         14    1    6    6    0    0  0.39853642076E+02 -0.14224303617E+01 -0.82554648926E+02  0.91682092876E+02  0.00000000000E+00 0. -1.
         -5    1    3    3    0  503 -0.10570535473E+03 -0.12599404739E+02 -0.14656587680E+03  0.18120710047E+03  0.47000000000E+01 0.  1.
         11    1    4    4    0    0 -0.35150927728E+02  0.42594109042E+01 -0.66654310351E+02  0.75475342925E+02  0.00000000000E+00 0. -1.
        -12    1    4    4    0    0  0.21791439271E+02  0.67173207908E+02 -0.59393400427E+02  0.92275038339E+02  0.00000000000E+00 0.  1.
</event>
<event>
12    1  0.8494789E-002  0.1852499E+03  0.7818608E-02  0.1163045E+00
         21   -1    0    0  503  502  0.00000000000E+00  0.00000000000E+00  0.18121845308E+03  0.18121845308E+03  0.00000000000E+00 0. -1.
         21   -1    0    0  501  503 -0.00000000000E+00 -0.00000000000E+00 -0.18925840935E+03  0.18925840935E+03  0.00000000000E+00 0. -1.
          6    2    1    2  501    0 -0.18425701209E+02 -0.65058973000E+02  0.86311140200E+01  0.18545087691E+03  0.17246841793E+03 0.  0.
         24    2    3    3    0    0  0.37178069916E+02 -0.94987551469E+01 -0.35117073259E+02  0.95369185865E+02  0.79935208427E+02 0.  0.
         -6    2    1    2    0  502  0.18425701209E+02  0.65058973000E+02 -0.16671070295E+02  0.18502598552E+03  0.17141911883E+03 0.  0.
        -24    2    5    5    0    0 -0.45990519009E+02  0.20830187141E+02 -0.42697797684E+02  0.10253286179E+03  0.78363647719E+02 0.  0.
          5    1    3    3  501    0 -0.55603771125E+02 -0.55560217853E+02  0.43748187279E+02  0.90081691044E+02  0.47000000000E+01 0. -1.
        -11    1    4    4    0    0 -0.19757444864E+01  0.15987802338E+02  0.18316116281E+02  0.24392488710E+02  0.00000000000E+00 0.  1.
         12    1    4    4    0    0  0.39153814402E+02 -0.25486557484E+02 -0.53433189540E+02  0.70976697155E+02  0.00000000000E+00 0. -1.
         -5    1    5    5    0  502  0.64416220218E+02  0.44228785859E+02  0.26026727389E+02  0.82493123739E+02  0.47000000000E+01 0.  1.
         13    1    6    6    0    0 -0.34435258671E+02  0.48620754666E+02 -0.14564391395E+02  0.61334218188E+02  0.00000000000E+00 0. -1.
        -14    1    6    6    0    0 -0.11555260338E+02 -0.27790567525E+02 -0.28133406289E+02  0.41198643597E+02  0.00000000000E+00 0.  1.
</event>
<event>
12    1  0.8494789E-002  0.1993625E+03  0.7818608E-02  0.1152426E+00
         21   -1    0    0  503  502  0.00000000000E+00  0.00000000000E+00  0.34833963109E+02  0.34833963109E+02  0.00000000000E+00 0. -1.
         21   -1    0    0  501  503 -0.00000000000E+00 -0.00000000000E+00 -0.11883631376E+04  0.11883631376E+04  0.00000000000E+00 0. -1.
          6    2    1    2  501    0  0.37708986214E+02  0.81564478357E+02 -0.38326560679E+03  0.42755185776E+03  0.16683325195E+03 0.  0.
         24    2    3    3    0    0  0.21366258892E+02  0.30758074001E+02 -0.88206364160E+02  0.12766784331E+03  0.84357213106E+02 0.  0.
         -6    2    1    2    0  502 -0.37708986214E+02 -0.81564478357E+02 -0.77026356771E+03  0.79564524296E+03  0.17796251607E+03 0.  0.
        -24    2    5    5    0    0 -0.65307472694E+02  0.67117479998E+01 -0.30230856099E+03  0.31861448198E+03  0.76253580462E+02 0.  0.
          5    1    3    3  501    0  0.16342727322E+02  0.50806404357E+02 -0.29505924263E+03  0.29988401445E+03  0.47000000000E+01 0. -1.
        -13    1    4    4    0    0  0.26720855510E+02  0.25744040060E+02 -0.10390959453E+03  0.11033568576E+03  0.00000000000E+00 0.  1.
         14    1    4    4    0    0 -0.53545966186E+01  0.50140339414E+01  0.15703230369E+02  0.17332157550E+02  0.00000000000E+00 0. -1.
         -5    1    5    5    0  502  0.27598486480E+02 -0.88276226357E+02 -0.46795500673E+03  0.47703076098E+03  0.47000000000E+01 0.  1.
         11    1    6    6    0    0 -0.66659032958E+01 -0.16554004553E+02 -0.18103632808E+03  0.18191377468E+03  0.00000000000E+00 0. -1.
        -12    1    6    6    0    0 -0.58641569398E+02  0.23265752553E+02 -0.12127223290E+03  0.13670070730E+03  0.00000000000E+00 0.  1.
</event>
<event>
12    1  0.8494789E-002  0.2166465E+03  0.7818608E-02  0.1136572E+00
         21   -1    0    0  501  502  0.00000000000E+00  0.00000000000E+00  0.97201839234E+02  0.97201839234E+02  0.00000000000E+00 0.  1.
         21   -1    0    0  502  503 -0.00000000000E+00 -0.00000000000E+00 -0.48403902246E+03  0.48403902246E+03  0.00000000000E+00 0. -1.
         -6    2    1    2    0  503  0.11671458364E+03 -0.57687830588E+02 -0.21699727633E+03  0.30663258903E+03  0.17316335319E+03 0.  0.
        -24    2    3    3    0    0  0.74444545513E+02  0.32008499006E+02 -0.14067530229E+03  0.18141549201E+03  0.80966077466E+02 0.  0.
          6    2    1    2  501    0 -0.11671458364E+03  0.57687830588E+02 -0.16983990689E+03  0.27460827266E+03  0.17208698268E+03 0.  0.
         24    2    5    5    0    0 -0.14265745306E+02 -0.25327139875E+02 -0.61977072420E+02  0.10418605915E+03  0.78540447620E+02 0.  0.
          5    1    5    5  501    0 -0.10244883833E+03  0.83014970463E+02 -0.10786283447E+03  0.17042221351E+03  0.47000000000E+01 0. -1.
        -13    1    6    6    0    0 -0.45159121043E+02 -0.56876768982E+01 -0.24070663275E+02  0.51488762972E+02  0.00000000000E+00 0.  1.
         14    1    6    6    0    0  0.30893375737E+02 -0.19639462977E+02 -0.37906409145E+02  0.52697296180E+02  0.00000000000E+00 0. -1.
         -5    1    3    3    0  503  0.42270038125E+02 -0.89696329594E+02 -0.76321974043E+02  0.12521709703E+03  0.47000000000E+01 0.  1.
         13    1    4    4    0    0 -0.14391334211E+02 -0.38186494197E+00 -0.35129793604E+01  0.14818817267E+02  0.00000000000E+00 0. -1.
        -14    1    4    4    0    0  0.88835879724E+02  0.32390363948E+02 -0.13716232293E+03  0.16659667474E+03  0.00000000000E+00 0.  1.
</event>
<event>
12    1  0.8494789E-002  0.1985027E+03  0.7818608E-02  0.1151792E+00
         21   -1    0    0  503  502  0.00000000000E+00  0.00000000000E+00  0.70999504964E+03  0.70999504964E+03  0.00000000000E+00 0.  1.
         21   -1    0    0  501  503 -0.00000000000E+00 -0.00000000000E+00 -0.70804547745E+02  0.70804547745E+02  0.00000000000E+00 0.  1.
          6    2    1    2  501    0 -0.27174715146E+02  0.86255283567E+02  0.50474417962E+03  0.54105152892E+03  0.17260252315E+03 0.  0.
         24    2    3    3    0    0  0.25376603982E+02 -0.97565051641E+01  0.18012755352E+03  0.19844687534E+03  0.78715089848E+02 0.  0.
         -6    2    1    2    0  502  0.27174715146E+02 -0.86255283567E+02  0.13444632228E+03  0.23974806847E+03  0.17670564132E+03 0.  0.
        -24    2    5    5    0    0  0.10364490939E+02 -0.54248912779E+02  0.16531906236E+03  0.19197561313E+03  0.80460402958E+02 0.  0.
          5    1    3    3  501    0 -0.52551319128E+02  0.96011788731E+02  0.32461662610E+03  0.34260465358E+03  0.47000000000E+01 0. -1.
        -11    1    4    4    0    0 -0.20139278190E+02  0.16237866028E+02  0.31003152541E+02  0.40378884168E+02  0.00000000000E+00 0.  1.
         12    1    4    4    0    0  0.45515882172E+02 -0.25994371193E+02  0.14912440098E+03  0.15806799117E+03  0.00000000000E+00 0. -1.
         -5    1    5    5    0  502  0.16810224207E+02 -0.32006370787E+02 -0.30872740087E+02  0.47772455342E+02  0.47000000000E+01 0.  1.
         13    1    6    6    0    0  0.74921586968E+00  0.20784963638E+02  0.48881716043E+02  0.53122483010E+02  0.00000000000E+00 0. -1.
        -14    1    6    6    0    0  0.96152750695E+01 -0.75033876417E+02  0.11643734632E+03  0.13885313012E+03  0.00000000000E+00 0.  1.
</event>
<event>
12    1  0.8494789E-002  0.1855240E+03  0.7818608E-02  0.1162883E+00
         21   -1    0    0  503  502  0.00000000000E+00  0.00000000000E+00  0.19357171995E+03  0.19357171995E+03  0.00000000000E+00 0. -1.
         21   -1    0    0  501  503 -0.00000000000E+00 -0.00000000000E+00 -0.22491274224E+03  0.22491274224E+03  0.00000000000E+00 0. -1.
          6    2    1    2  501    0  0.31250481509E+02 -0.56105733417E+02 -0.11280084415E+03  0.21712481530E+03  0.17405375336E+03 0.  0.
         24    2    3    3    0    0  0.97081269433E+01 -0.71209376377E+02 -0.50548117372E+01  0.10611359707E+03  0.77907132853E+02 0.  0.
         -6    2    1    2    0  502 -0.31250481509E+02  0.56105733417E+02  0.81459821861E+02  0.20135964689E+03  0.17258493243E+03 0.  0.
        -24    2    5    5    0    0 -0.49222359422E+02  0.76174153392E+02  0.10866646895E+03  0.16278476488E+03  0.80406068749E+02 0.  0.
          5    1    3    3  501    0  0.21542354566E+02  0.15103642960E+02 -0.10774603241E+03  0.11101121822E+03  0.47000000000E+01 0. -1.
        -13    1    4    4    0    0 -0.23217087432E+02 -0.28852314192E+02 -0.29317463017E+02  0.47233492575E+02  0.00000000000E+00 0.  1.
         14    1    4    4    0    0  0.32925214376E+02 -0.42357062184E+02  0.24262651279E+02  0.58880104498E+02  0.00000000000E+00 0. -1.
         -5    1    5    5    0  502  0.17971877913E+02 -0.20068419975E+02 -0.27206647088E+02  0.38574882006E+02  0.47000000000E+01 0.  1.
         11    1    6    6    0    0 -0.67206831363E+02  0.43321473063E+02  0.53875489840E+02  0.96416163665E+02  0.00000000000E+00 0. -1.
        -12    1    6    6    0    0  0.17984471942E+02  0.32852680329E+02  0.54790979109E+02  0.66368601217E+02  0.00000000000E+00 0.  1.
</event>
<event>
12    1  0.8494789E-002  0.2494991E+03  0.7818608E-02  0.1113834E+00
         21   -1    0    0  503  502  0.00000000000E+00  0.00000000000E+00  0.27648827036E+03  0.27648827036E+03  0.00000000000E+00 0.  1.
         21   -1    0    0  501  503 -0.00000000000E+00 -0.00000000000E+00 -0.30861116803E+03  0.30861116803E+03  0.00000000000E+00 0. -1.
          6    2    1    2  501    0 -0.86476734755E+02 -0.15529374450E+03 -0.16932568897E+03  0.30153106350E+03  0.17508689435E+03 0.  0.
         24    2    3    3    0    0 -0.61193582355E+02 -0.17854760656E+03 -0.11060860086E+03  0.23334186837E+03  0.81180432506E+02 0.  0.
         -6    2    1    2    0  502  0.86476734755E+02  0.15529374450E+03  0.13720279130E+03  0.28356837490E+03  0.17318211387E+03 0.  0.
        -24    2    5    5    0    0  0.45417068626E+01  0.10010761524E+02  0.52950187997E+02  0.96643028562E+02  0.80095631049E+02 0.  0.
          5    1    3    3  501    0 -0.25283152400E+02  0.23253862052E+02 -0.58717088111E+02  0.68189195126E+02  0.47000000000E+01 0. -1.
        -13    1    4    4    0    0  0.37715845290E+01 -0.87662999073E+01  0.11051383364E+02  0.14601573141E+02  0.00000000000E+00 0.  1.
         14    1    4    4    0    0 -0.64965166884E+02 -0.16978130665E+03 -0.12165998422E+03  0.21874029523E+03  0.00000000000E+00 0. -1.
         -5    1    5    5    0  502  0.81935027892E+02  0.14528298298E+03  0.84252603304E+02  0.18692534634E+03  0.47000000000E+01 0.  1.
         13    1    6    6    0    0  0.41568467225E+02 -0.20927610179E+01  0.31293164846E+02  0.52072826716E+02  0.00000000000E+00 0. -1.
        -14    1    6    6    0    0 -0.37026760362E+02  0.12103522542E+02  0.21657023151E+02  0.44570201846E+02  0.00000000000E+00 0.  1.
</event>
<event>
12    1  0.8494789E-002  0.2300898E+03  0.7818608E-02  0.1126637E+00
         21   -1    0    0  501  502  0.00000000000E+00  0.00000000000E+00  0.11938624590E+04  0.11938624590E+04  0.00000000000E+00 0.  1.
         21   -1    0    0  502  503 -0.00000000000E+00 -0.00000000000E+00 -0.14468416670E+03  0.14468416670E+03  0.00000000000E+00 0. -1.
         -6    2    1    2    0  503  0.16211091283E+02  0.15164935625E+03 -0.32825859993E+02  0.23241956366E+03  0.17228171626E+03 0.  0.
        -24    2    3    3    0    0  0.56523113596E+02  0.15741165608E+03 -0.76575839109E+01  0.18431763685E+03  0.77078277237E+02 0.  0.
          6    2    1    2  501    0 -0.16211091283E+02 -0.15164935625E+03  0.10820041523E+04  0.11061270621E+04  0.17182480918E+03 0.  0.
         24    2    5    5    0    0  0.21569022997E+02 -0.10481740984E+03  0.96822504333E+03  0.97733131724E+03  0.79150849513E+02 0.  0.
          5    1    5    5  501    0 -0.37780114280E+02 -0.46831946409E+02  0.11377910899E+03  0.12879574482E+03  0.47000000000E+01 0. -1.
        -13    1    6    6    0    0  0.30978224370E+02 -0.69172312208E+01  0.33682003849E+03  0.33831233616E+03  0.00000000000E+00 0.  1.
         14    1    6    6    0    0 -0.94092013737E+01 -0.97900178619E+02  0.63140500484E+03  0.63901898108E+03  0.00000000000E+00 0. -1.
         -5    1    3    3    0  503 -0.40312022313E+02 -0.57622998297E+01 -0.25168276082E+02  0.48101926814E+02  0.47000000000E+01 0.  1.
         11    1    4    4    0    0  0.46261654633E+02  0.11985416453E+03 -0.39080583844E+02  0.13428497116E+03  0.00000000000E+00 0. -1.
        -12    1    4    4    0    0  0.10261458963E+02  0.37557491548E+02  0.31422999933E+02  0.50032665692E+02  0.00000000000E+00 0.  1.
</event>
<event>
12    1  0.8494789E-002  0.2189004E+03  0.7818608E-02  0.1134854E+00
         21   -1    0    0  501  502  0.00000000000E+00  0.00000000000E+00  0.34268178171E+03  0.34268178171E+03  0.00000000000E+00 0. -1.
         21   -1    0    0  502  503 -0.00000000000E+00 -0.00000000000E+00 -0.18332753229E+03  0.18332753229E+03  0.00000000000E+00 0. -1.
         -6    2    1    2    0  503 -0.26175386407E+02  0.13364233315E+03 -0.49280582681E+02  0.22360911075E+03  0.17037322125E+03 0.  0.
        -24    2    3    3    0    0  0.13911720119E+02  0.38414334443E+02 -0.75289206813E+02  0.11696068659E+03  0.79637557079E+02 0.  0.
          6    2    1    2  501    0  0.26175386407E+02 -0.13364233315E+03  0.20863483211E+03  0.30240020325E+03  0.17138251280E+03 0.  0.
         24    2    5    5    0    0 -0.44577657061E+02 -0.38115020428E+02  0.84947810942E+02  0.13078426623E+03  0.80302374914E+02 0.  0.
          5    1    5    5  501    0  0.70753043468E+02 -0.95527312722E+02  0.12368702116E+03  0.17161593702E+03  0.47000000000E+01 0. -1.
        -11    1    6    6    0    0 -0.33042061310E+01  0.12130366258E+02  0.59734576596E+02  0.61043289597E+02  0.00000000000E+00 0.  1.
         12    1    6    6    0    0 -0.41273450930E+02 -0.50245386686E+02  0.25213234346E+02  0.69740976628E+02  0.00000000000E+00 0. -1.
         -5    1    3    3    0  503 -0.40087106526E+02  0.95227998707E+02  0.26008624133E+02  0.10664842416E+03  0.47000000000E+01 0.  1.
         11    1    4    4    0    0  0.40650859391E+02  0.45520679324E+02 -0.58829114954E+02  0.84767265979E+02  0.00000000000E+00 0. -1.
        -12    1    4    4    0    0 -0.26739139272E+02 -0.71063448811E+01 -0.16460091860E+02  0.32193420610E+02  0.00000000000E+00 0.  1.
</event>
<event>
12    1  0.8494789E-002  0.1794061E+03  0.7818608E-02  0.1168735E+00
         21   -1    0    0  503  502  0.00000000000E+00  0.00000000000E+00  0.70182653568E+02  0.70182653568E+02  0.00000000000E+00 0.  1.
         21   -1    0    0  501  503 -0.00000000000E+00 -0.00000000000E+00 -0.49749662522E+03  0.49749662522E+03  0.00000000000E+00 0.  1.
          6    2    1    2  501    0  0.25739976680E+02  0.39464515099E+02 -0.29751650446E+03  0.34742283959E+03  0.17310853443E+03 0.  0.
         24    2    3    3    0    0  0.62645812424E+02  0.59473302294E+02 -0.27622582953E+03  0.30011771180E+03  0.79425188277E+02 0.  0.
         -6    2    1    2    0  502 -0.25739976680E+02 -0.39464515099E+02 -0.12979746719E+03  0.22025643919E+03  0.17159697598E+03 0.  0.
        -24    2    5    5    0    0 -0.66642420398E+02 -0.13716202990E+02 -0.26273655234E+02  0.10590935737E+03  0.76792842107E+02 0.  0.
          5    1    3    3  501    0 -0.36905835744E+02 -0.20008787194E+02 -0.21290674924E+02  0.47305127795E+02  0.47000000000E+01 0. -1.
        -13    1    4    4    0    0  0.58946723281E+02  0.45091409914E+02 -0.10686996085E+03  0.13011202852E+03  0.00000000000E+00 0.  1.
         14    1    4    4    0    0  0.36990891430E+01  0.14381892379E+02 -0.16935586868E+03  0.17000568327E+03  0.00000000000E+00 0. -1.
         -5    1    5    5    0  502  0.40902443718E+02 -0.25748312109E+02 -0.10352381196E+03  0.11434708182E+03  0.47000000000E+01 0.  1.
         13    1    6    6    0    0 -0.25007468150E+02  0.29257296589E+02 -0.25314078468E+02  0.46066966860E+02  0.00000000000E+00 0. -1.
        -14    1    6    6    0    0 -0.41634952248E+02 -0.42973499579E+02 -0.95957676633E+00  0.59842390513E+02  0.00000000000E+00 0.  1.
</event>
<event>
12    1  0.8494789E-002  0.1984080E+03  0.7818608E-02  0.1151117E+00
         21   -1    0    0  501  502  0.00000000000E+00  0.00000000000E+00  0.15282982968E+03  0.15282982968E+03  0.00000000000E+00 0.  1.
         21   -1    0    0  502  503 -0.00000000000E+00 -0.00000000000E+00 -0.58834102060E+03  0.58834102060E+03  0.00000000000E+00 0. -1.
         -6    2    1    2    0  503  0.91812444586E+02  0.34318532236E+02  0.60210509576E+02  0.20721790552E+03  0.17235622492E+03 0.  0.
        -24    2    3    3    0    0  0.41986961200E+02 -0.46639679204E+02  0.57017166348E+02  0.11198609238E+03  0.73155745094E+02 0.  0.
          6    2    1    2  501    0 -0.91812444586E+02 -0.34318532236E+02 -0.49572170050E+03  0.53395294477E+03  0.17250639479E+03 0.  0.
         24    2    5    5    0    0 -0.12218535904E+03 -0.59523355330E+02 -0.41718344903E+03  0.44592940256E+03  0.79616016779E+02 0.  0.
          5    1    5    5  501    0  0.30372914451E+02  0.25204823094E+02 -0.78538251465E+02  0.88023542207E+02  0.47000000000E+01 0. -1.
        -13    1    6    6    0    0 -0.58514002889E+02 -0.17927383228E+02 -0.82542556582E+02  0.10275482106E+03  0.00000000000E+00 0.  1.
         14    1    6    6    0    0 -0.63671356147E+02 -0.41595972102E+02 -0.33464089245E+03  0.34317458150E+03  0.00000000000E+00 0. -1.
         -5    1    3    3    0  503  0.49825483386E+02  0.80958211439E+02  0.31933432282E+01  0.95231813146E+02  0.47000000000E+01 0.  1.
         13    1    4    4    0    0  0.17498706268E+02 -0.57671755745E+02  0.14981074142E+02  0.62102083011E+02  0.00000000000E+00 0. -1.
        -14    1    4    4    0    0  0.24488254932E+02  0.11032076542E+02  0.42036092206E+02  0.49884009365E+02  0.00000000000E+00 0.  1.
</event>
<event>
12    1  0.8494789E-002  0.1806871E+03  0.7818608E-02  0.1168013E+00
         21   -1    0    0  503  502  0.00000000000E+00  0.00000000000E+00  0.31481908151E+03  0.31481908151E+03  0.00000000000E+00 0.  1.
         21   -1    0    0  501  503 -0.00000000000E+00 -0.00000000000E+00 -0.12376893838E+03  0.12376893838E+03  0.00000000000E+00 0.  1.
          6    2    1    2  501    0 -0.20466659333E+02 -0.37644850969E+02  0.20441137143E+01  0.17710933726E+03  0.17183573550E+03 0.  0.
         24    2    3    3    0    0  0.28845265050E+02 -0.75892944526E+02 -0.88561866051E+01  0.11358383770E+03  0.78937112946E+02 0.  0.
         -6    2    1    2    0  502  0.20466659333E+02  0.37644850969E+02  0.18900602941E+03  0.26147868263E+03  0.17553291249E+03 0.  0.
        -24    2    5    5    0    0  0.36157372817E+02 -0.42849486708E+02  0.11254496643E+03  0.14925604213E+03  0.80421157196E+02 0.  0.
          5    1    3    3  501    0 -0.49311924384E+02  0.38248093557E+02  0.10900300319E+02  0.63525499559E+02  0.47000000000E+01 0. -1.
        -11    1    4    4    0    0  0.93034513737E+01 -0.81721220585E+02 -0.26712867983E+02  0.86478259795E+02  0.00000000000E+00 0.  1.
         12    1    4    4    0    0  0.19541813677E+02  0.58282760586E+01  0.17856681378E+02  0.27105577903E+02  0.00000000000E+00 0. -1.
         -5    1    5    5    0  502 -0.15690713483E+02  0.80494337677E+02  0.76461062986E+02  0.11222264050E+03  0.47000000000E+01 0.  1.
         11    1    6    6    0    0  0.40167332383E+02 -0.42226311602E+02  0.28075818519E+02  0.64689470300E+02  0.00000000000E+00 0. -1.
        -12    1    6    6    0    0 -0.40099595664E+01 -0.62317510659E+00  0.84469147911E+02  0.84566571834E+02  0.00000000000E+00 0.  1.
</event>
<event>
12    1  0.8494789E-002  0.1923165E+03  0.7818608E-02  0.1156656E+00
         21   -1    0    0  501  502  0.00000000000E+00  0.00000000000E+00  0.13165634641E+04  0.13165634641E+04  0.00000000000E+00 0.  1.
         21   -1    0    0  502  503 -0.00000000000E+00 -0.00000000000E+00 -0.37470880568E+02  0.37470880568E+02  0.00000000000E+00 0.  1.
         -6    2    1    2    0  503  0.51901101477E+01  0.84200135275E+02  0.29918864772E+03  0.35566764129E+03  0.17282657235E+03 0.  0.
        -24    2    3    3    0    0  0.27930374240E+02 -0.25422850725E+01  0.22330270217E+03  0.23810006995E+03  0.77723725431E+02 0.  0.
          6    2    1    2  501    0 -0.51901101477E+01 -0.84200135275E+02  0.97990393578E+03  0.99836670335E+03  0.17148688280E+03 0.  0.
         24    2    5    5    0    0 -0.26961144780E+02 -0.10216765515E+03  0.93680382526E+03  0.94663161617E+03  0.85702255569E+02 0.  0.
          5    1    5    5  501    0  0.21771034633E+02  0.17967519872E+02  0.43100110519E+02  0.51735087185E+02  0.47000000000E+01 0. -1.
        -11    1    6    6    0    0 -0.57088076374E+02 -0.50434545028E+02  0.53025148426E+03  0.53569518231E+03  0.00000000000E+00 0.  1.
         12    1    6    6    0    0  0.30126931593E+02 -0.51733110118E+02  0.40655234101E+03  0.41093643385E+03  0.00000000000E+00 0. -1.
         -5    1    3    3    0  503 -0.22740264092E+02  0.86742420347E+02  0.75885945553E+02  0.11756757134E+03  0.47000000000E+01 0.  1.
         11    1    4    4    0    0  0.20724939346E+02 -0.39686028168E+02  0.12370185192E+03  0.13155474948E+03  0.00000000000E+00 0. -1.
        -12    1    4    4    0    0  0.72054348934E+01  0.37143743095E+02  0.99600850249E+02  0.10654532047E+03  0.00000000000E+00 0.  1.
</event>
<event>
12    1  0.8494789E-002  0.1970501E+03  0.7818608E-02  0.1152664E+00
         21   -1    0    0  503  502  0.00000000000E+00  0.00000000000E+00  0.26037596147E+03  0.26037596147E+03  0.00000000000E+00 0.  1.
         21   -1    0    0  501  503 -0.00000000000E+00 -0.00000000000E+00 -0.31021862739E+03  0.31021862739E+03  0.00000000000E+00 0.  1.
          6    2    1    2  501    0  0.27637073213E+02 -0.89057999318E+02 -0.23148516273E+03  0.30399692764E+03  0.17359036952E+03 0.  0.
         24    2    3    3    0    0 -0.26632176543E+02  0.41507538547E+01 -0.13715785744E+03  0.16063461160E+03  0.79149851553E+02 0.  0.
         -6    2    1    2    0  502 -0.27637073213E+02  0.89057999318E+02  0.18164249681E+03  0.26659766122E+03  0.17142106423E+03 0.  0.
        -24    2    5    5    0    0  0.22812656000E+01 -0.87947272555E+01  0.34364992875E+02  0.87201406351E+02  0.79627766099E+02 0.  0.
          5    1    3    3  501    0  0.54269249756E+02 -0.93208753173E+02 -0.94327305289E+02  0.14336231604E+03  0.47000000000E+01 0. -1.
        -13    1    4    4    0    0  0.12512274240E+02 -0.28195114202E+02 -0.35713883784E+02  0.47191132286E+02  0.00000000000E+00 0.  1.
         14    1    4    4    0    0 -0.39144450782E+02  0.32345868057E+02 -0.10144397366E+03  0.11344347931E+03  0.00000000000E+00 0. -1.
         -5    1    5    5    0  502 -0.29918338813E+02  0.97852726574E+02  0.14727750393E+03  0.17939625486E+03  0.47000000000E+01 0.  1.
         11    1    6    6    0    0  0.47636247627E+01  0.35142018681E+02  0.20977710721E+02  0.41203372980E+02  0.00000000000E+00 0. -1.
        -12    1    6    6    0    0 -0.24823591628E+01 -0.43936745936E+02  0.13387282154E+02  0.45998033370E+02  0.00000000000E+00 0.  1.
</event>
<event>
12    1  0.8494789E-002  0.1994493E+03  0.7818608E-02  0.1150270E+00
         21   -1    0    0  503  502  0.00000000000E+00  0.00000000000E+00  0.48321712983E+02  0.48321712983E+02  0.00000000000E+00 0. -1.
         21   -1    0    0  501  503 -0.00000000000E+00 -0.00000000000E+00 -0.83177077610E+03  0.83177077610E+03  0.00000000000E+00 0.  1.
          6    2    1    2  501    0 -0.97051776071E+02  0.23004432245E+02 -0.43981305097E+03  0.48292396394E+03  0.17271880037E+03 0.  0.
         24    2    3    3    0    0 -0.17723190727E+02  0.63933176511E+02 -0.28913360626E+03  0.30772530065E+03  0.81823320898E+02 0.  0.
         -6    2    1    2    0  502  0.97051776071E+02 -0.23004432245E+02 -0.34363601214E+03  0.39716852514E+03  0.17236263336E+03 0.  0.
        -24    2    5    5    0    0  0.12340436835E+03 -0.20134110975E+02 -0.33894643514E+03  0.36984124946E+03  0.79144446157E+02 0.  0.
          5    1    3    3  501    0 -0.79328585344E+02 -0.40928744266E+02 -0.15067944471E+03  0.17519866329E+03  0.47000000000E+01 0. -1.
        -11    1    4    4    0    0  0.29235945996E+02  0.46980967252E+01 -0.74445547810E+02  0.80118363937E+02  0.00000000000E+00 0.  1.
         12    1    4    4    0    0 -0.46959136723E+02  0.59235079786E+02 -0.21468805845E+03  0.22760693672E+03  0.00000000000E+00 0. -1.
         -5    1    5    5    0  502 -0.26352592275E+02 -0.28703212699E+01 -0.46895770069E+01  0.27327275684E+02  0.47000000000E+01 0.  1.
         13    1    6    6    0    0  0.25509777812E+02  0.25513626459E+02 -0.12604413744E+03  0.13110613442E+03  0.00000000000E+00 0. -1.
        -14    1    6    6    0    0  0.97894590534E+02 -0.45647737434E+02 -0.21290229769E+03  0.23873511504E+03  0.00000000000E+00 0.  1.
</event>
<event>
12    1  0.8494789E-002  0.2080416E+03  0.7818608E-02  0.1143184E+00
         21   -1    0    0  503  502  0.00000000000E+00  0.00000000000E+00  0.24789567058E+03  0.24789567058E+03  0.00000000000E+00 0.  1.
         21   -1    0    0  501  503 -0.00000000000E+00 -0.00000000000E+00 -0.20525586211E+03  0.20525586211E+03  0.00000000000E+00 0. -1.
          6    2    1    2  501    0  0.73098812470E+02  0.85268688949E+02 -0.66584065665E+02  0.21843705511E+03  0.17512031163E+03 0.  0.
         24    2    3    3    0    0  0.10392918462E+03  0.95971338382E+02 -0.81511571422E+02  0.18224342335E+03  0.80973797438E+02 0.  0.
         -6    2    1    2    0  502 -0.73098812470E+02 -0.85268688949E+02  0.10922387414E+03  0.23471447758E+03  0.17477655908E+03 0.  0.
        -24    2    5    5    0    0 -0.77707254314E+02 -0.91221161816E+02  0.14094304036E+03  0.20177718602E+03  0.80556653574E+02 0.  0.
          5    1    3    3  501    0 -0.30830372152E+02 -0.10702649433E+02  0.14927505757E+02  0.36193631761E+02  0.47000000000E+01 0. -1.
        -11    1    4    4    0    0  0.19210936358E+02 -0.37331452807E+01  0.10579419329E+02  0.22246810171E+02  0.00000000000E+00 0.  1.
         12    1    4    4    0    0  0.84718248264E+02  0.99704483662E+02 -0.92090990750E+02  0.15999661318E+03  0.00000000000E+00 0. -1.
         -5    1    5    5    0  502  0.46084418439E+01  0.59524728671E+01 -0.31719166222E+02  0.32937291559E+02  0.47000000000E+01 0.  1.
         13    1    6    6    0    0 -0.51638557469E+02 -0.90340929733E+02  0.67988236386E+02  0.12429973648E+03  0.00000000000E+00 0. -1.
        -14    1    6    6    0    0 -0.26068696844E+02 -0.88023208299E+00  0.72954803973E+02  0.77477449534E+02  0.00000000000E+00 0.  1.
</event>
<event>
12    1  0.8494789E-002  0.3580649E+03  0.7818608E-02  0.1059384E+00
         21   -1    0    0  503  502  0.00000000000E+00  0.00000000000E+00  0.74340581079E+03  0.74340581079E+03  0.00000000000E+00 0.  1.
         21   -1    0    0  501  503 -0.00000000000E+00 -0.00000000000E+00 -0.17243095232E+03  0.17243095232E+03  0.00000000000E+00 0. -1.
          6    2    1    2  501    0 -0.25886081716E+03 -0.17707010003E+03  0.27349249434E+03  0.45056481031E+03  0.17276504522E+03 0.  0.
         24    2    3    3    0    0 -0.71964305508E+02 -0.99004114302E+02  0.68804924864E+02  0.16256533932E+03  0.81931043853E+02 0.  0.
         -6    2    1    2    0  502  0.25886081716E+03  0.17707010003E+03  0.29748236413E+03  0.46527195280E+03  0.17210313800E+03 0.  0.
        -24    2    5    5    0    0  0.50477545146E+02  0.83019884756E+02  0.70666298559E+02  0.14319021062E+03  0.77906526268E+02 0.  0.
          5    1    3    3  501    0 -0.18689651165E+03 -0.78065985723E+02  0.20468756947E+03  0.28799947099E+03  0.47000000000E+01 0. -1.
        -11    1    4    4    0    0 -0.63594765400E+02 -0.55935155815E+02  0.46225303098E+01  0.84819830399E+02  0.00000000000E+00 0.  1.
         12    1    4    4    0    0 -0.83695401076E+01 -0.43068958487E+02  0.64182394555E+02  0.77745508922E+02  0.00000000000E+00 0. -1.
         -5    1    5    5    0  502  0.20838327201E+03  0.94050215269E+02  0.22681606557E+03  0.32208174218E+03  0.47000000000E+01 0.  1.
         11    1    6    6    0    0  0.36161383918E+02  0.90402374331E+02  0.78695190641E+02  0.12519252374E+03  0.00000000000E+00 0. -1.
        -12    1    6    6    0    0  0.14316161227E+02 -0.73824895749E+01 -0.80288920820E+01  0.17997686870E+02  0.00000000000E+00 0.  1.
</event>
<event>
12    1  0.8494789E-002  0.2047300E+03  0.7818608E-02  0.1145987E+00
         21   -1    0    0  501  502  0.00000000000E+00  0.00000000000E+00  0.52129935803E+03  0.52129935803E+03  0.00000000000E+00 0.  1.
         21   -1    0    0  502  503 -0.00000000000E+00 -0.00000000000E+00 -0.83580130046E+02  0.83580130046E+02  0.00000000000E+00 0.  1.
         -6    2    1    2    0  503  0.52295654262E+02 -0.97662266874E+02  0.15725236147E+03  0.25815246743E+03  0.17216746913E+03 0.  0.
        -24    2    3    3    0    0  0.33194208167E+02 -0.66234743569E+02  0.17448088128E+02  0.11351540680E+03  0.84216477543E+02 0.  0.
          6    2    1    2  501    0 -0.52295654262E+02  0.97662266874E+02  0.28046686651E+03  0.34672702065E+03  0.17112921962E+03 0.  0.
         24    2    5    5    0    0  0.32804676323E+02  0.42851141075E+02  0.17922482938E+03  0.20348468800E+03  0.79825507867E+02 0.  0.
          5    1    5    5  501    0 -0.85100330585E+02  0.54811125799E+02  0.10124203714E+03  0.14324233264E+03  0.47000000000E+01 0. -1.
        -13    1    6    6    0    0  0.68925715822E+01  0.61462587497E+02  0.94374967284E+02  0.11283524119E+03  0.00000000000E+00 0.  1.
         14    1    6    6    0    0  0.25912104741E+02 -0.18611446422E+02  0.84849862094E+02  0.90649446812E+02  0.00000000000E+00 0. -1.
         -5    1    3    3    0  503  0.19101446095E+02 -0.31427523305E+02  0.13980427334E+03  0.14463706063E+03  0.47000000000E+01 0.  1.
         13    1    4    4    0    0 -0.10422337646E+02 -0.25752689257E+02 -0.27384383030E+02  0.39009365028E+02  0.00000000000E+00 0. -1.
        -14    1    4    4    0    0  0.43616545814E+02 -0.40482054312E+02  0.44832471158E+02  0.74506041770E+02  0.00000000000E+00 0.  1.
</event>
<event>
12    1  0.8494789E-002  0.2450408E+03  0.7818608E-02  0.1116522E+00
         21   -1    0    0  501  502  0.00000000000E+00  0.00000000000E+00  0.21849433507E+03  0.21849433507E+03  0.00000000000E+00 0.  1.
         21   -1    0    0  502  503 -0.00000000000E+00 -0.00000000000E+00 -0.30285417613E+03  0.30285417613E+03  0.00000000000E+00 0.  1.
         -6    2    1    2    0  503  0.13707293486E+03  0.10823537735E+03 -0.12193025860E+03  0.27370057703E+03  0.17187533716E+03 0.  0.
        -24    2    3    3    0    0  0.12529017278E+03  0.56223758476E+02 -0.21247180188E+02  0.15966893994E+03  0.78638344981E+02 0.  0.
          6    2    1    2  501    0 -0.13707293486E+03 -0.10823537735E+03  0.37570417547E+02  0.24764793417E+03  0.17150532540E+03 0.  0.
         24    2    5    5    0    0 -0.72440041054E+02 -0.49525897936E+01 -0.27830839391E+02  0.10928551305E+03  0.76789843395E+02 0.  0.
          5    1    5    5  501    0 -0.64632893803E+02 -0.10328278756E+03  0.65401256938E+02  0.13836242111E+03  0.47000000000E+01 0. -1.
        -13    1    6    6    0    0 -0.89944256403E+01 -0.34319087639E+02 -0.55570360174E+01  0.35910724279E+02  0.00000000000E+00 0.  1.
         14    1    6    6    0    0 -0.63445615414E+02  0.29366497845E+02 -0.22273803373E+02  0.73374788774E+02  0.00000000000E+00 0. -1.
         -5    1    3    3    0  503  0.11782762073E+02  0.52011618876E+02 -0.10068307841E+03  0.11403163710E+03  0.47000000000E+01 0.  1.
         11    1    4    4    0    0  0.23687300430E+02  0.27461370165E+01  0.26206585076E+02  0.35431829921E+02  0.00000000000E+00 0. -1.
        -12    1    4    4    0    0  0.10160287235E+03  0.53477621460E+02 -0.47453765264E+02  0.12423711002E+03  0.00000000000E+00 0.  1.
</event>
<event>
12    1  0.8494789E-002  0.1998475E+03  0.7818608E-02  0.1150119E+00
         21   -1    0    0  503  502  0.00000000000E+00  0.00000000000E+00  0.11109917774E+03  0.11109917774E+03  0.00000000000E+00 0.  1.
         21   -1    0    0  501  503 -0.00000000000E+00 -0.00000000000E+00 -0.38763085441E+03  0.38763085441E+03  0.00000000000E+00 0.  1.
          6    2    1    2  501    0 -0.33577022810E+02 -0.90507739422E+02 -0.20756831010E+03  0.28731822782E+03  0.17363206305E+03 0.  0.
         24    2    3    3    0    0 -0.76859603673E+02 -0.86703771253E+02 -0.10697470648E+03  0.17764136120E+03  0.81779720944E+02 0.  0.
         -6    2    1    2    0  502  0.33577022810E+02  0.90507739422E+02 -0.68963366575E+02  0.21141180433E+03  0.17498553576E+03 0.  0.
        -24    2    5    5    0    0 -0.36945286822E+02  0.65520429658E+02 -0.79163546846E+02  0.13575537379E+03  0.80652175684E+02 0.  0.
          5    1    3    3  501    0  0.43282580863E+02 -0.38039681686E+01 -0.10059360362E+03  0.10967686661E+03  0.47000000000E+01 0. -1.
        -13    1    4    4    0    0 -0.22867250897E+02 -0.43985615256E+02 -0.95835187931E+02  0.10789823334E+03  0.00000000000E+00 0.  1.
         14    1    4    4    0    0 -0.53992352776E+02 -0.42718155997E+02 -0.11139518548E+02  0.69743127859E+02  0.00000000000E+00 0. -1.
         -5    1    5    5    0  502  0.70522309632E+02  0.24987309764E+02  0.10200180271E+02  0.75656430544E+02  0.47000000000E+01 0.  1.
         11    1    6    6    0    0  0.17456095215E+02  0.49026072239E+00  0.29674243920E+01  0.17713306390E+02  0.00000000000E+00 0. -1.
        -12    1    6    6    0    0 -0.54401382038E+02  0.65030168936E+02 -0.82130971238E+02  0.11804206740E+03  0.00000000000E+00 0.  1.
</event>
<event>
12    1  0.8494789E-002  0.3244565E+03  0.7818608E-02  0.1073636E+00
         21   -1    0    0  501  502  0.00000000000E+00  0.00000000000E+00  0.12297654010E+04  0.12297654010E+04  0.00000000000E+00 0.  1.
         21   -1    0    0  502  503 -0.00000000000E+00 -0.00000000000E+00 -0.10531178969E+03  0.10531178969E+03  0.00000000000E+00 0.  1.
         -6    2    1    2    0  503 -0.22072581956E+03 -0.16345591146E+03  0.85146936609E+03  0.91119268711E+03  0.17272611048E+03 0.  0.
        -24    2    3    3    0    0 -0.23686311695E+03 -0.14177065023E+03  0.69428201545E+03  0.75162885623E+03  0.81947343534E+02 0.  0.
          6    2    1    2  501    0  0.22072581956E+03  0.16345591146E+03  0.27298424527E+03  0.42388450362E+03  0.17239475582E+03 0.  0.
         24    2    5    5    0    0  0.98805596960E+02  0.12556083111E+03  0.88708997436E+02  0.19965240343E+03  0.80397311334E+02 0.  0.
          5    1    5    5  501    0  0.12192022260E+03  0.37895080349E+02  0.18427524783E+03  0.22423210019E+03  0.47000000000E+01 0. -1.
        -11    1    6    6    0    0  0.85852344742E+02  0.76243755739E+02  0.24058660190E+02  0.11731391442E+03  0.00000000000E+00 0.  1.
         12    1    6    6    0    0  0.12953252218E+02  0.49317075368E+02  0.64650337245E+02  0.82338489006E+02  0.00000000000E+00 0. -1.
         -5    1    3    3    0  503  0.16137297393E+02 -0.21685261226E+02  0.15718735064E+03  0.15956383087E+03  0.47000000000E+01 0.  1.
         11    1    4    4    0    0 -0.70821300133E+02 -0.35049552232E+01  0.14604356201E+03  0.16234735374E+03  0.00000000000E+00 0. -1.
        -12    1    4    4    0    0 -0.16604181682E+03 -0.13826569501E+03  0.54823845344E+03  0.58928150249E+03  0.00000000000E+00 0.  1.
</event>
<event>
12    1  0.8494789E-002  0.2408476E+03  0.7818608E-02  0.1119313E+00
         21   -1    0    0  503  502  0.00000000000E+00  0.00000000000E+00  0.11976353426E+04  0.11976353426E+04  0.00000000000E+00 0.  1.
         21   -1    0    0  501  503 -0.00000000000E+00 -0.00000000000E+00 -0.21248485481E+03  0.21248485481E+03  0.00000000000E+00 0.  1.
          6    2    1    2  501    0  0.33946473642E+02  0.16440351126E+03 -0.12701121589E+03  0.27228550254E+03  0.17270399053E+03 0.  0.
         24    2    3    3    0    0 -0.21372254733E+02  0.15486005819E+03 -0.12717597660E+03  0.21595295110E+03  0.77611449998E+02 0.  0.
         -6    2    1    2    0  502 -0.33946473642E+02 -0.16440351126E+03  0.11121617037E+04  0.11378346948E+04  0.17199784920E+03 0.  0.
        -24    2    5    5    0    0 -0.18447040269E+02 -0.25700374504E+02  0.63865496449E+03  0.64416525623E+03  0.77896797953E+02 0.  0.
          5    1    3    3  501    0  0.55318728375E+02  0.95434530678E+01  0.16476071189E+00  0.56332551438E+02  0.47000000000E+01 0. -1.
        -13    1    4    4    0    0  0.23712517048E+02  0.34222477266E+02 -0.52770599635E+02  0.67217539384E+02  0.00000000000E+00 0.  1.
         14    1    4    4    0    0 -0.45084771781E+02  0.12063758092E+03 -0.74405376962E+02  0.14873541172E+03  0.00000000000E+00 0. -1.
         -5    1    5    5    0  502 -0.15499433373E+02 -0.13870313675E+03  0.47350673917E+03  0.49366943861E+03  0.47000000000E+01 0.  1.
         13    1    6    6    0    0 -0.39032513138E+02 -0.33393410951E+02  0.56423341764E+03  0.56656685974E+03  0.00000000000E+00 0. -1.
        -14    1    6    6    0    0  0.20585472868E+02  0.76930364469E+01  0.74421546844E+02  0.77598396488E+02  0.00000000000E+00 0.  1.
</event>
<event>
12    1  0.8494789E-002  0.2416294E+03  0.7818608E-02  0.1118751E+00
         21   -1    0    0  503  502  0.00000000000E+00  0.00000000000E+00  0.26022626881E+03  0.26022626881E+03  0.00000000000E+00 0. -1.
         21   -1    0    0  501  503 -0.00000000000E+00 -0.00000000000E+00 -0.26984990309E+03  0.26984990309E+03  0.00000000000E+00 0.  1.
          6    2    1    2  501    0  0.30678648458E+02  0.16691500654E+03 -0.11388933261E+03  0.26691067189E+03  0.17166457936E+03 0.  0.
         24    2    3    3    0    0  0.57804450690E+02  0.17757341945E+03 -0.12112100168E+03  0.23651662724E+03  0.79975896997E+02 0.  0.
         -6    2    1    2    0  502 -0.30678648458E+02 -0.16691500654E+03  0.10426569833E+03  0.26316550001E+03  0.17199693506E+03 0.  0.
        -24    2    5    5    0    0  0.69382466939E+00 -0.17537388642E+03  0.11963541707E+03  0.22691494176E+03  0.80132866835E+02 0.  0.
          5    1    3    3  501    0 -0.27125802232E+02 -0.10658412910E+02  0.72316690650E+01  0.30394044646E+02  0.47000000000E+01 0. -1.
        -13    1    4    4    0    0 -0.99142454937E+01  0.13257076473E+02 -0.35655572382E+02  0.39311094899E+02  0.00000000000E+00 0.  1.
         14    1    4    4    0    0  0.67718696184E+02  0.16431634298E+03 -0.85465429295E+02  0.19720553234E+03  0.00000000000E+00 0. -1.
         -5    1    5    5    0  502 -0.31372473128E+02  0.84588798775E+01 -0.15369718747E+02  0.36250558248E+02  0.47000000000E+01 0.  1.
         11    1    6    6    0    0 -0.93986459988E+01 -0.73396789432E+02  0.96944309900E+02  0.12195746171E+03  0.00000000000E+00 0. -1.
        -12    1    6    6    0    0  0.10092470668E+02 -0.10197709699E+03  0.22691107175E+02  0.10495748005E+03  0.00000000000E+00 0.  1.
</event>
<event>
12    1  0.8494789E-002  0.1912200E+03  0.7818608E-02  0.1157447E+00
         21   -1    0    0  501  502  0.00000000000E+00  0.00000000000E+00  0.14451484881E+04  0.14451484881E+04  0.00000000000E+00 0.  1.
         21   -1    0    0  502  503 -0.00000000000E+00 -0.00000000000E+00 -0.35004825566E+02  0.35004825566E+02  0.00000000000E+00 0. -1.
         -6    2    1    2    0  503  0.13559421881E+02 -0.80766779928E+02  0.31495455039E+03  0.36845821735E+03  0.17279455565E+03 0.  0.
        -24    2    3    3    0    0  0.75522160508E+02 -0.44576032684E+02  0.17379879179E+03  0.21004044894E+03  0.78869200226E+02 0.  0.
          6    2    1    2  501    0 -0.13559421881E+02  0.80766779928E+02  0.10951891121E+04  0.11116950963E+04  0.17239392433E+03 0.  0.
         24    2    5    5    0    0  0.16374840689E+02  0.16243708951E+02  0.88588983112E+03  0.89058976892E+03  0.88415779902E+02 0.  0.
          5    1    5    5  501    0 -0.29934262570E+02  0.64523070976E+02  0.20929928102E+03  0.22110532739E+03  0.47000000000E+01 0. -1.
        -13    1    6    6    0    0 -0.36247017958E+02  0.10972704375E+02  0.31965347715E+03  0.32188909893E+03  0.00000000000E+00 0.  1.
         14    1    6    6    0    0  0.52621858648E+02  0.52710045764E+01  0.56623635397E+03  0.56870067000E+03  0.00000000000E+00 0. -1.
         -5    1    3    3    0  503 -0.61962738627E+02 -0.36190747244E+02  0.14115575860E+03  0.15841776842E+03  0.47000000000E+01 0.  1.
         13    1    4    4    0    0 -0.89942462558E+01 -0.30981741645E+02  0.44151074860E+02  0.54681644017E+02  0.00000000000E+00 0. -1.
        -14    1    4    4    0    0  0.84516406764E+02 -0.13594291039E+02  0.12964771693E+03  0.15535880492E+03  0.00000000000E+00 0.  1.
</event>
<event>
12    1  0.8494789E-002  0.2960179E+03  0.7818608E-02  0.1087659E+00
         21   -1    0    0  501  502  0.00000000000E+00  0.00000000000E+00  0.48441951329E+03  0.48441951329E+03  0.00000000000E+00 0. -1.
         21   -1    0    0  502  503 -0.00000000000E+00 -0.00000000000E+00 -0.18405350624E+03  0.18405350624E+03  0.00000000000E+00 0. -1.
         -6    2    1    2    0  503 -0.18676211520E+02 -0.24002179754E+03  0.20514543469E+03  0.35751710771E+03  0.16665703933E+03 0.  0.
        -24    2    3    3    0    0  0.18639524131E+02 -0.23098319498E+03  0.20328051280E+03  0.31879078079E+03  0.81264548271E+02 0.  0.
          6    2    1    2  501    0  0.18676211520E+02  0.24002179754E+03  0.95220572367E+02  0.31095591182E+03  0.17224214792E+03 0.  0.
         24    2    5    5    0    0  0.70148490768E+02  0.13065673638E+03  0.21807727264E+02  0.16945803918E+03  0.79047179308E+02 0.  0.
          5    1    5    5  501    0 -0.51472279248E+02  0.10936506116E+03  0.73412845103E+02  0.14149787263E+03  0.47000000000E+01 0. -1.
        -13    1    6    6    0    0  0.24559317164E+02  0.10240460321E+03  0.40255880302E+02  0.11274040410E+03  0.00000000000E+00 0.  1.
         14    1    6    6    0    0  0.45589173604E+02  0.28252133170E+02 -0.18448153038E+02  0.56717635080E+02  0.00000000000E+00 0. -1.
         -5    1    3    3    0  503 -0.37315735651E+02 -0.90386025608E+01  0.18649218871E+01  0.38726326924E+02  0.47000000000E+01 0.  1.
         13    1    4    4    0    0  0.43827823877E+02 -0.73724897613E+02  0.81356257515E+02  0.11821623962E+03  0.00000000000E+00 0. -1.
        -14    1    4    4    0    0 -0.25188299746E+02 -0.15725829737E+03  0.12192425528E+03  0.20057454116E+03  0.00000000000E+00 0.  1.
</event>
<event>
12    1  0.8494789E-002  0.1801033E+03  0.7818608E-02  0.1168054E+00
         21   -1    0    0  503  502  0.00000000000E+00  0.00000000000E+00  0.25546742390E+03  0.25546742390E+03  0.00000000000E+00 0.  1.
         21   -1    0    0  501  503 -0.00000000000E+00 -0.00000000000E+00 -0.46711668842E+03  0.46711668842E+03  0.00000000000E+00 0.  1.
          6    2    1    2  501    0  0.37181248450E+02  0.45409062470E+02 -0.41447253202E+03  0.45133792488E+03  0.16874245004E+03 0.  0.
         24    2    3    3    0    0  0.72070578405E+02  0.55255135301E+02 -0.38737628502E+03  0.40583509973E+03  0.79965265774E+02 0.  0.
         -6    2    1    2    0  502 -0.37181248450E+02 -0.45409062470E+02  0.20282326750E+03  0.27124618744E+03  0.17027268768E+03 0.  0.
        -24    2    5    5    0    0  0.38395998630E+02 -0.16310251435E+02  0.51193607540E+02  0.99280188303E+02  0.74131594639E+02 0.  0.
          5    1    3    3  501    0 -0.34889329955E+02 -0.98460728310E+01 -0.27096247004E+02  0.45502825150E+02  0.47000000000E+01 0. -1.
        -13    1    4    4    0    0  0.90252730969E+01  0.46091532174E+01 -0.21704508974E+03  0.21728154737E+03  0.00000000000E+00 0.  1.
         14    1    4    4    0    0  0.63045305308E+02  0.50645982084E+02 -0.17033119528E+03  0.18855355236E+03  0.00000000000E+00 0. -1.
         -5    1    5    5    0  502 -0.75577247080E+02 -0.29098811035E+02  0.15162965996E+03  0.17196599914E+03  0.47000000000E+01 0.  1.
         11    1    6    6    0    0  0.13971936342E+02 -0.31322955162E+02 -0.64516315090E+01  0.34899370687E+02  0.00000000000E+00 0. -1.
        -12    1    6    6    0    0  0.24424062288E+02  0.15012703727E+02  0.57645239049E+02  0.64380817616E+02  0.00000000000E+00 0.  1.
</event>
<event>
12    1  0.8494789E-002  0.2520904E+03  0.7818608E-02  0.1112090E+00
         21   -1    0    0  501  502  0.00000000000E+00  0.00000000000E+00  0.77761582572E+03  0.77761582572E+03  0.00000000000E+00 0.  1.
         21   -1    0    0  502  503 -0.00000000000E+00 -0.00000000000E+00 -0.10621611805E+03  0.10621611805E+03  0.00000000000E+00 0.  1.
         -6    2    1    2    0  503 -0.54553964102E+02  0.17630250301E+03  0.12227537090E+03  0.27960756513E+03  0.17079349104E+03 0.  0.
        -24    2    3    3    0    0 -0.74187843977E+02  0.81017034454E+02  0.17559555106E+02  0.13659602072E+03  0.79262468016E+02 0.  0.
          6    2    1    2  501    0  0.54553964102E+02 -0.17630250301E+03  0.54912433677E+03  0.60422437865E+03  0.17172901603E+03 0.  0.
         24    2    5    5    0    0  0.14233560218E+02 -0.15430722394E+03  0.52256410688E+03  0.55096029053E+03  0.80440551621E+02 0.  0.
          5    1    5    5  501    0  0.40320403883E+02 -0.21995279073E+02  0.26560229891E+02  0.53264088115E+02  0.47000000000E+01 0. -1.
        -11    1    6    6    0    0  0.10285135496E+02 -0.74110265789E+02  0.12761145865E+03  0.14792836066E+03  0.00000000000E+00 0.  1.
         12    1    6    6    0    0  0.39484247221E+01 -0.80196958150E+02  0.39495264823E+03  0.40303192987E+03  0.00000000000E+00 0. -1.
         -5    1    3    3    0  503  0.19633879876E+02  0.95285468558E+02  0.10471581579E+03  0.14301154441E+03  0.47000000000E+01 0.  1.
         13    1    4    4    0    0 -0.22291048455E+02  0.37900363134E+02  0.45766998126E+02  0.63466105004E+02  0.00000000000E+00 0. -1.
        -14    1    4    4    0    0 -0.51896795522E+02  0.43116671320E+02 -0.28207443021E+02  0.73129915718E+02  0.00000000000E+00 0.  1.
</event>
<event>
12    1  0.8494789E-002  0.2896016E+03  0.7818608E-02  0.1090652E+00
         21   -1    0    0  503  502  0.00000000000E+00  0.00000000000E+00  0.70734133277E+03  0.70734133277E+03  0.00000000000E+00 0.  1.
         21   -1    0    0  501  503 -0.00000000000E+00 -0.00000000000E+00 -0.17322784662E+03  0.17322784662E+03  0.00000000000E+00 0. -1.
          6    2    1    2  501    0  0.12301729680E+03 -0.19833386918E+03  0.19298165985E+02  0.29024388570E+03  0.17146286769E+03 0.  0.
         24    2    3    3    0    0 -0.32027104779E+01 -0.93894129359E+02  0.24477690808E+02  0.12626807355E+03  0.80734776697E+02 0.  0.
         -6    2    1    2    0  502 -0.12301729680E+03  0.19833386918E+03  0.51481532017E+03  0.59032529369E+03  0.17023383772E+03 0.  0.
        -24    2    5    5    0    0 -0.13698344770E+03  0.21051498209E+03  0.46487151629E+03  0.53684720071E+03  0.94965086334E+02 0.  0.
          5    1    3    3  501    0  0.12622000728E+03 -0.10443973982E+03 -0.51795248231E+01  0.16397581215E+03  0.47000000000E+01 0. -1.
        -11    1    4    4    0    0 -0.12697813721E+02 -0.33853403530E+02 -0.28183092945E+02  0.45842928918E+02  0.00000000000E+00 0.  1.
         12    1    4    4    0    0  0.94951032432E+01 -0.60040725829E+02  0.52660783753E+02  0.80425144632E+02  0.00000000000E+00 0. -1.
         -5    1    5    5    0  502  0.13966150899E+02 -0.12181112905E+02  0.49943803882E+02  0.53478092980E+02  0.47000000000E+01 0.  1.
         11    1    6    6    0    0 -0.78483827180E+02  0.40586045190E+02  0.13903949032E+03  0.16473893911E+03  0.00000000000E+00 0. -1.
        -12    1    6    6    0    0 -0.58499620523E+02  0.16992893690E+03  0.32583202598E+03  0.37210826160E+03  0.00000000000E+00 0.  1.
</event>
<event>
12    1  0.8494789E-002  0.1941467E+03  0.7818608E-02  0.1155452E+00
         21   -1    0    0  501  502  0.00000000000E+00  0.00000000000E+00  0.34281747725E+03  0.34281747725E+03  0.00000000000E+00 0. -1.
         21   -1    0    0  502  503 -0.00000000000E+00 -0.00000000000E+00 -0.11069870724E+03  0.11069870724E+03  0.00000000000E+00 0.  1.
         -6    2    1    2    0  503 -0.77058538253E+02 -0.37891800616E+02  0.81217559182E+02  0.20762163859E+03  0.17069459869E+03 0.  0.
        -24    2    3    3    0    0 -0.22380205688E+02  0.66584557999E+00 -0.93624197002E+01  0.94913011121E+02  0.91757876067E+02 0.  0.
          6    2    1    2  501    0  0.77058538253E+02  0.37891800616E+02  0.15090121082E+03  0.24589454590E+03  0.17412393690E+03 0.  0.
         24    2    5    5    0    0  0.83214268585E+02  0.82240258250E+02  0.82754546979E+02  0.16421996905E+03  0.80198557441E+02 0.  0.
          5    1    5    5  501    0 -0.61557303321E+01 -0.44348457634E+02  0.68146663842E+02  0.81674576847E+02  0.47000000000E+01 0. -1.
        -11    1    6    6    0    0  0.25266202973E+02  0.75809479550E+02  0.65764244199E+02  0.10349103351E+03  0.00000000000E+00 0.  1.
         12    1    6    6    0    0  0.57948065612E+02  0.64307786999E+01  0.16990302780E+02  0.60728935537E+02  0.00000000000E+00 0. -1.
         -5    1    3    3    0  503 -0.54678332565E+02 -0.38557646196E+02  0.90579978883E+02  0.11270862747E+03  0.47000000000E+01 0.  1.
         11    1    4    4    0    0 -0.60312373709E+01  0.12700764843E+01  0.41257312437E+02  0.41715162088E+02  0.00000000000E+00 0. -1.
        -12    1    4    4    0    0 -0.16348968317E+02 -0.60423090435E+00 -0.50619732137E+02  0.53197849033E+02  0.00000000000E+00 0.  1.
</event>
<event>
12    1  0.8494789E-002  0.1853720E+03  0.7818608E-02  0.1162707E+00
         21   -1    0    0  503  502  0.00000000000E+00  0.00000000000E+00  0.14404058968E+03  0.14404058968E+03  0.00000000000E+00 0.  1.
         21   -1    0    0  501  503 -0.00000000000E+00 -0.00000000000E+00 -0.28540608189E+03  0.28540608189E+03  0.00000000000E+00 0.  1.
          6    2    1    2  501    0  0.12544695535E+02 -0.67033159629E+02 -0.15768994091E+03  0.24335726545E+03  0.17235378530E+03 0.  0.
         24    2    3    3    0    0  0.46304791171E+02  0.14217366950E+02 -0.10877105503E+03  0.14257760718E+03  0.78428084556E+02 0.  0.
         -6    2    1    2    0  502 -0.12544695535E+02  0.67033159629E+02  0.16324448699E+02  0.18608940611E+03  0.17237159153E+03 0.  0.
        -24    2    5    5    0    0  0.44551457511E+02  0.84639409432E+02  0.28434315075E+02  0.12494458141E+03  0.75192926224E+02 0.  0.
          5    1    3    3  501    0 -0.33760095636E+02 -0.81250526579E+02 -0.48918885879E+02  0.10077965828E+03  0.47000000000E+01 0. -1.
        -13    1    4    4    0    0  0.40517299021E+02 -0.12964158246E+02 -0.15536178577E+02  0.45289002680E+02  0.00000000000E+00 0.  1.
         14    1    4    4    0    0  0.57874921498E+01  0.27181525196E+02 -0.93234876456E+02  0.97288604498E+02  0.00000000000E+00 0. -1.
         -5    1    5    5    0  502 -0.57096153045E+02 -0.17606249803E+02 -0.12109866377E+02  0.61144824706E+02  0.47000000000E+01 0.  1.
         13    1    6    6    0    0  0.16540659060E+02  0.88598125088E+02  0.89020576071E+01  0.90567476507E+02  0.00000000000E+00 0. -1.
        -14    1    6    6    0    0  0.28010798451E+02 -0.39587156567E+01  0.19532257468E+02  0.34377104900E+02  0.00000000000E+00 0.  1.
</event>
<event>
12    1  0.8494789E-002  0.1971840E+03  0.7818608E-02  0.1153521E+00
         21   -1    0    0  501  502  0.00000000000E+00  0.00000000000E+00  0.65064161984E+02  0.65064161984E+02  0.00000000000E+00 0.  1.
         21   -1    0    0  502  503 -0.00000000000E+00 -0.00000000000E+00 -0.58109474452E+03  0.58109474452E+03  0.00000000000E+00 0.  1.
         -6    2    1    2    0  503 -0.92416031122E+01  0.80700275499E+02 -0.28357890565E+03  0.34539617645E+03  0.17967632365E+03 0.  0.
        -24    2    3    3    0    0 -0.26178600031E+02  0.12015228754E+03 -0.17309926679E+03  0.22677424036E+03  0.79632334043E+02 0.  0.
          6    2    1    2  501    0  0.92416031122E+01 -0.80700275499E+02 -0.23245167689E+03  0.30076273005E+03  0.17270349159E+03 0.  0.
         24    2    5    5    0    0  0.69074181120E+02 -0.64084939264E+02 -0.12825536390E+03  0.17937505182E+03  0.82751730530E+02 0.  0.
          5    1    5    5  501    0 -0.59832578008E+02 -0.16615336236E+02 -0.10419631298E+03  0.12138767824E+03  0.47000000000E+01 0. -1.
        -13    1    6    6    0    0 -0.12644859892E+02 -0.34782885256E+02 -0.52003383330E+02  0.63828625758E+02  0.00000000000E+00 0.  1.
         14    1    6    6    0    0  0.81719041012E+02 -0.29302054007E+02 -0.76251980575E+02  0.11554642606E+03  0.00000000000E+00 0. -1.
         -5    1    3    3    0  503  0.16936996919E+02 -0.39452012045E+02 -0.11047963886E+03  0.11862193609E+03  0.47000000000E+01 0.  1.
         11    1    4    4    0    0 -0.21545123879E+02  0.23738814595E+00 -0.87033597332E+01  0.23237839545E+02  0.00000000000E+00 0. -1.
        -12    1    4    4    0    0 -0.46334761526E+01  0.11991489940E+03 -0.16439590706E+03  0.20353640081E+03  0.00000000000E+00 0.  1.
</event>
<event>
12    1  0.8494789E-002  0.2370515E+03  0.7818608E-02  0.1122600E+00
         21   -1    0    0  501  502  0.00000000000E+00  0.00000000000E+00  0.14432917274E+03  0.14432917274E+03  0.00000000000E+00 0. -1.
         21   -1    0    0  502  503 -0.00000000000E+00 -0.00000000000E+00 -0.38869463802E+03  0.38869463802E+03  0.00000000000E+00 0. -1.
         -6    2    1    2    0  503 -0.45447100773E+02  0.15117800234E+03 -0.87004382674E+02  0.25251371931E+03  0.17684227005E+03 0.  0.
        -24    2    3    3    0    0 -0.26314421051E+02  0.68986668413E+02 -0.11791217224E+03  0.16252007364E+03  0.84011218295E+02 0.  0.
          6    2    1    2  501    0  0.45447100773E+02 -0.15117800234E+03 -0.15736108261E+03  0.28051009145E+03  0.17030318178E+03 0.  0.
         24    2    5    5    0    0 -0.18623176392E+02 -0.12215220516E+03 -0.14966281733E+03  0.20959570217E+03  0.79141743438E+02 0.  0.
          5    1    5    5  501    0  0.64070277165E+02 -0.29025797179E+02 -0.76982652825E+01  0.70914389275E+02  0.47000000000E+01 0.  1.
        -13    1    6    6    0    0 -0.34967486561E+02 -0.45424875399E+02 -0.10419425288E+03  0.11892260826E+03  0.00000000000E+00 0.  1.
         14    1    6    6    0    0  0.16344310169E+02 -0.76727329760E+02 -0.45468564445E+02  0.90673093912E+02  0.00000000000E+00 0. -1.
         -5    1    3    3    0  503 -0.19132679722E+02  0.82191333925E+02  0.30907789568E+02  0.89993645674E+02  0.47000000000E+01 0.  1.
         13    1    4    4    0    0  0.31477705373E+01  0.80016925635E+02 -0.79088940914E+02  0.11255077708E+03  0.00000000000E+00 0. -1.
        -14    1    4    4    0    0 -0.29462191588E+02 -0.11030257222E+02 -0.38823231328E+02  0.49969296556E+02  0.00000000000E+00 0.  1.
</event>
<event>
12    1  0.8494789E-002  0.1774257E+03  0.7818608E-02  0.1170416E+00
         21   -1    0    0  503  502  0.00000000000E+00  0.00000000000E+00  0.97402897035E+02  0.97402897035E+02  0.00000000000E+00 0. -1.
         21   -1    0    0  501  503 -0.00000000000E+00 -0.00000000000E+00 -0.13036370198E+04  0.13036370198E+04  0.00000000000E+00 0. -1.
          6    2    1    2  501    0 -0.81969218964E+01  0.41126977953E+02 -0.12106842904E+04  0.12235583995E+04  0.17198862767E+03 0.  0.
         24    2    3    3    0    0  0.61225252374E+02  0.19936907986E+02 -0.60154088898E+03  0.61008775564E+03  0.78801120812E+02 0.  0.
         -6    2    1    2    0  502  0.81969218964E+01 -0.41126977953E+02  0.44501676655E+01  0.17748151733E+03  0.17239857064E+03 0.  0.
        -24    2    5    5    0    0  0.51407218798E+02 -0.15577009447E+02 -0.41949283859E+02  0.10896195990E+03  0.85015415788E+02 0.  0.
          5    1    3    3  501    0 -0.69422174270E+02  0.21190069967E+02 -0.60914340145E+03  0.61347064386E+03  0.47000000000E+01 0. -1.
        -13    1    4    4    0    0  0.35048369478E+02 -0.25794889477E+02 -0.17615698314E+03  0.18145260327E+03  0.00000000000E+00 0.  1.
         14    1    4    4    0    0  0.26176882896E+02  0.45731797462E+02 -0.42538390584E+03  0.42863515237E+03  0.00000000000E+00 0. -1.
         -5    1    5    5    0  502 -0.43210296901E+02 -0.25549968506E+02  0.46399451524E+02  0.68519557432E+02  0.47000000000E+01 0.  1.
         11    1    6    6    0    0  0.33808079630E+02 -0.12545345528E+02  0.22218117010E+02  0.42355833909E+02  0.00000000000E+00 0. -1.
        -12    1    6    6    0    0  0.17599139168E+02 -0.30316639183E+01 -0.64167400869E+02  0.66606125993E+02  0.00000000000E+00 0.  1.
</event>
<event>
12    1  0.8494789E-002  0.2060335E+03  0.7818608E-02  0.1145452E+00
         21   -1    0    0  501  502  0.00000000000E+00  0.00000000000E+00  0.69072691599E+02  0.69072691599E+02  0.00000000000E+00 0.  1.
         21   -1    0    0  502  503 -0.00000000000E+00 -0.00000000000E+00 -0.66055380170E+03  0.66055380170E+03  0.00000000000E+00 0.  1.
         -6    2    1    2    0  503 -0.10301911909E+03  0.29400176772E+02 -0.40445060639E+03  0.45390536400E+03  0.17598999165E+03 0.  0.
        -24    2    3    3    0    0  0.17881025490E+02  0.22993002894E+02 -0.16212323838E+03  0.18297633247E+03  0.79674240295E+02 0.  0.
          6    2    1    2  501    0  0.10301911909E+03 -0.29400176772E+02 -0.18703050370E+03  0.27572112930E+03  0.17194307934E+03 0.  0.
         24    2    5    5    0    0  0.12462743885E+03 -0.10426156641E+01 -0.91939185739E+02  0.17405737220E+03  0.79435945147E+02 0.  0.
          5    1    5    5  501    0 -0.21608319762E+02 -0.28357561108E+02 -0.95091317966E+02  0.10166375710E+03  0.47000000000E+01 0. -1.
        -13    1    6    6    0    0  0.99307073455E+02  0.18133462758E+02 -0.99138844864E+02  0.14148932070E+03  0.00000000000E+00 0.  1.
         14    1    6    6    0    0  0.25320365394E+02 -0.19176078422E+02  0.71996591253E+01  0.32568051505E+02  0.00000000000E+00 0. -1.
         -5    1    3    3    0  503 -0.12090014458E+03  0.64071738782E+01 -0.24232736801E+03  0.27092903152E+03  0.47000000000E+01 0.  1.
         13    1    4    4    0    0  0.32597845251E+02 -0.45034289186E+01 -0.22383030532E+02  0.39798246731E+02  0.00000000000E+00 0. -1.
        -14    1    4    4    0    0 -0.14716819761E+02  0.27496431813E+02 -0.13974020785E+03  0.14317808574E+03  0.00000000000E+00 0.  1.
</event>
<event>
12    1  0.8494789E-002  0.2155905E+03  0.7818608E-02  0.1137247E+00
         21   -1    0    0  501  502  0.00000000000E+00  0.00000000000E+00  0.68529112716E+02  0.68529112716E+02  0.00000000000E+00 0.  1.
         21   -1    0    0  502  503 -0.00000000000E+00 -0.00000000000E+00 -0.89094779961E+03  0.89094779961E+03  0.00000000000E+00 0.  1.
         -6    2    1    2    0  503 -0.87930439909E+02  0.95892570925E+02 -0.64604245730E+03  0.68106542137E+03  0.17190725446E+03 0.  0.
        -24    2    3    3    0    0 -0.18368655338E+02  0.11620278395E+03 -0.40009687790E+03  0.42462309910E+03  0.79917270280E+02 0.  0.
          6    2    1    2  501    0  0.87930439909E+02 -0.95892570925E+02 -0.17637622960E+03  0.27841149095E+03  0.17168936050E+03 0.  0.
         24    2    5    5    0    0  0.72735327765E+02 -0.11021832791E+03 -0.58888534984E+02  0.15898968754E+03  0.66116211922E+02 0.  0.
          5    1    5    5  501    0  0.15195112144E+02  0.14325756982E+02 -0.11748769461E+03  0.11942180342E+03  0.47000000000E+01 0. -1.
        -11    1    6    6    0    0  0.84899794168E+02 -0.94680497055E+02 -0.56342447419E+02  0.13909292920E+03  0.00000000000E+00 0.  1.
         12    1    6    6    0    0 -0.12164466403E+02 -0.15537830852E+02 -0.25460875657E+01  0.19896758337E+02  0.00000000000E+00 0. -1.
         -5    1    3    3    0  503 -0.69561784571E+02 -0.20310213023E+02 -0.24594557940E+03  0.25644232227E+03  0.47000000000E+01 0.  1.
         11    1    4    4    0    0  0.31347239661E+02  0.39842478481E+02 -0.12794096871E+03  0.13761890859E+03  0.00000000000E+00 0. -1.
        -12    1    4    4    0    0 -0.49715894999E+02  0.76360305467E+02 -0.27215590919E+03  0.28700419051E+03  0.00000000000E+00 0.  1.
</event>
<event>
12    1  0.8494789E-002  0.1791521E+03  0.7818608E-02  0.1169335E+00
         21   -1    0    0  503  502  0.00000000000E+00  0.00000000000E+00  0.96202155307E+02  0.96202155307E+02  0.00000000000E+00 0.  1.
         21   -1    0    0  501  503 -0.00000000000E+00 -0.00000000000E+00 -0.75619847357E+03  0.75619847357E+03  0.00000000000E+00 0.  1.
          6    2    1    2  501    0 -0.48969709332E+02 -0.51965817166E+01 -0.65177082150E+03  0.67594427781E+03  0.17225105533E+03 0.  0.
         24    2    3    3    0    0 -0.23320086122E+02  0.86728761904E+00 -0.13493911770E+03  0.15841961779E+03  0.79646915890E+02 0.  0.
         -6    2    1    2    0  502  0.48969709332E+02  0.51965817166E+01 -0.82254967688E+01  0.17645635107E+03  0.16924582163E+03 0.  0.
        -24    2    5    5    0    0  0.53130956764E+02 -0.56427646591E+02 -0.18250093313E+01  0.11418342168E+03  0.83830455453E+02 0.  0.
          5    1    3    3  501    0 -0.25649623210E+02 -0.60638693356E+01 -0.51683170380E+03  0.51752466002E+03  0.47000000000E+01 0. -1.
        -11    1    4    4    0    0 -0.48231922419E+02  0.11794991427E+02 -0.55587544940E+02  0.74534658485E+02  0.00000000000E+00 0.  1.
         12    1    4    4    0    0  0.24911836297E+02 -0.10927703808E+02 -0.79351572761E+02  0.83884959307E+02  0.00000000000E+00 0. -1.
         -5    1    5    5    0  502 -0.41612474319E+01  0.61624228307E+02 -0.64004874375E+01  0.62272929384E+02  0.47000000000E+01 0.  1.
         11    1    6    6    0    0  0.71360077247E+02 -0.21827352525E+02 -0.59358002363E+01  0.74859385967E+02  0.00000000000E+00 0. -1.
        -12    1    6    6    0    0 -0.18229120483E+02 -0.34600294065E+02  0.41107909050E+01  0.39324035714E+02  0.00000000000E+00 0.  1.
</event>
<event>
12    1  0.8494789E-002  0.1811888E+03  0.7818608E-02  0.1166990E+00
         21   -1    0    0  503  502  0.00000000000E+00  0.00000000000E+00  0.15245111979E+03  0.15245111979E+03  0.00000000000E+00 0. -1.
         21   -1    0    0  501  503 -0.00000000000E+00 -0.00000000000E+00 -0.65182991995E+03  0.65182991995E+03  0.00000000000E+00 0. -1.
          6    2    1    2  501    0  0.45256139786E+02  0.27166618137E+02 -0.57906851319E+03  0.60634208596E+03  0.17188437656E+03 0.  0.
         24    2    3    3    0    0  0.24157969032E+01  0.80894809686E+02 -0.39719792027E+03  0.41186582490E+03  0.72920940370E+02 0.  0.
         -6    2    1    2    0  502 -0.45256139786E+02 -0.27166618137E+02  0.79689713040E+02  0.19793895378E+03  0.17332984662E+03 0.  0.
        -24    2    5    5    0    0  0.34514493188E+02  0.20224575903E+01  0.72185140984E+02  0.11253541387E+03  0.79108686136E+02 0.  0.
          5    1    3    3  501    0  0.42840342883E+02 -0.53728191549E+02 -0.18187059292E+03  0.19447626106E+03  0.47000000000E+01 0. -1.
        -13    1    4    4    0    0 -0.11751536526E+02  0.20704146148E+02 -0.24831357698E+02  0.34399950634E+02  0.00000000000E+00 0.  1.
         14    1    4    4    0    0  0.14167333429E+02  0.60190663537E+02 -0.37236656257E+03  0.37746587427E+03  0.00000000000E+00 0. -1.
         -5    1    5    5    0  502 -0.79770632974E+02 -0.29189075728E+02  0.75045720560E+01  0.85403539907E+02  0.47000000000E+01 0.  1.
         13    1    6    6    0    0 -0.14262115843E+02 -0.14411880748E+02  0.54437232574E+02  0.58090640772E+02  0.00000000000E+00 0. -1.
        -14    1    6    6    0    0  0.48776609031E+02  0.16434338338E+02  0.17747908410E+02  0.54444773102E+02  0.00000000000E+00 0.  1.
</event>
<event>
12    1  0.8494789E-002  0.1868242E+03  0.7818608E-02  0.1162204E+00
         21   -1    0    0  501  502  0.00000000000E+00  0.00000000000E+00  0.20320142507E+03  0.20320142507E+03  0.00000000000E+00 0. -1.
         21   -1    0    0  502  503 -0.00000000000E+00 -0.00000000000E+00 -0.17785211268E+04  0.17785211268E+04  0.00000000000E+00 0. -1.
         -6    2    1    2    0  503 -0.70005413386E+02  0.22534644546E+02 -0.17311620599E+04  0.17412137562E+04  0.17174020789E+03 0.  0.
        -24    2    3    3    0    0 -0.16083209548E+01  0.74939715295E+01 -0.38829056299E+03  0.39650920451E+03  0.79945241568E+02 0.  0.
          6    2    1    2  501    0  0.70005413386E+02 -0.22534644546E+02  0.15584235822E+03  0.24050879562E+03  0.16777685194E+03 0.  0.
         24    2    5    5    0    0  0.11685217279E+02 -0.50176677429E+02  0.14375408915E+03  0.17467914041E+03  0.84813446376E+02 0.  0.
          5    1    5    5  501    0  0.58320196107E+02  0.27642032883E+02  0.12088269066E+02  0.65829655209E+02  0.47000000000E+01 0. -1.
        -13    1    6    6    0    0 -0.20861000212E+02 -0.33349006183E+02  0.17207588630E+02  0.42935284437E+02  0.00000000000E+00 0.  1.
         14    1    6    6    0    0  0.32546217491E+02 -0.16827671247E+02  0.12654650052E+03  0.13174385597E+03  0.00000000000E+00 0. -1.
         -5    1    3    3    0  503 -0.68397092431E+02  0.15040673017E+02 -0.13428714969E+04  0.13447045517E+04  0.47000000000E+01 0.  1.
         11    1    4    4    0    0 -0.21950675605E+02 -0.13262314999E+02 -0.33352882974E+03  0.33451338005E+03  0.00000000000E+00 0. -1.
        -12    1    4    4    0    0  0.20342354650E+02  0.20756286529E+02 -0.54761733246E+02  0.61995824467E+02  0.00000000000E+00 0.  1.
</event>
<event>
12    1  0.8494789E-002  0.2071178E+03  0.7818608E-02  0.1143943E+00
         21   -1    0    0  503  502  0.00000000000E+00  0.00000000000E+00  0.54536994359E+02  0.54536994359E+02  0.00000000000E+00 0.  1.
         21   -1    0    0  501  503 -0.00000000000E+00 -0.00000000000E+00 -0.79168842437E+03  0.79168842437E+03  0.00000000000E+00 0. -1.
          6    2    1    2  501    0  0.30034487293E+02  0.11228663804E+03 -0.32990512689E+03  0.38933664216E+03  0.17098324091E+03 0.  0.
         24    2    3    3    0    0  0.39726423333E+02  0.14276555348E+03 -0.23652463779E+03  0.29051911509E+03  0.80605582835E+02 0.  0.
         -6    2    1    2    0  502 -0.30034487293E+02 -0.11228663804E+03 -0.40724630312E+03  0.45688877657E+03  0.17142766183E+03 0.  0.
        -24    2    5    5    0    0  0.15014556140E+02 -0.90346744775E+02 -0.38137888036E+03  0.40030265821E+03  0.80027474018E+02 0.  0.
          5    1    3    3  501    0 -0.96919360402E+01 -0.30478915438E+02 -0.93380489106E+02  0.98817527069E+02  0.47000000000E+01 0. -1.
        -13    1    4    4    0    0 -0.23053267193E+02  0.31307705384E+02 -0.38115928288E+02  0.54446758709E+02  0.00000000000E+00 0.  1.
         14    1    4    4    0    0  0.62779690526E+02  0.11145784809E+03 -0.19840870950E+03  0.23607235639E+03  0.00000000000E+00 0. -1.
         -5    1    5    5    0  502 -0.45049043434E+02 -0.21939893265E+02 -0.25867422764E+02  0.56586118361E+02  0.47000000000E+01 0.  1.
         11    1    6    6    0    0 -0.30441707447E+02 -0.35673615542E+02 -0.10633530394E+03  0.11621747399E+03  0.00000000000E+00 0. -1.
        -12    1    6    6    0    0  0.45456263588E+02 -0.54673129233E+02 -0.27504357642E+03  0.28408518421E+03  0.00000000000E+00 0.  1.
</event>
<event>
12    1  0.8494789E-002  0.3211320E+03  0.7818608E-02  0.1075227E+00
         21   -1    0    0  503  502  0.00000000000E+00  0.00000000000E+00  0.57133977158E+03  0.57133977158E+03  0.00000000000E+00 0. -1.
         21   -1    0    0  501  503 -0.00000000000E+00 -0.00000000000E+00 -0.18958445476E+03  0.18958445476E+03  0.00000000000E+00 0.  1.
          6    2    1    2  501    0 -0.23595226995E+03  0.13555363276E+03  0.27657834028E+03  0.42381758003E+03  0.17052126490E+03 0.  0.
         24    2    3    3    0    0 -0.72460738671E+02  0.19188691842E+02  0.48856476439E+02  0.12025602524E+03  0.80347941942E+02 0.  0.
         -6    2    1    2    0  502  0.23595226995E+03 -0.13555363276E+03  0.10517697655E+03  0.33710664631E+03  0.16890954247E+03 0.  0.
        -24    2    5    5    0    0  0.17613895793E+03 -0.30551513664E+02  0.90631078472E+02  0.21530044589E+03  0.78625454700E+02 0.  0.
          5    1    3    3  501    0 -0.16349153128E+03  0.11636494092E+03  0.22772186384E+03  0.30356155479E+03  0.47000000000E+01 0. -1.
        -11    1    4    4    0    0 -0.52101749705E+02 -0.14861194388E+02  0.58182375728E+02  0.79502429311E+02  0.00000000000E+00 0.  1.
         12    1    4    4    0    0 -0.20358988965E+02  0.34049886230E+02 -0.93258992883E+01  0.40753595934E+02  0.00000000000E+00 0. -1.
         -5    1    5    5    0  502  0.59813312026E+02 -0.10500211910E+03  0.14545898076E+02  0.12180620042E+03  0.47000000000E+01 0.  1.
         11    1    6    6    0    0 -0.67655493879E+01  0.53871241939E+01  0.18883032476E+01  0.88520875930E+01  0.00000000000E+00 0. -1.
        -12    1    6    6    0    0  0.18290450732E+03 -0.35938637858E+02  0.88742775225E+02  0.20644835829E+03  0.00000000000E+00 0.  1.
</event>
<event>
12    1  0.8494789E-002  0.2659745E+03  0.7818608E-02  0.1103613E+00
         21   -1    0    0  501  502  0.00000000000E+00  0.00000000000E+00  0.76282531374E+02  0.76282531374E+02  0.00000000000E+00 0.  1.
         21   -1    0    0  502  503 -0.00000000000E+00 -0.00000000000E+00 -0.13064557976E+04  0.13064557976E+04  0.00000000000E+00 0. -1.
         -6    2    1    2    0  503 -0.16929718340E+03 -0.10492614875E+03 -0.98754956479E+03  0.10227262568E+04  0.17619256613E+03 0.  0.
        -24    2    3    3    0    0 -0.17820571304E+03 -0.91785903666E+02 -0.66541647667E+03  0.70016797613E+03  0.85288798263E+02 0.  0.
          6    2    1    2  501    0  0.16929718340E+03  0.10492614875E+03 -0.24262370148E+03  0.36001207225E+03  0.17627081054E+03 0.  0.
         24    2    5    5    0    0  0.12172744214E+02  0.65324399706E+02 -0.89548621040E+02  0.13705364974E+03  0.79682460294E+02 0.  0.
          5    1    5    5  501    0  0.15712443918E+03  0.39601749049E+02 -0.15307508044E+03  0.22295842251E+03  0.47000000000E+01 0. -1.
        -11    1    6    6    0    0 -0.18189525707E+01  0.48817680195E+02 -0.42307023024E+01  0.49034409653E+02  0.00000000000E+00 0.  1.
         12    1    6    6    0    0  0.13991696785E+02  0.16506719512E+02 -0.85317918738E+02  0.88019240088E+02  0.00000000000E+00 0. -1.
         -5    1    3    3    0  503  0.89085296405E+01 -0.13140245089E+02 -0.32213308813E+03  0.32255828064E+03  0.47000000000E+01 0.  1.
         13    1    4    4    0    0 -0.81034675115E+02  0.43225761537E+01 -0.24299910619E+03  0.25619107878E+03  0.00000000000E+00 0. -1.
        -14    1    4    4    0    0 -0.97171037925E+02 -0.96108479819E+02 -0.42241737047E+03  0.44397689735E+03  0.00000000000E+00 0.  1.
</event>
<event>
12    1  0.8494789E-002  0.1867632E+03  0.7818608E-02  0.1162364E+00
         21   -1    0    0  501  502  0.00000000000E+00  0.00000000000E+00  0.65946664511E+02  0.65946664511E+02  0.00000000000E+00 0. -1.
         21   -1    0    0  502  503 -0.00000000000E+00 -0.00000000000E+00 -0.57323198601E+03  0.57323198601E+03  0.00000000000E+00 0. -1.
         -6    2    1    2    0  503 -0.67626020712E+02 -0.84251703053E+01 -0.35586591413E+03  0.40189682373E+03  0.17388572658E+03 0.  0.
        -24    2    3    3    0    0 -0.11385101292E+03 -0.52107571463E+01 -0.24543302782E+03  0.28204443645E+03  0.79514073322E+02 0.  0.
          6    2    1    2  501    0  0.67626020712E+02  0.84251703053E+01 -0.15141940737E+03  0.23728182680E+03  0.16950093282E+03 0.  0.
         24    2    5    5    0    0  0.74351806387E+02 -0.27698737554E+02 -0.16352508980E+03  0.19830990794E+03  0.79315530741E+02 0.  0.
          5    1    5    5  501    0 -0.67257856755E+01  0.36123907860E+02  0.12105682437E+02  0.38971918855E+02  0.47000000000E+01 0. -1.
        -13    1    6    6    0    0  0.16147872907E+02 -0.46940572642E+02 -0.58698330275E+02  0.76874346413E+02  0.00000000000E+00 0.  1.
         14    1    6    6    0    0  0.58203933480E+02  0.19241835087E+02 -0.10482675953E+03  0.12143556153E+03  0.00000000000E+00 0. -1.
         -5    1    3    3    0  503  0.46224992203E+02 -0.32144131590E+01 -0.11043288631E+03  0.11985238727E+03  0.47000000000E+01 0.  1.
         13    1    4    4    0    0 -0.22869536833E+02 -0.74584607109E+01 -0.14305308211E+03  0.14506146508E+03  0.00000000000E+00 0. -1.
        -14    1    4    4    0    0 -0.90981476082E+02  0.22477035646E+01 -0.10237994572E+03  0.13698297137E+03  0.00000000000E+00 0.  1.
</event>
<event>
12    1  0.8494789E-002  0.1748902E+03  0.7818608E-02  0.1172938E+00
         21   -1    0    0  501  502  0.00000000000E+00  0.00000000000E+00  0.25148720769E+03  0.25148720769E+03  0.00000000000E+00 0. -1.
         21   -1    0    0  502  503 -0.00000000000E+00 -0.00000000000E+00 -0.16579888841E+03  0.16579888841E+03  0.00000000000E+00 0. -1.
         -6    2    1    2    0  503  0.18038263484E+01 -0.33904706464E+02 -0.65209789446E+02  0.18629516280E+03  0.17117472983E+03 0.  0.
        -24    2    3    3    0    0 -0.63906934169E+02  0.37949886616E+00 -0.36399493164E+02  0.10663693061E+03  0.77215747189E+02 0.  0.
          6    2    1    2  501    0 -0.18038263484E+01  0.33904706464E+02  0.15089810873E+03  0.23099093331E+03  0.17156278484E+03 0.  0.
         24    2    5    5    0    0 -0.28595208420E+02  0.54631000668E+02  0.16082230057E+03  0.19538283018E+03  0.92241020088E+02 0.  0.
          5    1    5    5  501    0  0.26791382071E+02 -0.20726294203E+02 -0.99241918477E+01  0.35608103130E+02  0.47000000000E+01 0. -1.
        -11    1    6    6    0    0 -0.36140528549E+02 -0.71038569040E+01  0.10690227544E+03  0.11306944363E+03  0.00000000000E+00 0.  1.
         12    1    6    6    0    0  0.75453201290E+01  0.61734857572E+02  0.53920025130E+02  0.82313386550E+02  0.00000000000E+00 0. -1.
         -5    1    3    3    0  503  0.65710760517E+02 -0.34284205331E+02 -0.28810296282E+02  0.79658232185E+02  0.47000000000E+01 0.  1.
         13    1    4    4    0    0 -0.36351161963E+02 -0.97217241223E+01  0.20326908181E+02  0.42768003135E+02  0.00000000000E+00 0. -1.
        -14    1    4    4    0    0 -0.27555772206E+02  0.10101222988E+02 -0.56726401345E+02  0.63868927479E+02  0.00000000000E+00 0.  1.
</event>
<event>
12    1  0.8494789E-002  0.2034018E+03  0.7818608E-02  0.1147039E+00
         21   -1    0    0  501  502  0.00000000000E+00  0.00000000000E+00  0.52857408080E+02  0.52857408080E+02  0.00000000000E+00 0.  1.
         21   -1    0    0  502  503 -0.00000000000E+00 -0.00000000000E+00 -0.79436622743E+03  0.79436622743E+03  0.00000000000E+00 0. -1.
         -6    2    1    2    0  503 -0.10605657089E+03 -0.11706853738E+02 -0.31345860124E+03  0.37330456959E+03  0.17238027826E+03 0.  0.
        -24    2    3    3    0    0 -0.14202706562E+03 -0.12249860628E+02 -0.26418058856E+03  0.31211156442E+03  0.85442956531E+02 0.  0.
          6    2    1    2  501    0  0.10605657089E+03  0.11706853738E+02 -0.42805021811E+03  0.47391906592E+03  0.17316825681E+03 0.  0.
         24    2    5    5    0    0  0.57713729101E+02  0.19437367839E+02 -0.85621518735E+02  0.12797644733E+03  0.73063265777E+02 0.  0.
          5    1    5    5  501    0  0.48342841787E+02 -0.77305141002E+01 -0.34242869938E+03  0.34594261859E+03  0.47000000000E+01 0. -1.
        -11    1    6    6    0    0 -0.12199896372E+02  0.59772462815E+01  0.33815320987E+01  0.13999989426E+02  0.00000000000E+00 0.  1.
         12    1    6    6    0    0  0.69913625473E+02  0.13460121557E+02 -0.89003050834E+02  0.11397645791E+03  0.00000000000E+00 0. -1.
         -5    1    3    3    0  503  0.35970494731E+02  0.54300688952E+00 -0.49278012678E+02  0.61193005165E+02  0.47000000000E+01 0.  1.
         13    1    4    4    0    0  0.78696402110E+01  0.88987817692E+01 -0.72974242100E+01  0.13941734258E+02  0.00000000000E+00 0. -1.
        -14    1    4    4    0    0 -0.14989670583E+03 -0.21148642397E+02 -0.25688316435E+03  0.29816983016E+03  0.00000000000E+00 0.  1.
</event>
<event>
12    1  0.8494789E-002  0.1939094E+03  0.7818608E-02  0.1155122E+00
         21   -1    0    0  503  502  0.00000000000E+00  0.00000000000E+00  0.15230016910E+03  0.15230016910E+03  0.00000000000E+00 0. -1.
         21   -1    0    0  501  503 -0.00000000000E+00 -0.00000000000E+00 -0.34192956583E+03  0.34192956583E+03  0.00000000000E+00 0. -1.
          6    2    1    2  501    0  0.60515521014E+02  0.61215342132E+02 -0.22553922047E+03  0.29702330675E+03  0.17304756104E+03 0.  0.
         24    2    3    3    0    0  0.47504862710E+02 -0.13343917388E+02 -0.19408684150E+03  0.21492761531E+03  0.78034644017E+02 0.  0.
         -6    2    1    2    0  502 -0.60515521014E+02 -0.61215342132E+02  0.35909823750E+02  0.19720642818E+03  0.17375676528E+03 0.  0.
        -24    2    5    5    0    0  0.55126969485E+01 -0.17215381615E+02 -0.38213523746E+02  0.88523022197E+02  0.77777200194E+02 0.  0.
          5    1    3    3  501    0  0.13010658304E+02  0.74559259520E+02 -0.31452378979E+02  0.82095691441E+02  0.47000000000E+01 0. -1.
        -11    1    4    4    0    0  0.16262727938E+01  0.27982962151E+02 -0.85926027766E+02  0.90382372074E+02  0.00000000000E+00 0.  1.
         12    1    4    4    0    0  0.45878589916E+02 -0.41326879539E+02 -0.10816081373E+03  0.12454524323E+03  0.00000000000E+00 0. -1.
         -5    1    5    5    0  502 -0.66028217963E+02 -0.43999960518E+02  0.74123347497E+02  0.10868340599E+03  0.47000000000E+01 0.  1.
         11    1    6    6    0    0 -0.15091561316E+02 -0.36969003539E+02  0.10931801304E+01  0.39945681724E+02  0.00000000000E+00 0. -1.
        -12    1    6    6    0    0  0.20604258264E+02  0.19753621924E+02 -0.39306703877E+02  0.48577340473E+02  0.00000000000E+00 0.  1.
</event>
<event>
12    1  0.8494789E-002  0.1967674E+03  0.7818608E-02  0.1152639E+00
         21   -1    0    0  503  502  0.00000000000E+00  0.00000000000E+00  0.12230612232E+03  0.12230612232E+03  0.00000000000E+00 0. -1.
         21   -1    0    0  501  503 -0.00000000000E+00 -0.00000000000E+00 -0.90888285460E+03  0.90888285460E+03  0.00000000000E+00 0. -1.
          6    2    1    2  501    0 -0.64567860706E+02 -0.76323219918E+02 -0.81012633345E+03  0.83367983650E+03  0.16947905802E+03 0.  0.
         24    2    3    3    0    0 -0.49689057700E+02 -0.68689988429E+02 -0.28277285802E+03  0.30604035442E+03  0.80702492755E+02 0.  0.
         -6    2    1    2    0  502  0.64567860706E+02  0.76323219918E+02  0.23549601162E+02  0.19750914042E+03  0.16870398425E+03 0.  0.
        -24    2    5    5    0    0  0.97803647589E+02  0.52860072439E+02 -0.17178833359E+02  0.13975074538E+03  0.82918139022E+02 0.  0.
          5    1    3    3  501    0 -0.14878803006E+02 -0.76332314893E+01 -0.52735347543E+03  0.52763948208E+03  0.47000000000E+01 0. -1.
        -11    1    4    4    0    0 -0.46998045421E+02 -0.86022597647E+02 -0.21973952202E+03  0.24061205522E+03  0.00000000000E+00 0.  1.
         12    1    4    4    0    0 -0.26910122790E+01  0.17332609218E+02 -0.63033335991E+02  0.65428299195E+02  0.00000000000E+00 0. -1.
         -5    1    5    5    0  502 -0.33235786883E+02  0.23463147479E+02  0.40728434521E+02  0.57758395042E+02  0.47000000000E+01 0.  1.
         13    1    6    6    0    0  0.26001828440E+02  0.96994654493E+01  0.32197356372E+02  0.42506993184E+02  0.00000000000E+00 0. -1.
        -14    1    6    6    0    0  0.71801819149E+02  0.43160606990E+02 -0.49376189731E+02  0.97243752196E+02  0.00000000000E+00 0.  1.
</event>
<event>
12    1  0.8494789E-002  0.2001014E+03  0.7818608E-02  0.1150058E+00
         21   -1    0    0  503  502  0.00000000000E+00  0.00000000000E+00  0.29535360645E+02  0.29535360645E+02  0.00000000000E+00 0.  1.
         21   -1    0    0  501  503 -0.00000000000E+00 -0.00000000000E+00 -0.15172739516E+04  0.15172739516E+04  0.00000000000E+00 0.  1.
          6    2    1    2  501    0  0.77866045963E+02 -0.57515985293E+02 -0.10093137225E+04  0.10289580910E+04  0.17512667685E+03 0.  0.
         24    2    3    3    0    0  0.50625453997E+02  0.32603956380E+02 -0.36057313221E+03  0.37340481535E+03  0.76106621852E+02 0.  0.
         -6    2    1    2    0  502 -0.77866045963E+02  0.57515985293E+02 -0.47842486846E+03  0.51785122124E+03  0.17294022928E+03 0.  0.
        -24    2    5    5    0    0 -0.10463110324E+03  0.86338370303E+02 -0.40042008247E+03  0.43036445192E+03  0.80469479190E+02 0.  0.
          5    1    3    3  501    0  0.27240591966E+02 -0.90119941673E+02 -0.64874059029E+03  0.65555327566E+03  0.47000000000E+01 0. -1.
        -11    1    4    4    0    0  0.41927784087E+02  0.75346735157E+01 -0.33076484472E+03  0.33349676594E+03  0.00000000000E+00 0.  1.
         12    1    4    4    0    0  0.86976699102E+01  0.25069282865E+02 -0.29808287488E+02  0.39908049416E+02  0.00000000000E+00 0. -1.
         -5    1    5    5    0  502  0.26765057277E+02 -0.28822385010E+02 -0.78004785993E+02  0.87486769323E+02  0.47000000000E+01 0.  1.
         13    1    6    6    0    0  0.63132442656E+01  0.17703736389E+02 -0.16947006058E+02  0.25307713244E+02  0.00000000000E+00 0. -1.
        -14    1    6    6    0    0 -0.11094434751E+03  0.68634633914E+02 -0.38347307641E+03  0.40505673868E+03  0.00000000000E+00 0.  1.
</event>
<event>
12    1  0.8494789E-002  0.2420796E+03  0.7818608E-02  0.1118499E+00
         21   -1    0    0  503  502  0.00000000000E+00  0.00000000000E+00  0.39060236247E+03  0.39060236247E+03  0.00000000000E+00 0. -1.
         21   -1    0    0  501  503 -0.00000000000E+00 -0.00000000000E+00 -0.15086502890E+03  0.15086502890E+03  0.00000000000E+00 0.  1.
          6    2    1    2  501    0 -0.16983823340E+03  0.11488066120E+02  0.14360412426E+03  0.28146882137E+03  0.17212074748E+03 0.  0.
         24    2    3    3    0    0 -0.12190472360E+02 -0.11258798865E+02  0.34819467788E+02  0.88527307147E+02  0.79682624237E+02 0.  0.
         -6    2    1    2    0  502  0.16983823340E+03 -0.11488066120E+02  0.96133209313E+02  0.25999857000E+03  0.17140787987E+03 0.  0.
        -24    2    5    5    0    0  0.17622961439E+02  0.15679507879E+02  0.44394367669E+02  0.96883384225E+02  0.82819771316E+02 0.  0.
          5    1    3    3  501    0 -0.15764776104E+03  0.22746864985E+02  0.10878465648E+03  0.19294151423E+03  0.47000000000E+01 0. -1.
        -11    1    4    4    0    0 -0.24650751403E+02 -0.96812395927E+01 -0.19427529887E+02  0.32845317205E+02  0.00000000000E+00 0.  1.
         12    1    4    4    0    0  0.12460279044E+02 -0.15775592725E+01  0.54246997675E+02  0.55681989942E+02  0.00000000000E+00 0. -1.
         -5    1    5    5    0  502  0.15221527196E+03 -0.27167573999E+02  0.51738841644E+02  0.16311518577E+03  0.47000000000E+01 0.  1.
         13    1    6    6    0    0  0.93704619891E+01  0.16181616589E+01  0.67742147674E+02  0.68406305094E+02  0.00000000000E+00 0. -1.
        -14    1    6    6    0    0  0.82524994496E+01  0.14061346220E+02 -0.23347780005E+02  0.28477079131E+02  0.00000000000E+00 0.  1.
</event>
<event>
12    1  0.8494789E-002  0.2041297E+03  0.7818608E-02  0.1148486E+00
         21   -1    0    0  503  502  0.00000000000E+00  0.00000000000E+00  0.28114555843E+03  0.28114555843E+03  0.00000000000E+00 0. -1.
         21   -1    0    0  501  503 -0.00000000000E+00 -0.00000000000E+00 -0.17525979987E+03  0.17525979987E+03  0.00000000000E+00 0. -1.
          6    2    1    2  501    0  0.73045393907E+02  0.50227429407E+02 -0.49334900406E+02  0.19996354532E+03  0.17231675143E+03 0.  0.
         24    2    3    3    0    0  0.71223429394E+02 -0.19678952964E+02 -0.69473161235E+02  0.12703987701E+03  0.76502105421E+02 0.  0.
         -6    2    1    2    0  502 -0.73045393907E+02 -0.50227429407E+02  0.15522065897E+03  0.25644181298E+03  0.18387638847E+03 0.  0.
        -24    2    5    5    0    0 -0.35069470494E+02  0.33079175825E+02  0.23127936998E+02  0.95653945174E+02  0.79313782683E+02 0.  0.
          5    1    3    3  501    0  0.18219645131E+01  0.69906382371E+02  0.20138260829E+02  0.72923668312E+02  0.47000000000E+01 0. -1.
        -13    1    4    4    0    0  0.22844980728E+02  0.18986355555E+02  0.50618291426E+01  0.30132987837E+02  0.00000000000E+00 0.  1.
         14    1    4    4    0    0  0.48378448666E+02 -0.38665308519E+02 -0.74534990378E+02  0.96906889171E+02  0.00000000000E+00 0. -1.
         -5    1    5    5    0  502 -0.37975923413E+02 -0.83306605233E+02  0.13209272197E+03  0.16078786780E+03  0.47000000000E+01 0.  1.
         13    1    6    6    0    0 -0.16947968289E+02 -0.24626260773E+02  0.18132908402E+02  0.34964106107E+02  0.00000000000E+00 0. -1.
        -14    1    6    6    0    0 -0.18121502205E+02  0.57705436598E+02  0.49950285965E+01  0.60689839066E+02  0.00000000000E+00 0.  1.
</event>
<event>
12    1  0.8494789E-002  0.2192964E+03  0.7818608E-02  0.1134886E+00
         21   -1    0    0  501  502  0.00000000000E+00  0.00000000000E+00  0.35343716741E+03  0.35343716741E+03  0.00000000000E+00 0.  1.
         21   -1    0    0  502  503 -0.00000000000E+00 -0.00000000000E+00 -0.23783062553E+03  0.23783062553E+03  0.00000000000E+00 0. -1.
         -6    2    1    2    0  503  0.12824345715E+03  0.45799975833E+02 -0.13687134785E+03  0.25850470863E+03  0.17189210695E+03 0.  0.
        -24    2    3    3    0    0  0.15155720555E+03  0.19558656657E+02 -0.13991362203E+03  0.22295920077E+03  0.82358095978E+02 0.  0.
          6    2    1    2  501    0 -0.12824345715E+03 -0.45799975833E+02  0.25247788973E+03  0.33276308432E+03  0.16864804593E+03 0.  0.
         24    2    5    5    0    0 -0.15678481554E+03 -0.58789789810E+02  0.22304118587E+03  0.28949700130E+03  0.77610729895E+02 0.  0.
          5    1    5    5  501    0  0.28541358391E+02  0.12989813977E+02  0.29436703858E+02  0.43266083021E+02  0.47000000000E+01 0. -1.
        -13    1    6    6    0    0 -0.17073124428E+02 -0.30599836533E+02  0.81103667984E+02  0.88349570084E+02  0.00000000000E+00 0.  1.
         14    1    6    6    0    0 -0.13971169111E+03 -0.28189953277E+02  0.14193751789E+03  0.20114743121E+03  0.00000000000E+00 0. -1.
         -5    1    3    3    0  503 -0.23313748401E+02  0.26241319176E+02  0.30422741818E+01  0.35545507856E+02  0.47000000000E+01 0.  1.
         13    1    4    4    0    0  0.55377550469E+02 -0.29750967410E+02 -0.33284505097E+02  0.71131226879E+02  0.00000000000E+00 0. -1.
        -14    1    4    4    0    0  0.96179655083E+02  0.49309624067E+02 -0.10662911694E+03  0.15182797389E+03  0.00000000000E+00 0.  1.
</event>
<event>
12    1  0.8494789E-002  0.1990663E+03  0.7818608E-02  0.1150606E+00
         21   -1    0    0  501  502  0.00000000000E+00  0.00000000000E+00  0.43758379404E+03  0.43758379404E+03  0.00000000000E+00 0. -1.
         21   -1    0    0  502  503 -0.00000000000E+00 -0.00000000000E+00 -0.12699963599E+03  0.12699963599E+03  0.00000000000E+00 0. -1.
         -6    2    1    2    0  503  0.36749679580E+01 -0.99812346940E+02  0.38405526792E+01  0.19910333040E+03  0.17219575006E+03 0.  0.
        -24    2    3    3    0    0 -0.44512776455E+02 -0.29823697024E+02 -0.39153904863E+02  0.10375615840E+03  0.79758836298E+02 0.  0.
          6    2    1    2  501    0 -0.36749679580E+01  0.99812346940E+02  0.30674360538E+03  0.36548009963E+03  0.17177908428E+03 0.  0.
         24    2    5    5    0    0 -0.27327283093E+02  0.12463017110E+01  0.78962066086E+02  0.11611848084E+03  0.80623570022E+02 0.  0.
          5    1    5    5  501    0  0.23652315135E+02  0.98566045229E+02  0.22778153929E+03  0.24936161879E+03  0.47000000000E+01 0. -1.
        -11    1    6    6    0    0  0.26016094573E+02  0.13927234578E+02  0.35424571901E+02  0.46105372075E+02  0.00000000000E+00 0.  1.
         12    1    6    6    0    0 -0.53343377666E+02 -0.12680932867E+02  0.43537494184E+02  0.70013108766E+02  0.00000000000E+00 0. -1.
         -5    1    3    3    0  503  0.48187744413E+02 -0.69988649916E+02  0.42994457542E+02  0.95347171998E+02  0.47000000000E+01 0.  1.
         11    1    4    4    0    0 -0.65897913709E+02 -0.27527238394E+02 -0.40687598903E+02  0.82193458312E+02  0.00000000000E+00 0. -1.
        -12    1    4    4    0    0  0.21385137254E+02 -0.22964586296E+01  0.15336940396E+01  0.21562700086E+02  0.00000000000E+00 0.  1.
</event>
<event>
12    1  0.8494789E-002  0.2934265E+03  0.7818608E-02  0.1088652E+00
         21   -1    0    0  501  502  0.00000000000E+00  0.00000000000E+00  0.24092172255E+03  0.24092172255E+03  0.00000000000E+00 0.  1.
         21   -1    0    0  502  503 -0.00000000000E+00 -0.00000000000E+00 -0.49112715343E+03  0.49112715343E+03  0.00000000000E+00 0. -1.
         -6    2    1    2    0  503 -0.99153321456E+02 -0.21618135200E+03 -0.31654858820E+03  0.43121582735E+03  0.17081663547E+03 0.  0.
        -24    2    3    3    0    0 -0.13439609100E+03 -0.16433351308E+03 -0.27059502426E+03  0.35334368056E+03  0.81007880110E+02 0.  0.
          6    2    1    2  501    0  0.99153321456E+02  0.21618135200E+03  0.66343157313E+02  0.30083304863E+03  0.17185270007E+03 0.  0.
         24    2    5    5    0    0  0.96266836648E+02  0.12323116347E+03  0.10363282299E+03  0.20053011494E+03  0.70847311229E+02 0.  0.
          5    1    5    5  501    0  0.28864848075E+01  0.92950188530E+02 -0.37289665673E+02  0.10030293370E+03  0.47000000000E+01 0. -1.
        -11    1    6    6    0    0  0.94013293586E+02  0.73351492656E+02  0.56828290086E+02  0.13209237449E+03  0.00000000000E+00 0.  1.
         12    1    6    6    0    0  0.22535430622E+01  0.49879670812E+02  0.46804532901E+02  0.68437740441E+02  0.00000000000E+00 0. -1.
         -5    1    3    3    0  503  0.35242769549E+02 -0.51847838919E+02 -0.45953563940E+02  0.77872146785E+02  0.47000000000E+01 0.  1.
         11    1    4    4    0    0 -0.12411750331E+03 -0.14989183252E+03 -0.19423961897E+03  0.27495771613E+03  0.00000000000E+00 0. -1.
        -12    1    4    4    0    0 -0.10278587697E+02 -0.14441680559E+02 -0.76355405288E+02  0.78385964427E+02  0.00000000000E+00 0.  1.
</event>
<event>
12    1  0.8494789E-002  0.3763288E+03  0.7818608E-02  0.1052765E+00
         21   -1    0    0  501  502  0.00000000000E+00  0.00000000000E+00  0.23259048991E+03  0.23259048991E+03  0.00000000000E+00 0. -1.
         21   -1    0    0  502  503 -0.00000000000E+00 -0.00000000000E+00 -0.60123172737E+03  0.60123172737E+03  0.00000000000E+00 0. -1.
         -6    2    1    2    0  503  0.85739514838E+02 -0.31776892710E+03 -0.17603736401E+03  0.41546662241E+03  0.18246919020E+03 0.  0.
        -24    2    3    3    0    0  0.10599253945E+03 -0.26912386713E+03 -0.19653059404E+03  0.35873400973E+03  0.80023378204E+02 0.  0.
          6    2    1    2  501    0 -0.85739514838E+02  0.31776892710E+03 -0.19260387344E+03  0.41835559487E+03  0.17203719441E+03 0.  0.
         24    2    5    5    0    0 -0.66261599187E+02  0.32450921245E+03 -0.20082773019E+03  0.39567206638E+03  0.80794668203E+02 0.  0.
          5    1    5    5  501    0 -0.19477915652E+02 -0.67402853491E+01  0.82238567517E+01  0.22683528486E+02  0.47000000000E+01 0. -1.
        -11    1    6    6    0    0  0.81951186217E+01  0.15891523456E+03 -0.10102472645E+03  0.18848662313E+03  0.00000000000E+00 0.  1.
         12    1    6    6    0    0 -0.74456717808E+02  0.16559397789E+03 -0.99803003743E+02  0.20718544325E+03  0.00000000000E+00 0. -1.
         -5    1    3    3    0  503 -0.20253024614E+02 -0.48645059965E+02  0.20493230027E+02  0.56732612684E+02  0.47000000000E+01 0.  1.
         11    1    4    4    0    0 -0.44286251512E+01 -0.14331038839E+02  0.47877040123E+01  0.15745269278E+02  0.00000000000E+00 0. -1.
        -12    1    4    4    0    0  0.11042116460E+03 -0.25479282830E+03 -0.20131829805E+03  0.34298874045E+03  0.00000000000E+00 0.  1.
</event>
<event>
12    1  0.8494789E-002  0.2012713E+03  0.7818608E-02  0.1149416E+00
         21   -1    0    0  501  502  0.00000000000E+00  0.00000000000E+00  0.13742505234E+03  0.13742505234E+03  0.00000000000E+00 0. -1.
         21   -1    0    0  502  503 -0.00000000000E+00 -0.00000000000E+00 -0.75169978396E+03  0.75169978396E+03  0.00000000000E+00 0. -1.
         -6    2    1    2    0  503  0.67486335678E+02  0.87442041672E+02 -0.65463313476E+03  0.68384717303E+03  0.16401798310E+03 0.  0.
        -24    2    3    3    0    0 -0.10477353633E+02  0.91138038846E+01 -0.35672271247E+03  0.36606366277E+03  0.80985648394E+02 0.  0.
          6    2    1    2  501    0 -0.67486335678E+02 -0.87442041672E+02  0.40358403134E+02  0.20527766327E+03  0.16825457551E+03 0.  0.
         24    2    5    5    0    0 -0.70545996987E+02 -0.89832289953E+02 -0.25006470386E+02  0.13962911794E+03  0.76317684752E+02 0.  0.
          5    1    5    5  501    0  0.30596613088E+01  0.23902482817E+01  0.65364873520E+02  0.65648545334E+02  0.47000000000E+01 0. -1.
        -11    1    6    6    0    0 -0.58969068136E+02 -0.29340060804E+02  0.13167413434E+02  0.67168228661E+02  0.00000000000E+00 0.  1.
         12    1    6    6    0    0 -0.11576928850E+02 -0.60492229149E+02 -0.38173883820E+02  0.72460889278E+02  0.00000000000E+00 0. -1.
         -5    1    3    3    0  503  0.77963689311E+02  0.78328237787E+02 -0.29791042229E+03  0.31778351026E+03  0.47000000000E+01 0.  1.
         11    1    4    4    0    0  0.17886652502E+02  0.34877195522E+02 -0.24087663718E+03  0.24404488408E+03  0.00000000000E+00 0. -1.
        -12    1    4    4    0    0 -0.28364006135E+02 -0.25763391638E+02 -0.11584607529E+03  0.12201877869E+03  0.00000000000E+00 0.  1.
</event>
<event>
12    1  0.8494789E-002  0.2247693E+03  0.7818608E-02  0.1131030E+00
         21   -1    0    0  501  502  0.00000000000E+00  0.00000000000E+00  0.32440959525E+03  0.32440959525E+03  0.00000000000E+00 0. -1.
         21   -1    0    0  502  503 -0.00000000000E+00 -0.00000000000E+00 -0.20697057159E+03  0.20697057159E+03  0.00000000000E+00 0.  1.
         -6    2    1    2    0  503 -0.79556768422E+02  0.11385786348E+03  0.19440354886E+03  0.29717667328E+03  0.17671542902E+03 0.  0.
        -24    2    3    3    0    0  0.27756153625E+00  0.33480926814E+02  0.22545839558E+02  0.91285599081E+02  0.81876102847E+02 0.  0.
          6    2    1    2  501    0  0.79556768422E+02 -0.11385786348E+03 -0.76964525187E+02  0.23420349357E+03  0.17214774405E+03 0.  0.
         24    2    5    5    0    0  0.33792157371E+02 -0.14050411976E+03 -0.45697201502E+02  0.17252563588E+03  0.82422953367E+02 0.  0.
          5    1    5    5  501    0  0.45764611051E+02  0.26646256276E+02 -0.31267323685E+02  0.61677857685E+02  0.47000000000E+01 0. -1.
        -11    1    6    6    0    0  0.48526917701E+02 -0.65505671741E+02 -0.50578574607E+02  0.95937724494E+02  0.00000000000E+00 0.  1.
         12    1    6    6    0    0 -0.14734760330E+02 -0.74998448019E+02  0.48813731051E+01  0.76587911387E+02  0.00000000000E+00 0. -1.
         -5    1    3    3    0  503 -0.79834329958E+02  0.80376936669E+02  0.17185770930E+03  0.20589107420E+03  0.47000000000E+01 0.  1.
         11    1    4    4    0    0 -0.13186416150E+02  0.23206259169E+02  0.51349172480E+02  0.57871837278E+02  0.00000000000E+00 0. -1.
        -12    1    4    4    0    0  0.13463977686E+02  0.10274667645E+02 -0.28803332923E+02  0.33413761803E+02  0.00000000000E+00 0.  1.
</event>
<event>
12    1  0.8494789E-002  0.2138076E+03  0.7818608E-02  0.1138949E+00
         21   -1    0    0  501  502  0.00000000000E+00  0.00000000000E+00  0.18908226011E+03  0.18908226011E+03  0.00000000000E+00 0.  1.
         21   -1    0    0  502  503 -0.00000000000E+00 -0.00000000000E+00 -0.27374305819E+03  0.27374305819E+03  0.00000000000E+00 0. -1.
         -6    2    1    2    0  503 -0.12494659095E+03 -0.27438682675E+02 -0.12382349921E+03  0.24546058876E+03  0.16897961351E+03 0.  0.
        -24    2    3    3    0    0 -0.20802400303E+02  0.31940959522E+02 -0.36868831662E+02  0.97287856581E+02  0.81563788144E+02 0.  0.
          6    2    1    2  501    0  0.12494659095E+03  0.27438682675E+02  0.39162701127E+02  0.21736472954E+03  0.17131601383E+03 0.  0.
         24    2    5    5    0    0  0.15673254163E+03  0.90535085882E+01  0.36031515748E+02  0.18021293808E+03  0.80816936972E+02 0.  0.
          5    1    5    5  501    0 -0.31785950682E+02  0.18385174087E+02  0.31311853799E+01  0.37151791462E+02  0.47000000000E+01 0. -1.
        -13    1    6    6    0    0  0.43260895293E+02 -0.29202273147E+02  0.30249134990E+02  0.60326511470E+02  0.00000000000E+00 0.  1.
         14    1    6    6    0    0  0.11347164634E+03  0.38255781735E+02  0.57823807573E+01  0.11988642661E+03  0.00000000000E+00 0. -1.
         -5    1    3    3    0  503 -0.10414419064E+03 -0.59379642197E+02 -0.86954667550E+02  0.14817273218E+03  0.47000000000E+01 0.  1.
         13    1    4    4    0    0 -0.27843536762E+02  0.46168758878E+02  0.33807721810E+01  0.54020796516E+02  0.00000000000E+00 0. -1.
        -14    1    4    4    0    0  0.70411364590E+01 -0.14227799355E+02 -0.40249603843E+02  0.43267060065E+02  0.00000000000E+00 0.  1.
</event>
<event>
12    1  0.8494789E-002  0.1843961E+03  0.7818608E-02  0.1163629E+00
         21   -1    0    0  503  502  0.00000000000E+00  0.00000000000E+00  0.19479493797E+03  0.19479493797E+03  0.00000000000E+00 0.  1.
         21   -1    0    0  501  503 -0.00000000000E+00 -0.00000000000E+00 -0.89843420161E+03  0.89843420161E+03  0.00000000000E+00 0. -1.
          6    2    1    2  501    0  0.64879182142E+02  0.85656433071E+00 -0.84247772543E+03  0.86240879860E+03  0.17254036071E+03 0.  0.
         24    2    3    3    0    0 -0.22451431060E+02  0.34912074725E+02 -0.40845911653E+03  0.41835851241E+03  0.80387034480E+02 0.  0.
         -6    2    1    2    0  502 -0.64879182142E+02 -0.85656433071E+00  0.13883846179E+03  0.23082034098E+03  0.17260321365E+03 0.  0.
        -24    2    5    5    0    0 -0.50660501549E+02  0.49871290777E+02  0.13897379003E+03  0.17792804971E+03  0.85387613266E+02 0.  0.
          5    1    3    3  501    0  0.87330613202E+02 -0.34055510394E+02 -0.43401860890E+03  0.44405028619E+03  0.47000000000E+01 0. -1.
        -11    1    4    4    0    0  0.38783492122E+01  0.53345355304E+02 -0.18421326156E+03  0.19182099535E+03  0.00000000000E+00 0.  1.
         12    1    4    4    0    0 -0.26329780272E+02 -0.18433280579E+02 -0.22424585497E+03  0.22653751705E+03  0.00000000000E+00 0. -1.
         -5    1    5    5    0  502 -0.14218680592E+02 -0.50727855107E+02 -0.13532824224E+00  0.52892291266E+02  0.47000000000E+01 0.  1.
         11    1    6    6    0    0  0.10273716395E+02 -0.36848560910E+01 -0.55104456918E+01  0.12226709480E+02  0.00000000000E+00 0. -1.
        -12    1    6    6    0    0 -0.60934217944E+02  0.53556146868E+02  0.14448423572E+03  0.16570134024E+03  0.00000000000E+00 0.  1.
</event>
<event>
12    1  0.8494789E-002  0.2062445E+03  0.7818608E-02  0.1144837E+00
         21   -1    0    0  503  502  0.00000000000E+00  0.00000000000E+00  0.42647622523E+02  0.42647622523E+02  0.00000000000E+00 0. -1.
         21   -1    0    0  501  503 -0.00000000000E+00 -0.00000000000E+00 -0.16919046176E+04  0.16919046176E+04  0.00000000000E+00 0.  1.
          6    2    1    2  501    0 -0.56757560481E+00 -0.11450471551E+03 -0.13842880065E+04  0.13995678255E+04  0.17153763801E+03 0.  0.
         24    2    3    3    0    0  0.39509580419E+02 -0.46601837922E+02 -0.11141444912E+04  0.11181134099E+04  0.71602456943E+02 0.  0.
         -6    2    1    2    0  502  0.56757560481E+00  0.11450471551E+03 -0.26496898863E+03  0.33498441467E+03  0.16998335541E+03 0.  0.
        -24    2    5    5    0    0  0.44192856178E+02  0.97732883582E+01 -0.13141399060E+03  0.15968220579E+03  0.78614529306E+02 0.  0.
          5    1    3    3  501    0 -0.40077156024E+02 -0.67902877585E+02 -0.27014351527E+03  0.28145441560E+03  0.47000000000E+01 0. -1.
        -11    1    4    4    0    0  0.20703689938E+02 -0.62745386633E+02 -0.66170795753E+03  0.66499853186E+03  0.00000000000E+00 0.  1.
         12    1    4    4    0    0  0.18805890481E+02  0.16143548711E+02 -0.45243653368E+03  0.45311487802E+03  0.00000000000E+00 0. -1.
         -5    1    5    5    0  502 -0.43625280573E+02  0.10473142715E+03 -0.13355499803E+03  0.17530220887E+03  0.47000000000E+01 0.  1.
         13    1    6    6    0    0  0.53232091575E+01  0.16370959199E+02  0.48048506793E+01  0.17872645324E+02  0.00000000000E+00 0. -1.
        -14    1    6    6    0    0  0.38869647020E+02 -0.65976708404E+01 -0.13621884128E+03  0.14180956047E+03  0.00000000000E+00 0.  1.
</event>
<event>
12    1  0.8494789E-002  0.2152062E+03  0.7818608E-02  0.1137854E+00
         21   -1    0    0  501  502  0.00000000000E+00  0.00000000000E+00  0.21941263259E+03  0.21941263259E+03  0.00000000000E+00 0. -1.
         21   -1    0    0  502  503 -0.00000000000E+00 -0.00000000000E+00 -0.20954144752E+03  0.20954144752E+03  0.00000000000E+00 0. -1.
         -6    2    1    2    0  503  0.71401654386E+02 -0.10416460112E+03 -0.19603823251E+01  0.21342291225E+03  0.17203789117E+03 0.  0.
        -24    2    3    3    0    0  0.86169284348E+02 -0.49133069858E+02  0.49242197632E+02  0.13667431929E+03  0.80099134864E+02 0.  0.
          6    2    1    2  501    0 -0.71401654386E+02  0.10416460112E+03  0.11831567398E+02  0.21553116786E+03  0.17425624224E+03 0.  0.
         24    2    5    5    0    0 -0.96177641737E+00  0.45314729560E+02 -0.58432448877E+02  0.99841039618E+02  0.67078553810E+02 0.  0.
          5    1    5    5  501    0 -0.70439877969E+02  0.58849871555E+02  0.70264016274E+02  0.11569012824E+03  0.47000000000E+01 0. -1.
        -11    1    6    6    0    0  0.16817487225E+02  0.56464576721E+02 -0.49819808732E+02  0.77156267684E+02  0.00000000000E+00 0.  1.
         12    1    6    6    0    0 -0.17779263643E+02 -0.11149847162E+02 -0.86126401450E+01  0.22684771933E+02  0.00000000000E+00 0. -1.
         -5    1    3    3    0  503 -0.14767629961E+02 -0.55031531257E+02 -0.51202579957E+02  0.76748592961E+02  0.47000000000E+01 0.  1.
         11    1    4    4    0    0  0.95513830107E+01 -0.20642779133E+02 -0.19429224085E+02  0.29914010034E+02  0.00000000000E+00 0. -1.
        -12    1    4    4    0    0  0.76617901337E+02 -0.28490290725E+02  0.68671421718E+02  0.10676030925E+03  0.00000000000E+00 0.  1.
</event>
<event>
12    1  0.8494789E-002  0.1750456E+03  0.7818608E-02  0.1172996E+00
         21   -1    0    0  503  502  0.00000000000E+00  0.00000000000E+00  0.45229215433E+03  0.45229215433E+03  0.00000000000E+00 0. -1.
         21   -1    0    0  501  503 -0.00000000000E+00 -0.00000000000E+00 -0.77278355870E+02  0.77278355870E+02  0.00000000000E+00 0. -1.
          6    2    1    2  501    0 -0.21107949005E+02 -0.69310147211E+01  0.28337241440E+03  0.33307791917E+03  0.17363003923E+03 0.  0.
         24    2    3    3    0    0 -0.44952231468E+02  0.23433548385E+02  0.72443220308E+02  0.11859302130E+03  0.79034487585E+02 0.  0.
         -6    2    1    2    0  502  0.21107949005E+02  0.69310147211E+01  0.91641384059E+02  0.19649259102E+03  0.17238796529E+03 0.  0.
        -24    2    5    5    0    0  0.13070413741E+02  0.19492770720E+02 -0.19656649168E+02  0.84101568751E+02  0.78331897616E+02 0.  0.
          5    1    3    3  501    0  0.23844282463E+02 -0.30364563106E+02  0.21092919409E+03  0.21448489788E+03  0.47000000000E+01 0. -1.
        -13    1    4    4    0    0 -0.60704659558E+02  0.19081921107E+01  0.68635642599E+02  0.91649049772E+02  0.00000000000E+00 0.  1.
         14    1    4    4    0    0  0.15752428090E+02  0.21525356274E+02  0.38075777088E+01  0.26943971524E+02  0.00000000000E+00 0. -1.
         -5    1    5    5    0  502  0.80375352642E+01 -0.12561755999E+02  0.11129803323E+03  0.11239102227E+03  0.47000000000E+01 0.  1.
         11    1    6    6    0    0 -0.23516932781E+02 -0.17795558756E+02 -0.58214035899E+01  0.30060219204E+02  0.00000000000E+00 0. -1.
        -12    1    6    6    0    0  0.36587346521E+02  0.37288329476E+02 -0.13835245578E+02  0.54041349546E+02  0.00000000000E+00 0.  1.
</event>
<event>
12    1  0.8494789E-002  0.1786226E+03  0.7818608E-02  0.1170612E+00
         21   -1    0    0  501  502  0.00000000000E+00  0.00000000000E+00  0.71357971491E+03  0.71357971491E+03  0.00000000000E+00 0. -1.
         21   -1    0    0  502  503 -0.00000000000E+00 -0.00000000000E+00 -0.86672827240E+02  0.86672827240E+02  0.00000000000E+00 0. -1.
         -6    2    1    2    0  503  0.12794937055E+02 -0.78342800277E+01  0.32877546691E+02  0.18162309534E+03  0.17799137430E+03 0.  0.
        -24    2    3    3    0    0  0.16366683112E+02 -0.39097047148E+02 -0.43165661041E+02  0.99192655448E+02  0.78609548974E+02 0.  0.
          6    2    1    2  501    0 -0.12794937055E+02  0.78342800277E+01  0.59402934098E+03  0.61862944682E+03  0.17206524392E+03 0.  0.
         24    2    5    5    0    0  0.34083542573E+01  0.11776002760E+02  0.12603519062E+03  0.15031470372E+03  0.80989812696E+02 0.  0.
          5    1    5    5  501    0 -0.16203291312E+02 -0.39417227327E+01  0.46799415037E+03  0.46831474310E+03  0.47000000000E+01 0. -1.
        -11    1    6    6    0    0  0.66233593201E+00 -0.26368729681E+02  0.10116779420E+02  0.28250625121E+02  0.00000000000E+00 0.  1.
         12    1    6    6    0    0  0.27460183253E+01  0.38144732441E+02  0.11591841120E+03  0.12206407860E+03  0.00000000000E+00 0. -1.
         -5    1    3    3    0  503 -0.35717460571E+01  0.31262767121E+02  0.76043207731E+02  0.82430439887E+02  0.47000000000E+01 0.  1.
         13    1    4    4    0    0  0.44327961977E+02 -0.15278767537E+02 -0.41187913756E+02  0.62408758921E+02  0.00000000000E+00 0. -1.
        -14    1    4    4    0    0 -0.27961278865E+02 -0.23818279611E+02 -0.19777472850E+01  0.36783896527E+02  0.00000000000E+00 0.  1.
</event>
<event>
12    1  0.8494789E-002  0.2116969E+03  0.7818608E-02  0.1140860E+00
         21   -1    0    0  501  502  0.00000000000E+00  0.00000000000E+00  0.86641722430E+03  0.86641722430E+03  0.00000000000E+00 0.  1.
         21   -1    0    0  502  503 -0.00000000000E+00 -0.00000000000E+00 -0.56468865869E+02  0.56468865869E+02  0.00000000000E+00 0.  1.
         -6    2    1    2    0  503 -0.59734752074E+02  0.10765967309E+03  0.25791224490E+03  0.33165055430E+03  0.16826918400E+03 0.  0.
        -24    2    3    3    0    0 -0.58572562338E+02  0.11288406260E+03  0.11894601331E+03  0.19250189835E+03  0.82068691576E+02 0.  0.
          6    2    1    2  501    0  0.59734752074E+02 -0.10765967309E+03  0.55203611352E+03  0.59123553586E+03  0.17221133069E+03 0.  0.
         24    2    5    5    0    0 -0.18083540041E+02 -0.48114216325E+02  0.39467280462E+03  0.40579916134E+03  0.79147611464E+02 0.  0.
          5    1    5    5  501    0  0.77818292115E+02 -0.59545456761E+02  0.15736330890E+03  0.18543637452E+03  0.47000000000E+01 0. -1.
        -11    1    6    6    0    0 -0.65539484797E+01 -0.45386834498E+02  0.91058326884E+02  0.10195360651E+03  0.00000000000E+00 0.  1.
         12    1    6    6    0    0 -0.11529591561E+02 -0.27273818279E+01  0.30361447774E+03  0.30384555482E+03  0.00000000000E+00 0. -1.
         -5    1    3    3    0  503 -0.11621897360E+01 -0.52243895169E+01  0.13896623159E+03  0.13914865595E+03  0.47000000000E+01 0.  1.
         13    1    4    4    0    0  0.54043038052E+01  0.76137503470E+02  0.48131276664E+02  0.90237163783E+02  0.00000000000E+00 0. -1.
        -14    1    4    4    0    0 -0.63976866143E+02  0.36746559134E+02  0.70814736651E+02  0.10226473457E+03  0.00000000000E+00 0.  1.
</event>
<event>
12    1  0.8494789E-002  0.1955035E+03  0.7818608E-02  0.1153762E+00
         21   -1    0    0  501  502  0.00000000000E+00  0.00000000000E+00  0.14991796410E+03  0.14991796410E+03  0.00000000000E+00 0.  1.
         21   -1    0    0  502  503 -0.00000000000E+00 -0.00000000000E+00 -0.54713014044E+03  0.54713014044E+03  0.00000000000E+00 0.  1.
         -6    2    1    2    0  503 -0.28305052339E+02 -0.89826188804E+02 -0.45355858596E+03  0.49358675788E+03  0.17041882664E+03 0.  0.
        -24    2    3    3    0    0  0.24763978258E+02 -0.10635680166E+03 -0.35207367335E+03  0.37778148745E+03  0.82691939880E+02 0.  0.
          6    2    1    2  501    0  0.28305052339E+02  0.89826188804E+02  0.56346409625E+02  0.20346134666E+03  0.17132332452E+03 0.  0.
         24    2    5    5    0    0 -0.22354528627E+02  0.83105390130E+02 -0.99227647261E+01  0.11964454794E+03  0.82523486197E+02 0.  0.
          5    1    5    5  501    0  0.50659580965E+02  0.67207986739E+01  0.66269174351E+02  0.83816798720E+02  0.47000000000E+01 0. -1.
        -13    1    6    6    0    0 -0.20640891198E+02  0.53842476809E+02  0.33923773772E+02  0.66902026317E+02  0.00000000000E+00 0.  1.
         14    1    6    6    0    0 -0.17136374283E+01  0.29262913320E+02 -0.43846538498E+02  0.52742521627E+02  0.00000000000E+00 0. -1.
         -5    1    3    3    0  503 -0.53069030596E+02  0.16530612858E+02 -0.10148491261E+03  0.11580527042E+03  0.47000000000E+01 0.  1.
         11    1    4    4    0    0 -0.28967942580E+02 -0.52541323159E+02 -0.13369662084E+03  0.14654186692E+03  0.00000000000E+00 0. -1.
        -12    1    4    4    0    0  0.53731920837E+02 -0.53815478503E+02 -0.21837705250E+03  0.23123962053E+03  0.00000000000E+00 0.  1.
</event>
<event>
12    1  0.8494789E-002  0.1895166E+03  0.7818608E-02  0.1159411E+00
         21   -1    0    0  501  502  0.00000000000E+00  0.00000000000E+00  0.42859552880E+03  0.42859552880E+03  0.00000000000E+00 0. -1.
         21   -1    0    0  502  503 -0.00000000000E+00 -0.00000000000E+00 -0.83483345604E+02  0.83483345604E+02  0.00000000000E+00 0. -1.
         -6    2    1    2    0  503  0.50539932037E+02  0.54000964159E+02  0.14848183616E+03  0.23898542868E+03  0.17203717793E+03 0.  0.
        -24    2    3    3    0    0 -0.10135373287E+01  0.43249004513E+02  0.13264935362E+02  0.93799116992E+02  0.82163326302E+02 0.  0.
          6    2    1    2  501    0 -0.50539932037E+02 -0.54000964159E+02  0.19663034703E+03  0.27309344572E+03  0.17448824563E+03 0.  0.
         24    2    5    5    0    0 -0.67580652015E+02  0.24422934714E+02  0.12929587931E+03  0.16822822463E+03  0.80122948573E+02 0.  0.
          5    1    5    5  501    0  0.17040719978E+02 -0.78423898873E+02  0.67334467721E+02  0.10486522109E+03  0.47000000000E+01 0. -1.
        -13    1    6    6    0    0 -0.25942605649E+02  0.16653106840E+02 -0.13805451840E+01  0.30858558948E+02  0.00000000000E+00 0.  1.
         14    1    6    6    0    0 -0.41638046366E+02  0.77698278737E+01  0.13067642450E+03  0.13736966568E+03  0.00000000000E+00 0. -1.
         -5    1    3    3    0  503  0.51553469366E+02  0.10751959646E+02  0.13521690080E+03  0.14518631169E+03  0.47000000000E+01 0.  1.
         13    1    4    4    0    0  0.13433087324E+02  0.63056528443E+02  0.21460360842E+02  0.67949398098E+02  0.00000000000E+00 0. -1.
        -14    1    4    4    0    0 -0.14446624653E+02 -0.19807523931E+02 -0.81954254794E+01  0.25849718894E+02  0.00000000000E+00 0.  1.
</event>
<event>
12    1  0.8494789E-002  0.2182839E+03  0.7818608E-02  0.1135195E+00
         21   -1    0    0  501  502  0.00000000000E+00  0.00000000000E+00  0.19216361338E+04  0.19216361338E+04  0.00000000000E+00 0. -1.
         21   -1    0    0  502  503 -0.00000000000E+00 -0.00000000000E+00 -0.26196709543E+02  0.26196709543E+02  0.00000000000E+00 0. -1.
         -6    2    1    2    0  503 -0.12214422609E+02  0.13493946406E+03  0.72151455801E+03  0.75381105604E+03  0.17114321401E+03 0.  0.
        -24    2    3    3    0    0 -0.36125352747E+02  0.10519477518E+03  0.69106799871E+03  0.70476452639E+03  0.82140592765E+02 0.  0.
          6    2    1    2  501    0  0.12214422609E+02 -0.13493946406E+03  0.11739248662E+04  0.11940217873E+04  0.17096954666E+03 0.  0.
         24    2    5    5    0    0 -0.30664467784E+02 -0.52694092364E+02  0.32884706120E+03  0.34385622285E+03  0.79873245689E+02 0.  0.
          5    1    5    5  501    0  0.42878890393E+02 -0.82245371701E+02  0.84507780503E+03  0.85016556445E+03  0.47000000000E+01 0. -1.
        -11    1    6    6    0    0 -0.27270197906E+02  0.14174460644E+02  0.69248951154E+02  0.75762763046E+02  0.00000000000E+00 0.  1.
         12    1    6    6    0    0 -0.33942698781E+01 -0.66868553008E+02  0.25959811005E+03  0.26809345981E+03  0.00000000000E+00 0. -1.
         -5    1    3    3    0  503  0.23910930138E+02  0.29744688889E+02  0.30446559297E+02  0.49046529645E+02  0.47000000000E+01 0.  1.
         11    1    4    4    0    0 -0.51787391483E+02  0.34597995680E+02  0.40160521033E+03  0.40640583188E+03  0.00000000000E+00 0. -1.
        -12    1    4    4    0    0  0.15662038736E+02  0.70596779496E+02  0.28946278839E+03  0.29835869452E+03  0.00000000000E+00 0.  1.
</event>
<event>
12    1  0.8494789E-002  0.1965309E+03  0.7818608E-02  0.1152786E+00
         21   -1    0    0  503  502  0.00000000000E+00  0.00000000000E+00  0.80028437081E+03  0.80028437081E+03  0.00000000000E+00 0. -1.
         21   -1    0    0  501  503 -0.00000000000E+00 -0.00000000000E+00 -0.62642112747E+02  0.62642112747E+02  0.00000000000E+00 0. -1.
          6    2    1    2  501    0  0.30120105013E+02 -0.89195263385E+02  0.57653122612E+03  0.60910806707E+03  0.17251483107E+03 0.  0.
         24    2    3    3    0    0 -0.39264740622E+02 -0.17417705711E+02  0.35286969635E+03  0.36413287549E+03  0.78934352992E+02 0.  0.
         -6    2    1    2    0  502 -0.30120105013E+02  0.89195263385E+02  0.16111103194E+03  0.25381841649E+03  0.17205815354E+03 0.  0.
        -24    2    5    5    0    0 -0.14603219514E+02  0.97697421784E+02  0.18583705544E+03  0.22305274290E+03  0.73885551337E+02 0.  0.
          5    1    3    3  501    0  0.69384845635E+02 -0.71777557674E+02  0.22366152978E+03  0.24497519158E+03  0.47000000000E+01 0. -1.
        -11    1    4    4    0    0 -0.22434256839E+02 -0.48731541768E+02  0.23339371714E+03  0.23948003308E+03  0.00000000000E+00 0.  1.
         12    1    4    4    0    0 -0.16830483783E+02  0.31313836058E+02  0.11947597921E+03  0.12465284241E+03  0.00000000000E+00 0. -1.
         -5    1    5    5    0  502 -0.15516885500E+02 -0.85021583990E+01 -0.24726023501E+02  0.30765673587E+02  0.47000000000E+01 0.  1.
         11    1    6    6    0    0 -0.44211303974E+02  0.50963675342E+02  0.91402950753E+02  0.11360649194E+03  0.00000000000E+00 0. -1.
        -12    1    6    6    0    0  0.29608084460E+02  0.46733746442E+02  0.94434104687E+02  0.10944625096E+03  0.00000000000E+00 0.  1.
</event>
<event>
12    1  0.8494789E-002  0.2579776E+03  0.7818608E-02  0.1108379E+00
         21   -1    0    0  503  502  0.00000000000E+00  0.00000000000E+00  0.29776611213E+04  0.29776611213E+04  0.00000000000E+00 0. -1.
         21   -1    0    0  501  503 -0.00000000000E+00 -0.00000000000E+00 -0.29965130982E+02  0.29965130982E+02  0.00000000000E+00 0. -1.
          6    2    1    2  501    0  0.96799171939E+02 -0.16636227562E+03  0.71517919536E+03  0.76025363699E+03  0.17163281921E+03 0.  0.
         24    2    3    3    0    0 -0.76548629921E+01 -0.38804604724E+02  0.20900167162E+03  0.22788216859E+03  0.81756894183E+02 0.  0.
         -6    2    1    2    0  502 -0.96799171939E+02  0.16636227562E+03  0.22325167949E+04  0.22473726153E+04  0.17177294837E+03 0.  0.
        -24    2    5    5    0    0 -0.49631833408E+01  0.12909533021E+03  0.10835132524E+04  0.10940929854E+04  0.79675937514E+02 0.  0.
          5    1    3    3  501    0  0.10445403493E+03 -0.12755767090E+03  0.50617752374E+03  0.53237146840E+03  0.47000000000E+01 0. -1.
        -13    1    4    4    0    0  0.65808474478E+01 -0.10986668599E+02  0.19176990448E+03  0.19219706216E+03  0.00000000000E+00 0.  1.
         14    1    4    4    0    0 -0.14235710440E+02 -0.27817936124E+02  0.17231767141E+02  0.35685106428E+02  0.00000000000E+00 0. -1.
         -5    1    5    5    0  502 -0.91835988598E+02  0.37266945413E+02  0.11490035425E+04  0.11532796299E+04  0.47000000000E+01 0.  1.
         11    1    6    6    0    0 -0.34735871476E+02  0.57417172435E+02  0.67052052133E+03  0.67387022637E+03  0.00000000000E+00 0. -1.
        -12    1    6    6    0    0  0.29772688135E+02  0.71678157774E+02  0.41299273106E+03  0.42022275899E+03  0.00000000000E+00 0.  1.
</event>
<event>
12    1  0.8494789E-002  0.2075459E+03  0.7818608E-02  0.1146595E+00
         21   -1    0    0  503  502  0.00000000000E+00  0.00000000000E+00  0.22095974356E+03  0.22095974356E+03  0.00000000000E+00 0.  1.
         21   -1    0    0  501  503 -0.00000000000E+00 -0.00000000000E+00 -0.43268327116E+03  0.43268327116E+03  0.00000000000E+00 0.  1.
          6    2    1    2  501    0  0.99470382965E+02  0.56792174745E+02 -0.35648569160E+03  0.41250134023E+03  0.17307685917E+03 0.  0.
         24    2    3    3    0    0  0.15082638853E+02  0.86667285634E+02 -0.22173472083E+03  0.25065657594E+03  0.76965760209E+02 0.  0.
         -6    2    1    2    0  502 -0.99470382965E+02 -0.56792174745E+02  0.14476216400E+03  0.24114167448E+03  0.15515642058E+03 0.  0.
        -24    2    5    5    0    0 -0.68479045085E+01  0.56392258485E+01  0.52614823484E+02  0.96263016086E+02  0.80122118990E+02 0.  0.
          5    1    3    3  501    0  0.84387744112E+02 -0.29875110889E+02 -0.13475097077E+03  0.16184476430E+03  0.47000000000E+01 0. -1.
        -11    1    4    4    0    0 -0.10983891386E+02 -0.10873822549E+02 -0.22459992541E+02  0.27264210088E+02  0.00000000000E+00 0.  1.
         12    1    4    4    0    0  0.26066530238E+02  0.97541108184E+02 -0.19927472829E+03  0.22339236585E+03  0.00000000000E+00 0. -1.
         -5    1    5    5    0  502 -0.92622478456E+02 -0.62431400594E+02  0.92147340511E+02  0.14487865840E+03  0.47000000000E+01 0.  1.
         11    1    6    6    0    0  0.12256058555E+02  0.35614953045E+02  0.47074502271E+02  0.60288013865E+02  0.00000000000E+00 0. -1.
        -12    1    6    6    0    0 -0.19103963064E+02 -0.29975727196E+02  0.55403212134E+01  0.35975002221E+02  0.00000000000E+00 0.  1.
</event>
<event>
12    1  0.8494789E-002  0.1997339E+03  0.7818608E-02  0.1150194E+00
         21   -1    0    0  501  502  0.00000000000E+00  0.00000000000E+00  0.87306782547E+02  0.87306782547E+02  0.00000000000E+00 0. -1.
         21   -1    0    0  502  503 -0.00000000000E+00 -0.00000000000E+00 -0.60752100566E+03  0.60752100566E+03  0.00000000000E+00 0. -1.
         -6    2    1    2    0  503  0.22750433469E+02 -0.97699364798E+02 -0.86253437958E+02  0.21756212061E+03  0.17271616213E+03 0.  0.
        -24    2    3    3    0    0 -0.49388072805E+02 -0.25957184402E+02 -0.29180083665E+02  0.10081297798E+03  0.78732598639E+02 0.  0.
          6    2    1    2  501    0 -0.22750433469E+02  0.97699364798E+02 -0.43396078516E+03  0.47726566760E+03  0.17145788494E+03 0.  0.
         24    2    5    5    0    0 -0.75115769605E+02  0.34696262805E+02 -0.28575890809E+03  0.30786258128E+03  0.79214934837E+02 0.  0.
          5    1    5    5  501    0  0.52365336135E+02  0.63003101993E+02 -0.14820187707E+03  0.16940308632E+03  0.47000000000E+01 0. -1.
        -11    1    6    6    0    0 -0.46685837441E+02  0.24348069640E+02 -0.58935445119E+02  0.79030263850E+02  0.00000000000E+00 0.  1.
         12    1    6    6    0    0 -0.28429932164E+02  0.10348193165E+02 -0.22682346297E+03  0.22883231743E+03  0.00000000000E+00 0. -1.
         -5    1    3    3    0  503  0.72138506274E+02 -0.71742180396E+02 -0.57073354293E+02  0.11674914263E+03  0.47000000000E+01 0.  1.
         13    1    4    4    0    0 -0.62603298707E+02 -0.35851674241E+02 -0.38585408650E+02  0.81812892111E+02  0.00000000000E+00 0. -1.
        -14    1    4    4    0    0  0.13215225902E+02  0.98944898391E+01  0.94053249850E+01  0.19000085866E+02  0.00000000000E+00 0.  1.
</event>
<event>
12    1  0.8494789E-002  0.2603437E+03  0.7818608E-02  0.1107024E+00
         21   -1    0    0  501  502  0.00000000000E+00  0.00000000000E+00  0.35792276464E+03  0.35792276464E+03  0.00000000000E+00 0. -1.
         21   -1    0    0  502  503 -0.00000000000E+00 -0.00000000000E+00 -0.35241001172E+03  0.35241001172E+03  0.00000000000E+00 0. -1.
         -6    2    1    2    0  503 -0.52173596646E+02  0.18923512098E+03 -0.23913735538E+03  0.35307582586E+03  0.17012891840E+03 0.  0.
        -24    2    3    3    0    0 -0.22565262917E+02  0.20374446392E+03 -0.23217947272E+03  0.31905117906E+03  0.76585570688E+02 0.  0.
          6    2    1    2  501    0  0.52173596646E+02 -0.18923512098E+03  0.24465010830E+03  0.35725695050E+03  0.17101706928E+03 0.  0.
         24    2    5    5    0    0  0.29802587597E+02 -0.19044402716E+02  0.53827641558E+02  0.10054573835E+03  0.77208464574E+02 0.  0.
          5    1    5    5  501    0  0.22371009049E+02 -0.17019071826E+03  0.19082246675E+03  0.25671121215E+03  0.47000000000E+01 0. -1.
        -11    1    6    6    0    0  0.38166723785E+02 -0.41562945206E+02  0.21760303267E+02  0.60478822880E+02  0.00000000000E+00 0.  1.
         12    1    6    6    0    0 -0.83641361887E+01  0.22518542489E+02  0.32067338292E+02  0.40066915468E+02  0.00000000000E+00 0. -1.
         -5    1    3    3    0  503 -0.29608333729E+02 -0.14509342946E+02 -0.69578826513E+01  0.34024646801E+02  0.47000000000E+01 0.  1.
         13    1    4    4    0    0 -0.36256220540E+02  0.88102604641E+02 -0.14536110052E+03  0.17379997704E+03  0.00000000000E+00 0. -1.
        -14    1    4    4    0    0  0.13690957623E+02  0.11564185928E+03 -0.86818372201E+02  0.14525120203E+03  0.00000000000E+00 0.  1.
</event>
<event>
12    1  0.8494789E-002  0.1799316E+03  0.7818608E-02  0.1168771E+00
         21   -1    0    0  501  502  0.00000000000E+00  0.00000000000E+00  0.51226381384E+03  0.51226381384E+03  0.00000000000E+00 0.  1.
         21   -1    0    0  502  503 -0.00000000000E+00 -0.00000000000E+00 -0.65491165373E+02  0.65491165373E+02  0.00000000000E+00 0.  1.
         -6    2    1    2    0  503  0.44602422153E+01 -0.49835963165E+02  0.15367930822E+03  0.23383770778E+03  0.16899475383E+03 0.  0.
        -24    2    3    3    0    0 -0.39139473995E+02  0.22670976897E+02  0.76124219011E+02  0.11896789681E+03  0.79451822722E+02 0.  0.
          6    2    1    2  501    0 -0.44602422153E+01  0.49835963165E+02  0.29309334025E+03  0.34391727143E+03  0.17283479541E+03 0.  0.
         24    2    5    5    0    0  0.83866879617E+01 -0.28488373288E+02  0.83170940451E+02  0.11944177336E+03  0.80417709124E+02 0.  0.
          5    1    5    5  501    0 -0.12846930177E+02  0.78324336453E+02  0.20992239980E+03  0.22447549807E+03  0.47000000000E+01 0. -1.
        -11    1    6    6    0    0 -0.35923838727E+02 -0.13382092757E+02  0.44375768718E+02  0.58641379969E+02  0.00000000000E+00 0.  1.
         12    1    6    6    0    0  0.44310526688E+02 -0.15106280531E+02  0.38795171733E+02  0.60800393393E+02  0.00000000000E+00 0. -1.
         -5    1    3    3    0  503  0.43599716211E+02 -0.72506940062E+02  0.77555089206E+02  0.11486981097E+03  0.47000000000E+01 0.  1.
         13    1    4    4    0    0 -0.28929239810E+02  0.12469130696E+01  0.87848174194E+02  0.92497337353E+02  0.00000000000E+00 0. -1.
        -14    1    4    4    0    0 -0.10210234185E+02  0.21424063827E+02 -0.11723955183E+02  0.26470559460E+02  0.00000000000E+00 0.  1.
</event>
<event>
12    1  0.8494789E-002  0.2092698E+03  0.7818608E-02  0.1142710E+00
         21   -1    0    0  501  502  0.00000000000E+00  0.00000000000E+00  0.12612284474E+04  0.12612284474E+04  0.00000000000E+00 0.  1.
         21   -1    0    0  502  503 -0.00000000000E+00 -0.00000000000E+00 -0.34834860624E+02  0.34834860624E+02  0.00000000000E+00 0.  1.
         -6    2    1    2    0  503 -0.82310671334E+02 -0.83725084174E+02  0.53384041970E+03  0.57339291029E+03  0.17323076960E+03 0.  0.
        -24    2    3    3    0    0 -0.14243302991E+02 -0.99903676088E+02  0.42935872301E+03  0.44756195857E+03  0.76020902108E+02 0.  0.
          6    2    1    2  501    0  0.82310671334E+02  0.83725084174E+02  0.69255316708E+03  0.72267039773E+03  0.16981660163E+03 0.  0.
         24    2    5    5    0    0  0.29941046863E+02  0.81985275454E+02  0.62973147305E+03  0.64072981107E+03  0.79717695431E+02 0.  0.
          5    1    5    5  501    0  0.52369624471E+02  0.17398087199E+01  0.62821694023E+02  0.81940586655E+02  0.47000000000E+01 0. -1.
        -11    1    6    6    0    0  0.55571131115E+02  0.56158644723E+02  0.36085683602E+03  0.36940438559E+03  0.00000000000E+00 0.  1.
         12    1    6    6    0    0 -0.25630084253E+02  0.25826630731E+02  0.26887463703E+03  0.27132542548E+03  0.00000000000E+00 0. -1.
         -5    1    3    3    0  503 -0.68067368342E+02  0.16178591914E+02  0.10448169669E+03  0.12583095173E+03  0.47000000000E+01 0.  1.
         11    1    4    4    0    0 -0.18063463628E+02 -0.10897822208E+03  0.33616270468E+03  0.35384729138E+03  0.00000000000E+00 0. -1.
        -12    1    4    4    0    0  0.38201606366E+01  0.90745459882E+01  0.93196018330E+02  0.93714667181E+02  0.00000000000E+00 0.  1.
</event>
<event>
12    1  0.8494789E-002  0.1734043E+03  0.7818608E-02  0.1174433E+00
         21   -1    0    0  503  502  0.00000000000E+00  0.00000000000E+00  0.11890197619E+04  0.11890197619E+04  0.00000000000E+00 0. -1.
         21   -1    0    0  501  503 -0.00000000000E+00 -0.00000000000E+00 -0.60526768006E+02  0.60526768006E+02  0.00000000000E+00 0. -1.
          6    2    1    2  501    0 -0.30247611041E+01 -0.24209170370E+02  0.87429833814E+02  0.19419844009E+03  0.17167942563E+03 0.  0.
         24    2    3    3    0    0 -0.21017029681E+02 -0.43404711246E+02 -0.92382700500E+01  0.93903859867E+02  0.80043143176E+02 0.  0.
         -6    2    1    2    0  502  0.30247611041E+01  0.24209170370E+02  0.10410631601E+04  0.10553480898E+04  0.17132382872E+03 0.  0.
        -24    2    5    5    0    0 -0.21948153104E+02  0.68689367955E+02  0.45453210787E+03  0.46658421556E+03  0.76820846312E+02 0.  0.
          5    1    3    3  501    0  0.17992268577E+02  0.19195540876E+02  0.96668103864E+02  0.10029458023E+03  0.47000000000E+01 0. -1.
        -11    1    4    4    0    0 -0.18841687161E+02  0.21008702164E+02  0.27301642474E+01  0.28351870106E+02  0.00000000000E+00 0.  1.
         12    1    4    4    0    0 -0.21753425202E+01 -0.64413413409E+02 -0.11968434297E+02  0.65551989761E+02  0.00000000000E+00 0. -1.
         -5    1    5    5    0  502  0.24972914208E+02 -0.44480197586E+02  0.58653105221E+03  0.58876387426E+03  0.47000000000E+01 0.  1.
         13    1    6    6    0    0  0.16810699918E+02  0.63191801342E+02  0.25517898729E+03  0.26342383898E+03  0.00000000000E+00 0. -1.
        -14    1    6    6    0    0 -0.38758853022E+02  0.54975666136E+01  0.19935312059E+03  0.20316037658E+03  0.00000000000E+00 0.  1.
</event>
<event>
12    1  0.8494789E-002  0.1868729E+03  0.7818608E-02  0.1162695E+00
         21   -1    0    0  501  502  0.00000000000E+00  0.00000000000E+00  0.11267929398E+03  0.11267929398E+03  0.00000000000E+00 0. -1.
         21   -1    0    0  502  503 -0.00000000000E+00 -0.00000000000E+00 -0.31026269935E+03  0.31026269935E+03  0.00000000000E+00 0.  1.
         -6    2    1    2    0  503  0.64683061761E+02  0.22159329770E+02 -0.62272518846E+02  0.19697553380E+03  0.17391538154E+03 0.  0.
        -24    2    3    3    0    0 -0.19306685572E+02  0.76743730878E+01  0.12828800111E+02  0.83281251900E+02  0.79621257812E+02 0.  0.
          6    2    1    2  501    0 -0.64683061761E+02 -0.22159329770E+02 -0.13531088652E+03  0.22596645953E+03  0.16756154227E+03 0.  0.
         24    2    5    5    0    0 -0.77147234414E+02  0.11291767503E+02 -0.32698955443E+02  0.11722074739E+03  0.81192870016E+02 0.  0.
          5    1    5    5  501    0  0.12464172652E+02 -0.33451097273E+02 -0.10261193108E+03  0.10874571214E+03  0.47000000000E+01 0. -1.
        -13    1    6    6    0    0 -0.45347447143E+02  0.26953231337E+02 -0.54303732796E+02  0.75708407971E+02  0.00000000000E+00 0.  1.
         14    1    6    6    0    0 -0.31799787271E+02 -0.15661463834E+02  0.21604777353E+02  0.41512339423E+02  0.00000000000E+00 0. -1.
         -5    1    3    3    0  503  0.83989747334E+02  0.14484956682E+02 -0.75101318957E+02  0.11369428190E+03  0.47000000000E+01 0.  1.
         13    1    4    4    0    0  0.67236268841E+01  0.40126140863E+02  0.62911449797E+01  0.41169076310E+02  0.00000000000E+00 0. -1.
        -14    1    4    4    0    0 -0.26030312456E+02 -0.32451767775E+02  0.65376551312E+01  0.42112175590E+02  0.00000000000E+00 0.  1.
</event>
<event>
12    1  0.8494789E-002  0.2824422E+03  0.7818608E-02  0.1094521E+00
         21   -1    0    0  501  502  0.00000000000E+00  0.00000000000E+00  0.16617949389E+04  0.16617949389E+04  0.00000000000E+00 0. -1.
         21   -1    0    0  502  503 -0.00000000000E+00 -0.00000000000E+00 -0.77544494342E+02  0.77544494342E+02  0.00000000000E+00 0. -1.
         -6    2    1    2    0  503 -0.54887669677E+02 -0.21659916977E+03  0.25253365499E+03  0.37800067310E+03  0.17083151154E+03 0.  0.
        -24    2    3    3    0    0 -0.27366224897E+02 -0.19665515310E+03  0.26631844817E+03  0.34102359579E+03  0.77132467504E+02 0.  0.
          6    2    1    2  501    0  0.54887669677E+02  0.21659916977E+03  0.13317167896E+04  0.13613387602E+04  0.17275924177E+03 0.  0.
         24    2    5    5    0    0  0.90915692063E+02  0.14353650489E+03  0.10958551919E+04  0.11117612078E+04  0.79031577067E+02 0.  0.
          5    1    5    5  501    0 -0.36028022386E+02  0.73062664880E+02  0.23586159766E+03  0.24957755237E+03  0.47000000000E+01 0. -1.
        -13    1    6    6    0    0  0.20860712264E+02 -0.34534268375E+01  0.21030087101E+03  0.21136118807E+03  0.00000000000E+00 0.  1.
         14    1    6    6    0    0  0.70054979800E+02  0.14698993173E+03  0.88555432091E+03  0.90040001971E+03  0.00000000000E+00 0. -1.
         -5    1    3    3    0  503 -0.27521444781E+02 -0.19944016670E+02 -0.13784793177E+02  0.36977077314E+02  0.47000000000E+01 0.  1.
         11    1    4    4    0    0  0.21758235100E+02 -0.31875267998E+02  0.70933279754E+02  0.80752607892E+02  0.00000000000E+00 0. -1.
        -12    1    4    4    0    0 -0.49124459997E+02 -0.16477988510E+03  0.19538516841E+03  0.26027098790E+03  0.00000000000E+00 0.  1.
</event>
<event>
12    1  0.8494789E-002  0.1861018E+03  0.7818608E-02  0.1162247E+00
         21   -1    0    0  501  502  0.00000000000E+00  0.00000000000E+00  0.57536301779E+02  0.57536301779E+02  0.00000000000E+00 0.  1.
         21   -1    0    0  502  503 -0.00000000000E+00 -0.00000000000E+00 -0.68034210025E+03  0.68034210025E+03  0.00000000000E+00 0.  1.
         -6    2    1    2    0  503  0.58456235497E+02 -0.43963808194E+02 -0.43837643166E+03  0.47587062368E+03  0.17008529257E+03 0.  0.
        -24    2    3    3    0    0  0.24008918648E+02 -0.72697994462E+02 -0.16141708532E+03  0.19526263979E+03  0.78807337801E+02 0.  0.
          6    2    1    2  501    0 -0.58456235497E+02  0.43963808194E+02 -0.18442936681E+03  0.26200777834E+03  0.17112549977E+03 0.  0.
         24    2    5    5    0    0 -0.67802782129E+02  0.54869640845E+02 -0.20287399088E+03  0.23816266822E+03  0.89194762198E+02 0.  0.
          5    1    5    5  501    0  0.93465466320E+01 -0.10905832651E+02  0.18444624075E+02  0.23845110128E+02  0.47000000000E+01 0. -1.
        -11    1    6    6    0    0 -0.19050980431E+02  0.12551723299E+02  0.24347029415E+01  0.22943700477E+02  0.00000000000E+00 0.  1.
         12    1    6    6    0    0 -0.48751801698E+02  0.42317917547E+02 -0.20530869383E+03  0.21521896774E+03  0.00000000000E+00 0. -1.
         -5    1    3    3    0  503  0.34447316850E+02  0.28734186268E+02 -0.27695934634E+03  0.28060798389E+03  0.47000000000E+01 0.  1.
         11    1    4    4    0    0  0.21400619943E+02  0.12388133724E+02 -0.37870240894E+02  0.45228393035E+02  0.00000000000E+00 0. -1.
        -12    1    4    4    0    0  0.26082987043E+01 -0.85086128187E+02 -0.12354684443E+03  0.15003424676E+03  0.00000000000E+00 0.  1.
</event>
<event>
12    1  0.8494789E-002  0.2134064E+03  0.7818608E-02  0.1139618E+00
         21   -1    0    0  503  502  0.00000000000E+00  0.00000000000E+00  0.23019637594E+03  0.23019637594E+03  0.00000000000E+00 0. -1.
         21   -1    0    0  501  503 -0.00000000000E+00 -0.00000000000E+00 -0.21089019791E+03  0.21089019791E+03  0.00000000000E+00 0. -1.
          6    2    1    2  501    0  0.27627473252E+02 -0.12205198109E+03  0.71329537451E+02  0.22501156162E+03  0.17286508202E+03 0.  0.
         24    2    3    3    0    0 -0.22290998540E+02 -0.22899898591E+01  0.40645904306E+02  0.91601053363E+02  0.78971708674E+02 0.  0.
         -6    2    1    2    0  502 -0.27627473252E+02  0.12205198109E+03 -0.52023359412E+02  0.21607501223E+03  0.16829146628E+03 0.  0.
        -24    2    5    5    0    0 -0.19232666939E+02  0.91758906947E+02 -0.99893860860E+02  0.15861356409E+03  0.79936767472E+02 0.  0.
          5    1    3    3  501    0  0.49918471792E+02 -0.11976199123E+03  0.30683633144E+02  0.13341050825E+03  0.47000000000E+01 0. -1.
        -13    1    4    4    0    0  0.10094327112E+02  0.18163236120E+02 -0.13863279423E+02  0.24979773870E+02  0.00000000000E+00 0.  1.
         14    1    4    4    0    0 -0.32385325652E+02 -0.20453225979E+02  0.54509183729E+02  0.66621279494E+02  0.00000000000E+00 0. -1.
         -5    1    5    5    0  502 -0.83948063134E+01  0.30293074141E+02  0.47870501448E+02  0.57461448144E+02  0.47000000000E+01 0.  1.
         11    1    6    6    0    0 -0.24371098696E+01  0.31357218767E+02  0.92164316852E+01  0.32774338839E+02  0.00000000000E+00 0. -1.
        -12    1    6    6    0    0 -0.16795557069E+02  0.60401688180E+02 -0.10911029254E+03  0.12583922525E+03  0.00000000000E+00 0.  1.
</event>
<event>
12    1  0.8494789E-002  0.1769861E+03  0.7818608E-02  0.1173296E+00
         21   -1    0    0  501  502  0.00000000000E+00  0.00000000000E+00  0.10165398814E+04  0.10165398814E+04  0.00000000000E+00 0. -1.
         21   -1    0    0  502  503 -0.00000000000E+00 -0.00000000000E+00 -0.94824613386E+02  0.94824613386E+02  0.00000000000E+00 0. -1.
         -6    2    1    2    0  503 -0.36895246162E+02 -0.23414830750E+02  0.24012037329E+01  0.17700240322E+03  0.17150676803E+03 0.  0.
        -24    2    3    3    0    0 -0.72860920499E+02 -0.17838800368E+02  0.45824758660E+02  0.12014893395E+03  0.81908005040E+02 0.  0.
          6    2    1    2  501    0  0.36895246162E+02  0.23414830750E+02  0.91931406429E+03  0.93436209157E+03  0.16119756784E+03 0.  0.
         24    2    5    5    0    0  0.55705793837E+02  0.43229916276E+01  0.88594906779E+03  0.89130807880E+03  0.80015728957E+02 0.  0.
          5    1    5    5  501    0 -0.18810547675E+02  0.19091839123E+02  0.33364996498E+02  0.43054012778E+02  0.47000000000E+01 0. -1.
        -11    1    6    6    0    0  0.67889328875E+02 -0.18210139586E+02  0.71560448402E+03  0.71904822349E+03  0.00000000000E+00 0.  1.
         12    1    6    6    0    0 -0.12183535038E+02  0.22533131214E+02  0.17034458378E+03  0.17225985531E+03  0.00000000000E+00 0. -1.
         -5    1    3    3    0  503  0.35965674337E+02 -0.55760303824E+01 -0.43423554927E+02  0.56853469268E+02  0.47000000000E+01 0.  1.
         13    1    4    4    0    0 -0.25100443178E+02 -0.36728298888E+02 -0.86072455277E+01  0.45310979492E+02  0.00000000000E+00 0. -1.
        -14    1    4    4    0    0 -0.47760477321E+02  0.18889498520E+02  0.54432004188E+02  0.74837954463E+02  0.00000000000E+00 0.  1.
</event>
<event>
12    1  0.8494789E-002  0.1865542E+03  0.7818608E-02  0.1166323E+00
         21   -1    0    0  503  502  0.00000000000E+00  0.00000000000E+00  0.16866993746E+04  0.16866993746E+04  0.00000000000E+00 0. -1.
         21   -1    0    0  501  503 -0.00000000000E+00 -0.00000000000E+00 -0.39254807295E+02  0.39254807295E+02  0.00000000000E+00 0. -1.
          6    2    1    2  501    0 -0.33040848935E+02 -0.17733417338E+02  0.17632273670E+03  0.24305098154E+03  0.16302729943E+03 0.  0.
         24    2    3    3    0    0 -0.34759685465E+02  0.41638871612E+02  0.15184729881E+03  0.17863700670E+03  0.76886583003E+02 0.  0.
         -6    2    1    2    0  502  0.33040848935E+02  0.17733417338E+02  0.14711218306E+04  0.14829032003E+04  0.18274651665E+03 0.  0.
        -24    2    5    5    0    0  0.66981025051E+02 -0.38388203546E+02  0.66959920220E+03  0.67868793954E+03  0.79335463687E+02 0.  0.
          5    1    3    3  501    0  0.17188365301E+01 -0.59372288949E+02  0.24475437890E+02  0.64413974835E+02  0.47000000000E+01 0. -1.
        -13    1    4    4    0    0  0.71110677915E+01 -0.11924493461E+02  0.73957116555E+02  0.75249026031E+02  0.00000000000E+00 0.  1.
         14    1    4    4    0    0 -0.41870753256E+02  0.53563365072E+02  0.77890182252E+02  0.10338798067E+03  0.00000000000E+00 0. -1.
         -5    1    5    5    0  502 -0.33940176116E+02  0.56121620884E+02  0.80152262837E+03  0.80421526078E+03  0.47000000000E+01 0.  1.
         13    1    6    6    0    0  0.74705367153E+01 -0.55221057149E+01  0.41691034368E+03  0.41701383339E+03  0.00000000000E+00 0. -1.
        -14    1    6    6    0    0  0.59510488335E+02 -0.32866097831E+02  0.25268885852E+03  0.26167410615E+03  0.00000000000E+00 0.  1.
</event>
<event>
12    1  0.8494789E-002  0.2745482E+03  0.7818608E-02  0.1099354E+00
         21   -1    0    0  503  502  0.00000000000E+00  0.00000000000E+00  0.14396141705E+03  0.14396141705E+03  0.00000000000E+00 0.  1.
         21   -1    0    0  501  503 -0.00000000000E+00 -0.00000000000E+00 -0.65497225437E+03  0.65497225437E+03  0.00000000000E+00 0.  1.
          6    2    1    2  501    0  0.15784288133E+03  0.13407767916E+03 -0.43856765741E+03  0.51498870060E+03  0.17314898897E+03 0.  0.
         24    2    3    3    0    0  0.15470694394E+03  0.10421234397E+03 -0.44014114905E+03  0.48455289561E+03  0.79201176902E+02 0.  0.
         -6    2    1    2    0  502 -0.15784288133E+03 -0.13407767916E+03 -0.72443179911E+02  0.28394497082E+03  0.18023743480E+03 0.  0.
        -24    2    5    5    0    0 -0.36388907126E+02 -0.12205009053E+03 -0.19956279103E+02  0.15100628008E+03  0.78640106750E+02 0.  0.
          5    1    3    3  501    0  0.31359373860E+01  0.29865335186E+02  0.15734916381E+01  0.30435804984E+02  0.47000000000E+01 0. -1.
        -11    1    4    4    0    0  0.68727356557E+02  0.85299678583E+02 -0.18927365719E+03  0.21868699553E+03  0.00000000000E+00 0.  1.
         12    1    4    4    0    0  0.85979587387E+02  0.18912665386E+02 -0.25086749185E+03  0.26586590008E+03  0.00000000000E+00 0. -1.
         -5    1    5    5    0  502 -0.12145397420E+03 -0.12027588630E+02 -0.52486900808E+02  0.13293869074E+03  0.47000000000E+01 0.  1.
         13    1    6    6    0    0  0.11340467614E+02  0.60438745322E+01 -0.35235754517E+01  0.13324796772E+02  0.00000000000E+00 0. -1.
        -14    1    6    6    0    0 -0.47729374740E+02 -0.12809396506E+03 -0.16432703652E+02  0.13768148331E+03  0.00000000000E+00 0.  1.
</event>
<event>
12    1  0.8494789E-002  0.2066590E+03  0.7818608E-02  0.1144621E+00
         21   -1    0    0  503  502  0.00000000000E+00  0.00000000000E+00  0.13548028155E+03  0.13548028155E+03  0.00000000000E+00 0.  1.
         21   -1    0    0  501  503 -0.00000000000E+00 -0.00000000000E+00 -0.31563693053E+03  0.31563693053E+03  0.00000000000E+00 0.  1.
          6    2    1    2  501    0 -0.11229943330E+03 -0.19388208270E+01 -0.11342535742E+03  0.23573977409E+03  0.17347336290E+03 0.  0.
         24    2    3    3    0    0 -0.21782542257E+02 -0.57195748262E+02 -0.63031651609E+02  0.11823125875E+03  0.79118952682E+02 0.  0.
         -6    2    1    2    0  502  0.11229943330E+03  0.19388208270E+01 -0.66731291553E+02  0.21537743799E+03  0.17122924335E+03 0.  0.
        -24    2    5    5    0    0  0.43508765214E+02 -0.14860106508E+02 -0.10747809171E+03  0.13354375484E+03  0.64564377519E+02 0.  0.
          5    1    3    3  501    0 -0.90516891040E+02  0.55256927435E+02 -0.50393705815E+02  0.11750851535E+03  0.47000000000E+01 0. -1.
        -11    1    4    4    0    0 -0.49021381385E+02 -0.22747330289E+02 -0.22737826957E+02  0.58630586241E+02  0.00000000000E+00 0.  1.
         12    1    4    4    0    0  0.27238839129E+02 -0.34448417973E+02 -0.40293824652E+02  0.59600672504E+02  0.00000000000E+00 0. -1.
         -5    1    5    5    0  502  0.68790668082E+02  0.16798927335E+02  0.40746800155E+02  0.81833683149E+02  0.47000000000E+01 0.  1.
         11    1    6    6    0    0  0.82945016850E+01  0.85197562020E+01 -0.84695236540E+02  0.85525832919E+02  0.00000000000E+00 0. -1.
        -12    1    6    6    0    0  0.35214263529E+02 -0.23379862710E+02 -0.22782855168E+02  0.48017921923E+02  0.00000000000E+00 0.  1.
</event>
<event>
12    1  0.8494789E-002  0.1981486E+03  0.7818608E-02  0.1151636E+00
         21   -1    0    0  501  502  0.00000000000E+00  0.00000000000E+00  0.12257039927E+04  0.12257039927E+04  0.00000000000E+00 0. -1.
         21   -1    0    0  502  503 -0.00000000000E+00 -0.00000000000E+00 -0.91622905910E+02  0.91622905910E+02  0.00000000000E+00 0. -1.
         -6    2    1    2    0  503  0.93032316301E+02 -0.15007322427E+02  0.34003874829E+02  0.19954662134E+03  0.17257566162E+03 0.  0.
        -24    2    3    3    0    0 -0.14582539198E+02 -0.49898100953E+01 -0.15327675905E+02  0.80647506226E+02  0.77662950997E+02 0.  0.
          6    2    1    2  501    0 -0.93032316301E+02  0.15007322427E+02  0.11000772119E+04  0.11177802773E+04  0.17430617995E+03 0.  0.
         24    2    5    5    0    0 -0.11309960574E+03 -0.35017035222E+02  0.83850789294E+03  0.85067406035E+03  0.80827945980E+02 0.  0.
          5    1    5    5  501    0  0.20067289443E+02  0.50024357649E+02  0.26156931900E+03  0.26710621690E+03  0.47000000000E+01 0. -1.
        -11    1    6    6    0    0 -0.49662420548E+02 -0.54721870945E+02  0.52752532996E+03  0.53267608631E+03  0.00000000000E+00 0.  1.
         12    1    6    6    0    0 -0.63437185195E+02  0.19704835723E+02  0.31098256298E+03  0.31799797404E+03  0.00000000000E+00 0. -1.
         -5    1    3    3    0  503  0.10761485550E+03 -0.10017512332E+02  0.49331550734E+02  0.11889911512E+03  0.47000000000E+01 0.  1.
         13    1    4    4    0    0  0.25183936103E+02 -0.19980889381E+02 -0.20050100982E+02  0.37887638188E+02  0.00000000000E+00 0. -1.
        -14    1    4    4    0    0 -0.39766475301E+02  0.14991079286E+02  0.47224250770E+01  0.42759868038E+02  0.00000000000E+00 0.  1.
</event>
<event>
12    1  0.8494789E-002  0.2280395E+03  0.7818608E-02  0.1128223E+00
         21   -1    0    0  503  502  0.00000000000E+00  0.00000000000E+00  0.73086396498E+02  0.73086396498E+02  0.00000000000E+00 0. -1.
         21   -1    0    0  501  503 -0.00000000000E+00 -0.00000000000E+00 -0.78164817628E+03  0.78164817628E+03  0.00000000000E+00 0. -1.
          6    2    1    2  501    0 -0.64313283818E+02 -0.13383341541E+03 -0.48460809181E+03  0.53511406986E+03  0.17162308573E+03 0.  0.
         24    2    3    3    0    0 -0.91966163978E+01 -0.14439563290E+03 -0.41040876415E+03  0.44196345155E+03  0.77211801303E+02 0.  0.
         -6    2    1    2    0  502  0.64313283818E+02  0.13383341541E+03 -0.22395368797E+03  0.31962050292E+03  0.17307348143E+03 0.  0.
        -24    2    5    5    0    0  0.99139666478E+02  0.14024271984E+03 -0.16540752257E+03  0.25103698015E+03  0.78506196843E+02 0.  0.
          5    1    3    3  501    0 -0.55116667420E+02  0.10562217495E+02 -0.74199327664E+02  0.93150618311E+02  0.47000000000E+01 0. -1.
        -13    1    4    4    0    0  0.31416463523E+02 -0.41157678326E+02 -0.10601930350E+03  0.11798746281E+03  0.00000000000E+00 0.  1.
         14    1    4    4    0    0 -0.40613079921E+02 -0.10323795458E+03 -0.30438946065E+03  0.32397598874E+03  0.00000000000E+00 0. -1.
         -5    1    5    5    0  502 -0.34826382660E+02 -0.64093044272E+01 -0.58546165402E+02  0.68583522771E+02  0.47000000000E+01 0.  1.
         11    1    6    6    0    0  0.56029087373E+02  0.34942182411E+02 -0.99878783453E+02  0.11973297845E+03  0.00000000000E+00 0. -1.
        -12    1    6    6    0    0  0.43110579106E+02  0.10530053743E+03 -0.65528739118E+02  0.13130400170E+03  0.00000000000E+00 0.  1.
</event>
<event>
12    1  0.8494789E-002  0.2186900E+03  0.7818608E-02  0.1135026E+00
         21   -1    0    0  501  502  0.00000000000E+00  0.00000000000E+00  0.15048447676E+04  0.15048447676E+04  0.00000000000E+00 0. -1.
         21   -1    0    0  502  503 -0.00000000000E+00 -0.00000000000E+00 -0.53792379877E+02  0.53792379877E+02  0.00000000000E+00 0. -1.
         -6    2    1    2    0  503  0.60714660641E+02  0.11919344996E+03  0.22474392884E+03  0.31298160430E+03  0.17191364853E+03 0.  0.
        -24    2    3    3    0    0  0.68648607363E+02  0.13687705894E+03  0.12858220748E+03  0.21477353848E+03  0.78398521633E+02 0.  0.
          6    2    1    2  501    0 -0.60714660641E+02 -0.11919344996E+03  0.12263084589E+04  0.12456555432E+04  0.17300851825E+03 0.  0.
         24    2    5    5    0    0 -0.78690201328E+02 -0.40371498652E+02  0.95525867245E+03  0.96276670141E+03  0.81108472823E+02 0.  0.
          5    1    5    5  501    0  0.17975540687E+02 -0.78821951307E+02  0.27104978645E+03  0.28288884178E+03  0.47000000000E+01 0. -1.
        -13    1    6    6    0    0  0.43566353802E+01 -0.22018017748E+02  0.71870125087E+02  0.75293348029E+02  0.00000000000E+00 0.  1.
         14    1    6    6    0    0 -0.83046836708E+02 -0.18353480904E+02  0.88338854736E+03  0.88747335338E+03  0.00000000000E+00 0. -1.
         -5    1    3    3    0  503 -0.79339467219E+01 -0.17683608978E+02  0.96161721367E+02  0.98208065827E+02  0.47000000000E+01 0.  1.
         11    1    4    4    0    0  0.75574306751E+02  0.66556413392E+02  0.84765894956E+02  0.13163012175E+03  0.00000000000E+00 0. -1.
        -12    1    4    4    0    0 -0.69256993885E+01  0.70320645546E+02  0.43816312520E+02  0.83143416726E+02  0.00000000000E+00 0.  1.
</event>
<event>
12    1  0.8494789E-002  0.1890579E+03  0.7818608E-02  0.1160714E+00
         21   -1    0    0  503  502  0.00000000000E+00  0.00000000000E+00  0.35632745705E+03  0.35632745705E+03  0.00000000000E+00 0. -1.
         21   -1    0    0  501  503 -0.00000000000E+00 -0.00000000000E+00 -0.12462343075E+03  0.12462343075E+03  0.00000000000E+00 0. -1.
          6    2    1    2  501    0  0.46380965850E+02  0.43445963608E+02  0.43591237426E+01  0.18910812800E+03  0.17805655385E+03 0.  0.
         24    2    3    3    0    0 -0.38610294629E+02  0.42074231649E+02 -0.19620618199E+02  0.10066315058E+03  0.80542568911E+02 0.  0.
         -6    2    1    2    0  502 -0.46380965850E+02 -0.43445963608E+02  0.22734490255E+03  0.29184275980E+03  0.17160345564E+03 0.  0.
        -24    2    5    5    0    0 -0.58688260593E+02 -0.78883133907E+02  0.10869051731E+03  0.16731077323E+03  0.80699476698E+02 0.  0.
          5    1    3    3  501    0  0.84991260479E+02  0.13717319594E+01  0.23979741941E+02  0.88444977415E+02  0.47000000000E+01 0. -1.
        -11    1    4    4    0    0 -0.14247732623E+02  0.10177011736E+02  0.31276708364E+02  0.35844133953E+02  0.00000000000E+00 0.  1.
         12    1    4    4    0    0 -0.24362562007E+02  0.31897219913E+02 -0.50897326563E+02  0.64819016630E+02  0.00000000000E+00 0. -1.
         -5    1    5    5    0  502  0.12307294743E+02  0.35437170299E+02  0.11865438525E+03  0.12453198658E+03  0.47000000000E+01 0.  1.
         13    1    6    6    0    0 -0.74644373069E+01 -0.56030865715E+02  0.15618725510E+02  0.58644013536E+02  0.00000000000E+00 0. -1.
        -14    1    6    6    0    0 -0.51223823286E+02 -0.22852268192E+02  0.93071791797E+02  0.10866675969E+03  0.00000000000E+00 0.  1.
</event>
<event>
12    1  0.8494789E-002  0.1914868E+03  0.7818608E-02  0.1157337E+00
         21   -1    0    0  503  502  0.00000000000E+00  0.00000000000E+00  0.27356438724E+03  0.27356438724E+03  0.00000000000E+00 0.  1.
         21   -1    0    0  501  503 -0.00000000000E+00 -0.00000000000E+00 -0.22676409848E+03  0.22676409848E+03  0.00000000000E+00 0.  1.
          6    2    1    2  501    0  0.82074680279E+01 -0.84244116305E+02 -0.13717002822E+03  0.23478704062E+03  0.17071878672E+03 0.  0.
         24    2    3    3    0    0  0.59565328614E+02 -0.49938404489E+02 -0.97419733568E+02  0.16118889097E+03  0.10222221612E+03 0.  0.
         -6    2    1    2    0  502 -0.82074680279E+01  0.84244116305E+02  0.18397031699E+03  0.26554144509E+03  0.17176363954E+03 0.  0.
        -24    2    5    5    0    0  0.36797028427E+01  0.12523975564E+02  0.16739627447E+02  0.83131804605E+02  0.80375939390E+02 0.  0.
          5    1    3    3  501    0 -0.51357860586E+02 -0.34305711816E+02 -0.39750294652E+02  0.73598149651E+02  0.47000000000E+01 0. -1.
        -11    1    4    4    0    0 -0.12262853952E+02 -0.40333367071E+02 -0.73759649747E+02  0.84956718493E+02  0.00000000000E+00 0.  1.
         12    1    4    4    0    0  0.71828182566E+02 -0.96050374181E+01 -0.23660083821E+02  0.76232172479E+02  0.00000000000E+00 0. -1.
         -5    1    5    5    0  502 -0.11887170871E+02  0.71720140741E+02  0.16723068954E+03  0.18240964049E+03  0.47000000000E+01 0.  1.
         13    1    6    6    0    0  0.37046374509E+02  0.21623883973E+02 -0.35365668889E+01  0.43041067920E+02  0.00000000000E+00 0. -1.
        -14    1    6    6    0    0 -0.33366671667E+02 -0.90999084091E+01  0.20276194336E+02  0.40090736685E+02  0.00000000000E+00 0.  1.
</event>
<event>
12    1  0.8494789E-002  0.2243232E+03  0.7818608E-02  0.1130884E+00
         21   -1    0    0  501  502  0.00000000000E+00  0.00000000000E+00  0.27839106498E+02  0.27839106498E+02  0.00000000000E+00 0. -1.
         21   -1    0    0  502  503 -0.00000000000E+00 -0.00000000000E+00 -0.20559166988E+04  0.20559166988E+04  0.00000000000E+00 0.  1.
         -6    2    1    2    0  503 -0.49090831356E+02  0.13597116224E+03 -0.13800308852E+04  0.13979822049E+04  0.17020850278E+03 0.  0.
        -24    2    3    3    0    0 -0.77359381883E+02  0.77110496989E+02 -0.61318720051E+03  0.62834916532E+03  0.83027874689E+02 0.  0.
          6    2    1    2  501    0  0.49090831356E+02 -0.13597116224E+03 -0.64804670709E+03  0.68577360039E+03  0.17153084193E+03 0.  0.
         24    2    5    5    0    0 -0.13304031953E+02 -0.12132712284E+03 -0.54730552631E+03  0.56628116396E+03  0.78954097613E+02 0.  0.
          5    1    5    5  501    0  0.62394863309E+02 -0.14644039405E+02 -0.10074118078E+03  0.11949243643E+03  0.47000000000E+01 0. -1.
        -11    1    6    6    0    0 -0.10334211806E+02 -0.41351109346E+02 -0.36108038517E+03  0.36358734127E+03  0.00000000000E+00 0.  1.
         12    1    6    6    0    0 -0.29698201467E+01 -0.79976013492E+02 -0.18622514114E+03  0.20269382269E+03  0.00000000000E+00 0. -1.
         -5    1    3    3    0  503  0.28268550526E+02  0.58860665254E+02 -0.76684368474E+03  0.76963303962E+03  0.47000000000E+01 0.  1.
         11    1    4    4    0    0 -0.67601140010E+02  0.72622689455E+02 -0.60865953798E+03  0.61669311843E+03  0.00000000000E+00 0. -1.
        -12    1    4    4    0    0 -0.97582418723E+01  0.44878075339E+01 -0.45276625308E+01  0.11656046881E+02  0.00000000000E+00 0.  1.
</event>
<event>
12    1  0.8494789E-002  0.2350596E+03  0.7818608E-02  0.1124828E+00
         21   -1    0    0  501  502  0.00000000000E+00  0.00000000000E+00  0.61088158446E+03  0.61088158446E+03  0.00000000000E+00 0. -1.
         21   -1    0    0  502  503 -0.00000000000E+00 -0.00000000000E+00 -0.23616510076E+03  0.23616510076E+03  0.00000000000E+00 0. -1.
         -6    2    1    2    0  503  0.70563970809E+02 -0.13359925120E+03 -0.15093953463E+03  0.27122792531E+03  0.16719393068E+03 0.  0.
        -24    2    3    3    0    0  0.53963038229E+02 -0.47540826813E+02 -0.13562673954E+02  0.10820603960E+03  0.79702328526E+02 0.  0.
          6    2    1    2  501    0 -0.70563970809E+02  0.13359925120E+03  0.52565601833E+03  0.57581875991E+03  0.18006932210E+03 0.  0.
         24    2    5    5    0    0 -0.74960212264E+02  0.26075430853E+02  0.36855859297E+03  0.38533939112E+03  0.79699738886E+02 0.  0.
          5    1    5    5  501    0  0.43962414553E+01  0.10752382035E+03  0.15709742536E+03  0.19047936880E+03  0.47000000000E+01 0. -1.
        -11    1    6    6    0    0 -0.66320499928E+02  0.81546762684E+01  0.13203170744E+03  0.14797729294E+03  0.00000000000E+00 0.  1.
         12    1    6    6    0    0 -0.86397123357E+01  0.17920754584E+02  0.23652688552E+03  0.23736209817E+03  0.00000000000E+00 0. -1.
         -5    1    3    3    0  503  0.16600932580E+02 -0.86058424387E+02 -0.13737686067E+03  0.16302188571E+03  0.47000000000E+01 0.  1.
         13    1    4    4    0    0  0.62502010206E+02 -0.42744534395E+02 -0.35912041811E+02  0.83804959564E+02  0.00000000000E+00 0. -1.
        -14    1    4    4    0    0 -0.85389719768E+01 -0.47962924179E+01  0.22349367857E+02  0.24401080037E+02  0.00000000000E+00 0.  1.
</event>
<event>
12    1  0.8494789E-002  0.2369229E+03  0.7818608E-02  0.1122058E+00
         21   -1    0    0  503  502  0.00000000000E+00  0.00000000000E+00  0.46454243780E+03  0.46454243780E+03  0.00000000000E+00 0.  1.
         21   -1    0    0  501  503 -0.00000000000E+00 -0.00000000000E+00 -0.26037762709E+03  0.26037762709E+03  0.00000000000E+00 0.  1.
          6    2    1    2  501    0 -0.15501023399E+03 -0.40430111801E+02 -0.16371214464E+03  0.28798283792E+03  0.17455567036E+03 0.  0.
         24    2    3    3    0    0 -0.64832519745E+02  0.21629891370E+02 -0.19074018177E+02  0.10652832085E+03  0.79456636954E+02 0.  0.
         -6    2    1    2    0  502  0.15501023399E+03  0.40430111801E+02  0.36787695536E+03  0.43693722696E+03  0.17296797229E+03 0.  0.
        -24    2    5    5    0    0  0.73445876701E+02  0.63162320920E+02  0.31280955413E+03  0.33582339809E+03  0.74456443381E+02 0.  0.
          5    1    3    3  501    0 -0.90177714244E+02 -0.62060003171E+02 -0.14463812647E+03  0.18145451708E+03  0.47000000000E+01 0. -1.
        -11    1    4    4    0    0 -0.41247029511E+02 -0.43983825879E+01 -0.46243560868E+02  0.62121897384E+02  0.00000000000E+00 0.  1.
         12    1    4    4    0    0 -0.23585490234E+02  0.26028273957E+02  0.27169542691E+02  0.44406423463E+02  0.00000000000E+00 0. -1.
         -5    1    5    5    0  502  0.81564357288E+02 -0.22732209118E+02  0.55067401231E+02  0.10111382887E+03  0.47000000000E+01 0.  1.
         11    1    6    6    0    0  0.27958949648E+02  0.13869343092E+00  0.17824918008E+03  0.18042863493E+03  0.00000000000E+00 0. -1.
        -12    1    6    6    0    0  0.45486927053E+02  0.63023627489E+02  0.13456037404E+03  0.15539476316E+03  0.00000000000E+00 0.  1.
</event>
<event>
12    1  0.8494789E-002  0.1729813E+03  0.7818608E-02  0.1175015E+00
         21   -1    0    0  501  502  0.00000000000E+00  0.00000000000E+00  0.63056274311E+02  0.63056274311E+02  0.00000000000E+00 0. -1.
         21   -1    0    0  502  503 -0.00000000000E+00 -0.00000000000E+00 -0.49974189854E+03  0.49974189854E+03  0.00000000000E+00 0. -1.
         -6    2    1    2    0  503  0.72787771960E+01 -0.12826764335E+02 -0.28413340008E+03  0.33215839896E+03  0.17140567808E+03 0.  0.
        -24    2    3    3    0    0  0.27792426772E+02  0.12667714501E+02 -0.28657972096E+03  0.29900945093E+03  0.79660688576E+02 0.  0.
          6    2    1    2  501    0 -0.72787771960E+01  0.12826764335E+02 -0.15255222414E+03  0.23063977389E+03  0.17235143668E+03 0.  0.
         24    2    5    5    0    0  0.14082960800E+02  0.14403725368E+02 -0.17874104580E+03  0.19648197777E+03  0.79063323007E+02 0.  0.
          5    1    5    5  501    0 -0.21361737996E+02 -0.15769610325E+01  0.26188821652E+02  0.34157796121E+02  0.47000000000E+01 0. -1.
        -11    1    6    6    0    0  0.39945494727E+02 -0.10985821370E+02 -0.12479713882E+03  0.13149394160E+03  0.00000000000E+00 0.  1.
         12    1    6    6    0    0 -0.25862533927E+02  0.25389546738E+02 -0.53943906979E+02  0.64988036167E+02  0.00000000000E+00 0. -1.
         -5    1    3    3    0  503 -0.20513649576E+02 -0.25494478836E+02  0.24463208734E+01  0.33148948036E+02  0.47000000000E+01 0.  1.
         13    1    4    4    0    0  0.31681512961E+02 -0.25554048700E+02 -0.90944123607E+02  0.99637148128E+02  0.00000000000E+00 0. -1.
        -14    1    4    4    0    0 -0.38890861895E+01  0.38221763201E+02 -0.19563559735E+03  0.19937230280E+03  0.00000000000E+00 0.  1.
</event>
<event>
12    1  0.8494789E-002  0.2279348E+03  0.7818608E-02  0.1128354E+00
         21   -1    0    0  501  502  0.00000000000E+00  0.00000000000E+00  0.42131541982E+03  0.42131541982E+03  0.00000000000E+00 0. -1.
         21   -1    0    0  502  503 -0.00000000000E+00 -0.00000000000E+00 -0.12683921660E+03  0.12683921660E+03  0.00000000000E+00 0. -1.
         -6    2    1    2    0  503  0.11228669779E+03  0.96273540714E+02  0.19717840155E+03  0.30032175525E+03  0.17157196011E+03 0.  0.
        -24    2    3    3    0    0  0.88963219291E+02  0.16222487236E+02  0.17693750237E+03  0.21439190123E+03  0.80494621485E+02 0.  0.
          6    2    1    2  501    0 -0.11228669779E+03 -0.96273540714E+02  0.97297801674E+02  0.24783288118E+03  0.17342830692E+03 0.  0.
         24    2    5    5    0    0 -0.45929082931E+02 -0.82855973654E+02  0.12386197482E+03  0.17495552221E+03  0.79328764735E+02 0.  0.
          5    1    5    5  501    0 -0.66357614854E+02 -0.13417567060E+02 -0.26564173150E+02  0.72877358968E+02  0.47000000000E+01 0. -1.
        -11    1    6    6    0    0 -0.56879439293E+02 -0.63531543901E+02  0.52319117481E+02  0.10004407898E+03  0.00000000000E+00 0.  1.
         12    1    6    6    0    0  0.10950356362E+02 -0.19324429753E+02  0.71542857344E+02  0.74911443229E+02  0.00000000000E+00 0. -1.
         -5    1    3    3    0  503  0.23323478495E+02  0.80051053477E+02  0.20240899174E+02  0.85929854017E+02  0.47000000000E+01 0.  1.
         13    1    4    4    0    0  0.37299271062E+02  0.45567888919E+02  0.11086030708E+03  0.12552958141E+03  0.00000000000E+00 0. -1.
        -14    1    4    4    0    0  0.51663948228E+02 -0.29345401683E+02  0.66077195295E+02  0.88862319824E+02  0.00000000000E+00 0.  1.
</event>
<event>
12    1  0.8494789E-002  0.2600210E+03  0.7818608E-02  0.1107266E+00
         21   -1    0    0  501  502  0.00000000000E+00  0.00000000000E+00  0.24154645493E+03  0.24154645493E+03  0.00000000000E+00 0. -1.
         21   -1    0    0  502  503 -0.00000000000E+00 -0.00000000000E+00 -0.28621717929E+03  0.28621717929E+03  0.00000000000E+00 0. -1.
         -6    2    1    2    0  503  0.17289264012E+03  0.91318561553E+02 -0.64443614556E+02  0.26788782322E+03  0.17140583911E+03 0.  0.
        -24    2    3    3    0    0  0.18764806237E+03  0.11306939711E+03 -0.51837336968E+02  0.23836106302E+03  0.78309660862E+02 0.  0.
          6    2    1    2  501    0 -0.17289264012E+03 -0.91318561553E+02  0.19772890197E+02  0.25987581099E+03  0.17003977553E+03 0.  0.
         24    2    5    5    0    0 -0.14722581616E+03 -0.60318657322E+01  0.14802280346E+01  0.16883012013E+03  0.82398992956E+02 0.  0.
          5    1    5    5  501    0 -0.25666823962E+02 -0.85286695821E+02  0.18292662162E+02  0.91045690866E+02  0.47000000000E+01 0. -1.
        -11    1    6    6    0    0 -0.85633357829E+02  0.37412415874E+02  0.43853134134E+00  0.93450270970E+02  0.00000000000E+00 0.  1.
         12    1    6    6    0    0 -0.61592458327E+02 -0.43444281606E+02  0.10416966932E+01  0.75379849157E+02  0.00000000000E+00 0. -1.
         -5    1    3    3    0  503 -0.14755422257E+02 -0.21750835554E+02 -0.12606277588E+02  0.29526760200E+02  0.47000000000E+01 0.  1.
         11    1    4    4    0    0  0.87964485108E+02  0.71996360696E+02 -0.63014549791E+02  0.12996945826E+03  0.00000000000E+00 0. -1.
        -12    1    4    4    0    0  0.99683577267E+02  0.41073036411E+02  0.11177212823E+02  0.10839160476E+03  0.00000000000E+00 0.  1.
</event>
<event>
12    1  0.8494789E-002  0.1837110E+03  0.7818608E-02  0.1164684E+00
         21   -1    0    0  503  502  0.00000000000E+00  0.00000000000E+00  0.27304716617E+02  0.27304716617E+02  0.00000000000E+00 0. -1.
         21   -1    0    0  501  503 -0.00000000000E+00 -0.00000000000E+00 -0.12371954002E+04  0.12371954002E+04  0.00000000000E+00 0. -1.
          6    2    1    2  501    0  0.39870665899E+02 -0.43640292915E+02 -0.54259835566E+03  0.57285488591E+03  0.17394136823E+03 0.  0.
         24    2    3    3    0    0  0.67514967688E+02 -0.37177680860E+02 -0.52984512636E+03  0.54137937744E+03  0.80095702609E+02 0.  0.
         -6    2    1    2    0  502 -0.39870665899E+02  0.43640292915E+02 -0.66729232793E+03  0.69164523091E+03  0.17204630007E+03 0.  0.
        -24    2    5    5    0    0 -0.84029416155E+02  0.31226277850E+02 -0.58781958418E+03  0.59976427536E+03  0.78417467734E+02 0.  0.
          5    1    3    3  501    0 -0.27644301789E+02 -0.64626120550E+01 -0.12753229309E+02  0.31475508475E+02  0.47000000000E+01 0. -1.
        -11    1    4    4    0    0  0.51077316921E+02 -0.38621165626E+02 -0.51565595752E+03  0.51961673690E+03  0.00000000000E+00 0.  1.
         12    1    4    4    0    0  0.16437650766E+02  0.14434847661E+01 -0.14189168832E+02  0.21762640537E+02  0.00000000000E+00 0. -1.
         -5    1    5    5    0  502  0.44158750256E+02  0.12414015065E+02 -0.79472743744E+02  0.91880955548E+02  0.47000000000E+01 0.  1.
         11    1    6    6    0    0 -0.77683691836E+02  0.11619659114E+02 -0.55809066747E+03  0.56359113333E+03  0.00000000000E+00 0. -1.
        -12    1    6    6    0    0 -0.63457243193E+01  0.19606618737E+02 -0.29728916714E+02  0.36173142031E+02  0.00000000000E+00 0.  1.
</event>
<event>
12    1  0.8494789E-002  0.1727086E+03  0.7818608E-02  0.1175068E+00
         21   -1    0    0  501  502  0.00000000000E+00  0.00000000000E+00  0.76462175748E+03  0.76462175748E+03  0.00000000000E+00 0. -1.
         21   -1    0    0  502  503 -0.00000000000E+00 -0.00000000000E+00 -0.70422406750E+02  0.70422406750E+02  0.00000000000E+00 0. -1.
         -6    2    1    2    0  503 -0.20254701664E+01  0.16851596605E+02  0.68221748072E+02  0.18569457910E+03  0.17187260096E+03 0.  0.
        -24    2    3    3    0    0  0.42810012332E+01  0.34293602344E+02 -0.25985416545E+02  0.89564068800E+02  0.78435339061E+02 0.  0.
          6    2    1    2  501    0  0.20254701664E+01 -0.16851596605E+02  0.62597760265E+03  0.64934958513E+03  0.17181049398E+03 0.  0.
         24    2    5    5    0    0  0.16250863157E+02 -0.15043069433E+02  0.62772854220E+03  0.63415786483E+03  0.87308019913E+02 0.  0.
          5    1    5    5  501    0 -0.14225392990E+02 -0.18085271719E+01 -0.17509395458E+01  0.15191720296E+02  0.47000000000E+01 0. -1.
        -11    1    6    6    0    0 -0.32702681683E+02 -0.11848558747E+02  0.15313693699E+03  0.15703749617E+03  0.00000000000E+00 0.  1.
         12    1    6    6    0    0  0.48953544840E+02 -0.31945106859E+01  0.47459160521E+03  0.47712036865E+03  0.00000000000E+00 0. -1.
         -5    1    3    3    0  503 -0.63064713995E+01 -0.17442005739E+02  0.94207164617E+02  0.96130510301E+02  0.47000000000E+01 0.  1.
         13    1    4    4    0    0 -0.82169786096E+01 -0.18470276888E+02  0.11861291922E+02  0.23438432368E+02  0.00000000000E+00 0. -1.
        -14    1    4    4    0    0  0.12497979843E+02  0.52763879232E+02 -0.37846708467E+02  0.66125636432E+02  0.00000000000E+00 0.  1.
</event>
<event>
12    1  0.8494789E-002  0.1922968E+03  0.7818608E-02  0.1156848E+00
         21   -1    0    0  501  502  0.00000000000E+00  0.00000000000E+00  0.63297014897E+02  0.63297014897E+02  0.00000000000E+00 0. -1.
         21   -1    0    0  502  503 -0.00000000000E+00 -0.00000000000E+00 -0.11001331580E+04  0.11001331580E+04  0.00000000000E+00 0. -1.
         -6    2    1    2    0  503  0.79846166468E+02 -0.35841502573E+02 -0.92050674910E+03  0.94037797447E+03  0.17122510366E+03 0.  0.
        -24    2    3    3    0    0 -0.10885212112E+01 -0.77129270512E+02 -0.56825780306E+03  0.57656962735E+03  0.59711767601E+02 0.  0.
          6    2    1    2  501    0 -0.79846166468E+02  0.35841502573E+02 -0.11632939397E+03  0.22305219839E+03  0.16899624759E+03 0.  0.
         24    2    5    5    0    0 -0.49749779044E+02  0.46817706724E+02 -0.36058586775E+01  0.10577067810E+03  0.80669052006E+02 0.  0.
          5    1    5    5  501    0 -0.30096387424E+02 -0.10976204151E+02 -0.11272353529E+03  0.11728152029E+03  0.47000000000E+01 0. -1.
        -13    1    6    6    0    0 -0.21624562112E+02 -0.21433594245E+02  0.68684493322E+01  0.31212116959E+02  0.00000000000E+00 0.  1.
         14    1    6    6    0    0 -0.28125216932E+02  0.68251300969E+02 -0.10474308010E+02  0.74558561143E+02  0.00000000000E+00 0. -1.
         -5    1    3    3    0  503  0.80934687679E+02  0.41287767939E+02 -0.35224894604E+03  0.36380834713E+03  0.47000000000E+01 0.  1.
         13    1    4    4    0    0 -0.15644144359E+02 -0.61776648879E+01 -0.40334545856E+02  0.43701011265E+02  0.00000000000E+00 0. -1.
        -14    1    4    4    0    0  0.14555623148E+02 -0.70951605624E+02 -0.52792325721E+03  0.53286861608E+03  0.00000000000E+00 0.  1.
</event>
<event>
12    1  0.8494789E-002  0.2203075E+03  0.7818608E-02  0.1133782E+00
         21   -1    0    0  503  502  0.00000000000E+00  0.00000000000E+00  0.35654708367E+02  0.35654708367E+02  0.00000000000E+00 0. -1.
         21   -1    0    0  501  503 -0.00000000000E+00 -0.00000000000E+00 -0.15839591937E+04  0.15839591937E+04  0.00000000000E+00 0. -1.
          6    2    1    2  501    0 -0.13692113881E+03 -0.45040932332E+01 -0.46866331581E+03  0.51786167196E+03  0.17253325067E+03 0.  0.
         24    2    3    3    0    0 -0.46288224726E+02  0.35464021626E+02 -0.34945139940E+03  0.36279605251E+03  0.78130650796E+02 0.  0.
         -6    2    1    2    0  502  0.13692113881E+03  0.45040932332E+01 -0.10796411695E+04  0.11017522301E+04  0.17165441011E+03 0.  0.
        -24    2    5    5    0    0  0.11442627382E+03  0.65527507876E+02 -0.78433395847E+03  0.79933147191E+03  0.79773536696E+02 0.  0.
          5    1    3    3  501    0 -0.90632914089E+02 -0.39968114859E+02 -0.11921191641E+03  0.15506561945E+03  0.47000000000E+01 0. -1.
        -11    1    4    4    0    0  0.20236373266E+02  0.13145341529E+02 -0.13550093481E+03  0.13763289629E+03  0.00000000000E+00 0.  1.
         12    1    4    4    0    0 -0.66524597991E+02  0.22318680097E+02 -0.21395046460E+03  0.22516315622E+03  0.00000000000E+00 0. -1.
         -5    1    5    5    0  502  0.22494864994E+02 -0.61023414643E+02 -0.29530721101E+03  0.30242075815E+03  0.47000000000E+01 0.  1.
         11    1    6    6    0    0  0.80824737651E+02  0.13178835558E+01 -0.37253038762E+03  0.38119977012E+03  0.00000000000E+00 0. -1.
        -12    1    6    6    0    0  0.33601536170E+02  0.64209624320E+02 -0.41180357084E+03  0.41813170179E+03  0.00000000000E+00 0.  1.
</event>
<event>
12    1  0.8494789E-002  0.1891539E+03  0.7818608E-02  0.1159317E+00
         21   -1    0    0  501  502  0.00000000000E+00  0.00000000000E+00  0.74699174572E+03  0.74699174572E+03  0.00000000000E+00 0. -1.
         21   -1    0    0  502  503 -0.00000000000E+00 -0.00000000000E+00 -0.68745663495E+02  0.68745663495E+02  0.00000000000E+00 0.  1.
         -6    2    1    2    0  503  0.76211932570E+02 -0.13653282637E+02  0.11372667312E+03  0.22037083938E+03  0.17214784308E+03 0.  0.
        -24    2    3    3    0    0  0.11817201525E+03 -0.22203263314E+02  0.98699778947E+02  0.17474575574E+03  0.79604162552E+02 0.  0.
          6    2    1    2  501    0 -0.76211932570E+02  0.13653282637E+02  0.56451940911E+03  0.59536656983E+03  0.17258191802E+03 0.  0.
         24    2    5    5    0    0 -0.27114773124E+02  0.14664114332E+02  0.52846860841E+03  0.53426580816E+03  0.72184738862E+02 0.  0.
          5    1    5    5  501    0 -0.49097159446E+02 -0.10108316952E+01  0.36050800701E+02  0.61100761678E+02  0.47000000000E+01 0. -1.
        -11    1    6    6    0    0 -0.92515635505E+01 -0.23881797778E+02  0.34470992540E+03  0.34566004160E+03  0.00000000000E+00 0.  1.
         12    1    6    6    0    0 -0.17863209573E+02  0.38545912110E+02  0.18375868301E+03  0.18860576656E+03  0.00000000000E+00 0. -1.
         -5    1    3    3    0  503 -0.41960082684E+02  0.85499806777E+01  0.15026894173E+02  0.45625083637E+02  0.47000000000E+01 0.  1.
         11    1    4    4    0    0  0.32498190467E+02  0.22891024108E+01  0.76156575053E+02  0.82832338475E+02  0.00000000000E+00 0. -1.
        -12    1    4    4    0    0  0.85673824786E+02 -0.24492365725E+02  0.22543203894E+02  0.91913417270E+02  0.00000000000E+00 0.  1.
</event>
<event>
12    1  0.8494789E-002  0.2187312E+03  0.7818608E-02  0.1135040E+00
         21   -1    0    0  501  502  0.00000000000E+00  0.00000000000E+00  0.35941308221E+03  0.35941308221E+03  0.00000000000E+00 0. -1.
         21   -1    0    0  502  503 -0.00000000000E+00 -0.00000000000E+00 -0.23912053804E+03  0.23912053804E+03  0.00000000000E+00 0. -1.
         -6    2    1    2    0  503  0.11685014890E+03 -0.68278200345E+02 -0.13982223450E+03  0.25867624229E+03  0.17043259994E+03 0.  0.
        -24    2    3    3    0    0  0.11830132770E+03 -0.16608370646E+02 -0.14835460446E+03  0.20607616093E+03  0.78659095653E+02 0.  0.
          6    2    1    2  501    0 -0.11685014890E+03  0.68278200345E+02  0.26011477867E+03  0.33985737797E+03  0.17183558810E+03 0.  0.
         24    2    5    5    0    0 -0.10387231443E+03  0.21280966259E+02  0.83614805427E+02  0.15668670686E+03  0.79479250071E+02 0.  0.
          5    1    5    5  501    0 -0.12977834476E+02  0.46997234086E+02  0.17649997324E+03  0.18317067111E+03  0.47000000000E+01 0. -1.
        -11    1    6    6    0    0 -0.63978618323E+02  0.51562805311E+02  0.47187350361E+02  0.94755646418E+02  0.00000000000E+00 0.  1.
         12    1    6    6    0    0 -0.39893696104E+02 -0.30281839053E+02  0.36427455066E+02  0.61931060445E+02  0.00000000000E+00 0. -1.
         -5    1    3    3    0  503 -0.14511787955E+01 -0.51669829699E+02  0.85323699681E+01  0.52600081352E+02  0.47000000000E+01 0.  1.
         13    1    4    4    0    0  0.92243834997E+02 -0.25015526516E+02 -0.58305291667E+02  0.11195628030E+03  0.00000000000E+00 0. -1.
        -14    1    4    4    0    0  0.26057492702E+02  0.84071558696E+01 -0.90049312797E+02  0.94119880636E+02  0.00000000000E+00 0.  1.
</event>
<event>
12    1  0.8494789E-002  0.1751738E+03  0.7818608E-02  0.1172577E+00
         21   -1    0    0  503  502  0.00000000000E+00  0.00000000000E+00  0.88901395901E+02  0.88901395901E+02  0.00000000000E+00 0.  1.
         21   -1    0    0  501  503 -0.00000000000E+00 -0.00000000000E+00 -0.47961910812E+03  0.47961910812E+03  0.00000000000E+00 0.  1.
          6    2    1    2  501    0 -0.29334025409E+02  0.57105873199E+01 -0.34598262043E+03  0.38780130023E+03  0.17260584858E+03 0.  0.
         24    2    3    3    0    0 -0.69250452863E+02  0.24336701336E+02 -0.31091772288E+03  0.33130448311E+03  0.87777729947E+02 0.  0.
         -6    2    1    2    0  502  0.29334025409E+02 -0.57105873199E+01 -0.44735091793E+02  0.18071920380E+03  0.17252566861E+03 0.  0.
        -24    2    5    5    0    0 -0.95075724233E+01 -0.39025721250E+02 -0.77048144245E+02  0.12001672255E+03  0.82790073727E+02 0.  0.
          5    1    3    3  501    0  0.39916427454E+02 -0.18626114016E+02 -0.35064897555E+02  0.56496817119E+02  0.47000000000E+01 0. -1.
        -11    1    4    4    0    0  0.18022696261E+02 -0.29407699643E+01 -0.96369912376E+02  0.98084788422E+02  0.00000000000E+00 0.  1.
         12    1    4    4    0    0 -0.87273149124E+02  0.27277471300E+02 -0.21454781050E+03  0.23321969468E+03  0.00000000000E+00 0. -1.
         -5    1    5    5    0  502  0.38841597832E+02  0.33315133930E+02  0.32313052452E+02  0.60702481249E+02  0.47000000000E+01 0.  1.
         13    1    6    6    0    0  0.17340847985E+02  0.13785295360E+02 -0.50403685540E+02  0.55056978604E+02  0.00000000000E+00 0. -1.
        -14    1    6    6    0    0 -0.26848420409E+02 -0.52811016610E+02 -0.26644458705E+02  0.64959743946E+02  0.00000000000E+00 0.  1.
</event>
<event>
12    1  0.8494789E-002  0.2446858E+03  0.7818608E-02  0.1117278E+00
         21   -1    0    0  501  502  0.00000000000E+00  0.00000000000E+00  0.27430541868E+02  0.27430541868E+02  0.00000000000E+00 0. -1.
         21   -1    0    0  502  503 -0.00000000000E+00 -0.00000000000E+00 -0.25731594656E+04  0.25731594656E+04  0.00000000000E+00 0.  1.
         -6    2    1    2    0  503  0.20124846133E+02  0.16891820740E+03 -0.18066120610E+04  0.18231067605E+04  0.17587708986E+03 0.  0.
        -24    2    3    3    0    0 -0.32370458828E+02  0.26963322192E+02 -0.81643521915E+03  0.82141857810E+03  0.79919622303E+02 0.  0.
          6    2    1    2  501    0 -0.20124846133E+02 -0.16891820740E+03 -0.73911686274E+03  0.77748324705E+03  0.17102073685E+03 0.  0.
         24    2    5    5    0    0  0.96701285933E+01 -0.11836975594E+03 -0.67692812978E+03  0.69185372544E+03  0.79529705200E+02 0.  0.
          5    1    5    5  501    0 -0.29794974726E+02 -0.50548451462E+02 -0.62188732962E+02  0.85629521612E+02  0.47000000000E+01 0. -1.
        -11    1    6    6    0    0 -0.29777561333E+02 -0.87856504444E+02 -0.41860583428E+03  0.42876137073E+03  0.00000000000E+00 0.  1.
         12    1    6    6    0    0  0.39447689926E+02 -0.30513251493E+02 -0.25832229549E+03  0.26309235471E+03  0.00000000000E+00 0. -1.
         -5    1    3    3    0  503  0.52495304961E+02  0.14195488521E+03 -0.99017684188E+03  0.10016881824E+04  0.47000000000E+01 0.  1.
         11    1    4    4    0    0 -0.35220795740E+02  0.24139586651E+02 -0.18091199122E+03  0.18588268522E+03  0.00000000000E+00 0. -1.
        -12    1    4    4    0    0  0.28503369114E+01  0.28237355412E+01 -0.63552322793E+03  0.63553589288E+03  0.00000000000E+00 0.  1.
</event>
<event>
12    1  0.8494789E-002  0.1921566E+03  0.7818608E-02  0.1158069E+00
         21   -1    0    0  501  502  0.00000000000E+00  0.00000000000E+00  0.42958451531E+02  0.42958451531E+02  0.00000000000E+00 0. -1.
         21   -1    0    0  502  503 -0.00000000000E+00 -0.00000000000E+00 -0.10231658709E+04  0.10231658709E+04  0.00000000000E+00 0. -1.
         -6    2    1    2    0  503  0.82567635934E+02  0.38907448913E+01 -0.71489219984E+03  0.73853258916E+03  0.16591255364E+03 0.  0.
        -24    2    3    3    0    0  0.74538946119E+02  0.48770789499E+02 -0.63577659541E+03  0.64709929583E+03  0.81184819990E+02 0.  0.
          6    2    1    2  501    0 -0.82567635934E+02 -0.38907448913E+01 -0.26531521950E+03  0.32759173324E+03  0.17346937941E+03 0.  0.
         24    2    5    5    0    0 -0.87349882116E+02  0.49191169956E+02 -0.22826751543E+03  0.26251345777E+03  0.82203915960E+02 0.  0.
          5    1    5    5  501    0  0.47822461820E+01 -0.53081914847E+02 -0.37047704062E+02  0.65078275474E+02  0.47000000000E+01 0. -1.
        -11    1    6    6    0    0  0.45103415254E+01  0.21583890541E+02 -0.99690081021E+02  0.10209955811E+03  0.00000000000E+00 0.  1.
         12    1    6    6    0    0 -0.91860223641E+02  0.27607279415E+02 -0.12857743441E+03  0.16041389966E+03  0.00000000000E+00 0. -1.
         -5    1    3    3    0  503  0.80286898147E+01 -0.44880044608E+02 -0.79115604436E+02  0.91433293332E+02  0.47000000000E+01 0.  1.
         11    1    4    4    0    0  0.78177587712E+02  0.12973528324E+02 -0.33847428056E+03  0.34762751079E+03  0.00000000000E+00 0. -1.
        -12    1    4    4    0    0 -0.36386415929E+01  0.35797261175E+02 -0.29730231484E+03  0.29947178504E+03  0.00000000000E+00 0.  1.
</event>
<event>
12    1  0.8494789E-002  0.1728287E+03  0.7818608E-02  0.1175185E+00
         21   -1    0    0  503  502  0.00000000000E+00  0.00000000000E+00  0.29823017260E+03  0.29823017260E+03  0.00000000000E+00 0.  1.
         21   -1    0    0  501  503 -0.00000000000E+00 -0.00000000000E+00 -0.11777404682E+03  0.11777404682E+03  0.00000000000E+00 0.  1.
          6    2    1    2  501    0 -0.27731776205E+01 -0.17798648745E+02  0.82540828622E+01  0.17203024052E+03  0.17088531639E+03 0.  0.
         24    2    3    3    0    0 -0.11428112996E+02 -0.32365259599E+02 -0.58851190175E+02  0.10265948495E+03  0.76794501563E+02 0.  0.
         -6    2    1    2    0  502  0.27731776205E+01  0.17798648745E+02  0.17220204292E+03  0.24397397890E+03  0.17188739448E+03 0.  0.
        -24    2    5    5    0    0  0.88511239109E+01  0.31552890868E+02  0.18085879754E+02  0.89054637444E+02  0.80806572055E+02 0.  0.
          5    1    3    3  501    0  0.86549353751E+01  0.14566610854E+02  0.67105273037E+02  0.69370755564E+02  0.47000000000E+01 0. -1.
        -11    1    4    4    0    0 -0.22728613246E+02  0.18233609225E+02 -0.84166600980E+01  0.30329763149E+02  0.00000000000E+00 0.  1.
         12    1    4    4    0    0  0.11300500250E+02 -0.50598868824E+02 -0.50434530077E+02  0.72329721804E+02  0.00000000000E+00 0. -1.
         -5    1    5    5    0  502 -0.60779462905E+01 -0.13754242123E+02  0.15411616316E+03  0.15491934145E+03  0.47000000000E+01 0.  1.
         11    1    6    6    0    0  0.10193762189E+02 -0.26403576188E+02 -0.79724126710E-01  0.28303144331E+02  0.00000000000E+00 0. -1.
        -12    1    6    6    0    0 -0.13426382785E+01  0.57956467056E+02  0.18165603880E+02  0.60751493113E+02  0.00000000000E+00 0.  1.
</event>
<event>
12    1  0.8494789E-002  0.2033742E+03  0.7818608E-02  0.1147063E+00
         21   -1    0    0  503  502  0.00000000000E+00  0.00000000000E+00  0.28562979521E+03  0.28562979521E+03  0.00000000000E+00 0. -1.
         21   -1    0    0  501  503 -0.00000000000E+00 -0.00000000000E+00 -0.17761638131E+03  0.17761638131E+03  0.00000000000E+00 0.  1.
          6    2    1    2  501    0 -0.92604902403E+02  0.56137762179E+02 -0.46343766829E+02  0.20792834756E+03  0.17134566439E+03 0.  0.
         24    2    3    3    0    0 -0.23951881183E+02 -0.29753134258E+02 -0.44231347112E+02  0.97850939661E+02  0.78482180875E+02 0.  0.
         -6    2    1    2    0  502  0.92604902403E+02 -0.56137762179E+02  0.15435718073E+03  0.25531782895E+03  0.17214510811E+03 0.  0.
        -24    2    5    5    0    0  0.10951534952E+03 -0.72865667455E+02  0.16429435950E+03  0.22911432615E+03  0.90541264673E+02 0.  0.
          5    1    3    3  501    0 -0.68653021219E+02  0.85890896437E+02 -0.21124197175E+01  0.11007740790E+03  0.47000000000E+01 0. -1.
        -13    1    4    4    0    0 -0.33535582633E+02 -0.51110865364E+02 -0.42347702772E+02  0.74365877867E+02  0.00000000000E+00 0.  1.
         14    1    4    4    0    0  0.95837014499E+01  0.21357731106E+02 -0.18836443391E+01  0.23485061794E+02  0.00000000000E+00 0. -1.
         -5    1    5    5    0  502 -0.16910447120E+02  0.16727905276E+02 -0.99371787760E+01  0.26203502796E+02  0.47000000000E+01 0.  1.
         11    1    6    6    0    0  0.58413263662E+02 -0.36448862562E+02  0.14957431028E+03  0.16466056981E+03  0.00000000000E+00 0. -1.
        -12    1    6    6    0    0  0.51102085861E+02 -0.36416804893E+02  0.14720049227E+02  0.64453756347E+02  0.00000000000E+00 0.  1.
</event>
<event>
12    1  0.8494789E-002  0.3099711E+03  0.7818608E-02  0.1080401E+00
         21   -1    0    0  503  502  0.00000000000E+00  0.00000000000E+00  0.15761372014E+03  0.15761372014E+03  0.00000000000E+00 0. -1.
         21   -1    0    0  501  503 -0.00000000000E+00 -0.00000000000E+00 -0.68697230425E+03  0.68697230425E+03  0.00000000000E+00 0.  1.
          6    2    1    2  501    0 -0.15735223111E+03 -0.20483091555E+03 -0.12246838214E+03  0.33328756552E+03  0.17136705666E+03 0.  0.
         24    2    3    3    0    0 -0.10074848516E+03 -0.21678499205E+03 -0.10130142328E+03  0.27150557666E+03  0.79418573134E+02 0.  0.
         -6    2    1    2    0  502  0.15735223111E+03  0.20483091555E+03 -0.40689020197E+03  0.51129845886E+03  0.17073678272E+03 0.  0.
        -24    2    5    5    0    0  0.10451778038E+03  0.67227640285E+02 -0.12814874268E+03  0.19594939564E+03  0.80811777394E+02 0.  0.
          5    1    3    3  501    0 -0.56603745946E+02  0.11954076502E+02 -0.21166958856E+02  0.61781988859E+02  0.47000000000E+01 0. -1.
        -13    1    4    4    0    0 -0.79853787774E+01 -0.10527122065E+02 -0.32548467516E+02  0.35128183995E+02  0.00000000000E+00 0.  1.
         14    1    4    4    0    0 -0.92763106387E+02 -0.20625786999E+03 -0.68752955765E+02  0.23637739267E+03  0.00000000000E+00 0. -1.
         -5    1    5    5    0  502  0.52834450726E+02  0.13760327526E+03 -0.27874145930E+03  0.31534906323E+03  0.47000000000E+01 0.  1.
         13    1    6    6    0    0  0.98792396682E+02  0.49503734342E+02 -0.13642904656E+03  0.17556606193E+03  0.00000000000E+00 0. -1.
        -14    1    6    6    0    0  0.57253837020E+01  0.17723905944E+02  0.82803038868E+01  0.20383333704E+02  0.00000000000E+00 0.  1.
</event>
<event>
12    1  0.8494789E-002  0.1926753E+03  0.7818608E-02  0.1156111E+00
         21   -1    0    0  501  502  0.00000000000E+00  0.00000000000E+00  0.70312422725E+02  0.70312422725E+02  0.00000000000E+00 0. -1.
         21   -1    0    0  502  503 -0.00000000000E+00 -0.00000000000E+00 -0.52787363114E+03  0.52787363114E+03  0.00000000000E+00 0. -1.
         -6    2    1    2    0  503 -0.55430283859E+02  0.66858775740E+02 -0.23683552085E+03  0.30519527095E+03  0.17178613801E+03 0.  0.
        -24    2    3    3    0    0 -0.50084396307E+02  0.32493047491E+02 -0.24950201372E+03  0.26788425604E+03  0.77113389863E+02 0.  0.
          6    2    1    2  501    0  0.55430283859E+02 -0.66858775740E+02 -0.22072568757E+03  0.29299078292E+03  0.17199173660E+03 0.  0.
         24    2    5    5    0    0 -0.28744942048E+02 -0.63219643337E+01 -0.73055895027E+02  0.11249526546E+03  0.80322985672E+02 0.  0.
          5    1    5    5  501    0  0.84175225907E+02 -0.60536811407E+02 -0.14766979255E+03  0.18049551746E+03  0.47000000000E+01 0. -1.
        -11    1    6    6    0    0 -0.31059452503E+02 -0.29274416224E+01 -0.89899040545E+02  0.95158273393E+02  0.00000000000E+00 0.  1.
         12    1    6    6    0    0  0.23145104550E+01 -0.33945227112E+01  0.16843145519E+02  0.17336992070E+02  0.00000000000E+00 0. -1.
         -5    1    3    3    0  503 -0.53458875515E+01  0.34365728250E+02  0.12666492871E+02  0.37311014908E+02  0.47000000000E+01 0.  1.
         13    1    4    4    0    0 -0.69194823430E+02  0.36012336220E+02 -0.20410687049E+03  0.21850498056E+03  0.00000000000E+00 0. -1.
        -14    1    4    4    0    0  0.19110427123E+02 -0.35192887293E+01 -0.45395143230E+02  0.49379275479E+02  0.00000000000E+00 0.  1.
</event>
<event>
12    1  0.8494789E-002  0.1979285E+03  0.7818608E-02  0.1151665E+00
         21   -1    0    0  501  502  0.00000000000E+00  0.00000000000E+00  0.11513842296E+03  0.11513842296E+03  0.00000000000E+00 0. -1.
         21   -1    0    0  502  503 -0.00000000000E+00 -0.00000000000E+00 -0.41827655203E+03  0.41827655203E+03  0.00000000000E+00 0.  1.
         -6    2    1    2    0  503  0.31822417008E+02 -0.90603419373E+02 -0.26750062090E+03  0.33230374263E+03  0.17218463742E+03 0.  0.
        -24    2    3    3    0    0 -0.35461987466E+02  0.55122519346E+01 -0.50148930599E+02  0.85262732615E+02  0.58880224664E+02 0.  0.
          6    2    1    2  501    0 -0.31822417008E+02  0.90603419373E+02 -0.35637508180E+02  0.20111123235E+03  0.17307238359E+03 0.  0.
         24    2    5    5    0    0 -0.25117631688E+02  0.10944714295E+01  0.30861044255E+02  0.89303569895E+02  0.79941417639E+02 0.  0.
          5    1    5    5  501    0 -0.67047853199E+01  0.89508947943E+02 -0.66498552435E+02  0.11180766246E+03  0.47000000000E+01 0. -1.
        -13    1    6    6    0    0  0.35945777602E+01 -0.13345917874E+00 -0.25652054439E+02  0.25903024873E+02  0.00000000000E+00 0.  1.
         14    1    6    6    0    0 -0.28712209449E+02  0.12279306083E+01  0.56513098695E+02  0.63400545022E+02  0.00000000000E+00 0. -1.
         -5    1    3    3    0  503  0.67284404474E+02 -0.96115671307E+02 -0.21735169030E+03  0.24704101002E+03  0.47000000000E+01 0.  1.
         13    1    4    4    0    0 -0.13685756660E+02  0.19094022279E+02  0.53706627933E+01  0.24098249750E+02  0.00000000000E+00 0. -1.
        -14    1    4    4    0    0 -0.21776230806E+02 -0.13581770345E+02 -0.55519593392E+02  0.61164482866E+02  0.00000000000E+00 0.  1.
</event>
<event>
12    1  0.8494789E-002  0.1962568E+03  0.7818608E-02  0.1153925E+00
         21   -1    0    0  501  502  0.00000000000E+00  0.00000000000E+00  0.31817712543E+03  0.31817712543E+03  0.00000000000E+00 0.  1.
         21   -1    0    0  502  503 -0.00000000000E+00 -0.00000000000E+00 -0.11898906552E+03  0.11898906552E+03  0.00000000000E+00 0.  1.
         -6    2    1    2    0  503  0.56648089844E+02  0.58369078026E+02  0.83910918477E+02  0.21344264927E+03  0.17860785799E+03 0.  0.
        -24    2    3    3    0    0 -0.13601919296E+01  0.81730021407E+02  0.94157400717E+02  0.14989916157E+03  0.83201538505E+02 0.  0.
          6    2    1    2  501    0 -0.56648089844E+02 -0.58369078026E+02  0.11527714143E+03  0.22372354167E+03  0.17363020593E+03 0.  0.
         24    2    5    5    0    0 -0.89367045032E+02 -0.86643737218E+02  0.98211412429E+02  0.17699758007E+03  0.78670552840E+02 0.  0.
          5    1    5    5  501    0  0.32718955188E+02  0.28274659193E+02  0.17065729003E+02  0.46725961600E+02  0.47000000000E+01 0. -1.
        -13    1    6    6    0    0 -0.81002979947E+02 -0.63135127600E+02  0.34120595712E+02  0.10822080276E+03  0.00000000000E+00 0.  1.
         14    1    6    6    0    0 -0.83640650854E+01 -0.23508609618E+02  0.64090816717E+02  0.68776777319E+02  0.00000000000E+00 0. -1.
         -5    1    3    3    0  503  0.58008281774E+02 -0.23360943381E+02 -0.10246482239E+02  0.63543487694E+02  0.47000000000E+01 0.  1.
         11    1    4    4    0    0  0.11564942351E+02  0.67438352012E+02  0.10681034705E+03  0.12684687403E+03  0.00000000000E+00 0. -1.
        -12    1    4    4    0    0 -0.12925134280E+02  0.14291669395E+02 -0.12652946332E+02  0.23052287547E+02  0.00000000000E+00 0.  1.
</event>
<event>
12    1  0.8494789E-002  0.2563771E+03  0.7818608E-02  0.1109368E+00
         21   -1    0    0  501  502  0.00000000000E+00  0.00000000000E+00  0.31537973935E+03  0.31537973935E+03  0.00000000000E+00 0.  1.
         21   -1    0    0  502  503 -0.00000000000E+00 -0.00000000000E+00 -0.33295704340E+03  0.33295704340E+03  0.00000000000E+00 0. -1.
         -6    2    1    2    0  503  0.18999629296E+03  0.24657057890E+01 -0.20716714892E+03  0.32947393760E+03  0.17184346632E+03 0.  0.
        -24    2    3    3    0    0  0.24100873348E+02 -0.17905721923E+02 -0.99719998198E+02  0.13071965333E+03  0.79006852560E+02 0.  0.
          6    2    1    2  501    0 -0.18999629296E+03 -0.24657057890E+01  0.18958984487E+03  0.31886284515E+03  0.17211779018E+03 0.  0.
         24    2    5    5    0    0 -0.13166655405E+03  0.38429047411E+02  0.56679478103E+02  0.16799205648E+03  0.78714005502E+02 0.  0.
          5    1    5    5  501    0 -0.58329738916E+02 -0.40894753200E+02  0.13291036676E+03  0.15087078867E+03  0.47000000000E+01 0. -1.
        -13    1    6    6    0    0 -0.19353607336E+02 -0.17215521621E+02 -0.77817239246E+01  0.27046100068E+02  0.00000000000E+00 0.  1.
         14    1    6    6    0    0 -0.11231294671E+03  0.55644569033E+02  0.64461202028E+02  0.14094595641E+03  0.00000000000E+00 0. -1.
         -5    1    3    3    0  503  0.16589541962E+03  0.20371427712E+02 -0.10744715073E+03  0.19875428427E+03  0.47000000000E+01 0.  1.
         11    1    4    4    0    0  0.52594720825E+02 -0.19186045443E+02 -0.65015646075E+02  0.85798270571E+02  0.00000000000E+00 0. -1.
        -12    1    4    4    0    0 -0.28493847477E+02  0.12803235194E+01 -0.34704352123E+02  0.44921382755E+02  0.00000000000E+00 0.  1.
</event>
<event>
12    1  0.8494789E-002  0.2170859E+03  0.7818608E-02  0.1137534E+00
         21   -1    0    0  503  502  0.00000000000E+00  0.00000000000E+00  0.19753559905E+03  0.19753559905E+03  0.00000000000E+00 0. -1.
         21   -1    0    0  501  503 -0.00000000000E+00 -0.00000000000E+00 -0.56203214613E+03  0.56203214613E+03  0.00000000000E+00 0.  1.
          6    2    1    2  501    0 -0.13063930916E+03  0.74121186201E+01  0.11081130360E+03  0.23703178676E+03  0.16365620774E+03 0.  0.
         24    2    3    3    0    0 -0.16695300310E+02 -0.16237313249E+02  0.10386451816E+02  0.83246957745E+02  0.79245152523E+02 0.  0.
         -6    2    1    2    0  502  0.13063930916E+03 -0.74121186201E+01 -0.47530785068E+03  0.52253595842E+03  0.17321866621E+03 0.  0.
        -24    2    5    5    0    0  0.53736760739E+02  0.53161498562E+02 -0.17130230553E+03  0.20312301796E+03  0.78744499241E+02 0.  0.
          5    1    3    3  501    0 -0.11394400884E+03  0.23649431869E+02  0.10042485179E+03  0.15378482902E+03  0.47000000000E+01 0. -1.
        -11    1    4    4    0    0  0.25914927449E+02  0.50903794935E+01  0.21804679021E+02  0.34248203680E+02  0.00000000000E+00 0.  1.
         12    1    4    4    0    0 -0.42610227760E+02 -0.21327692742E+02 -0.11418227204E+02  0.48998754065E+02  0.00000000000E+00 0. -1.
         -5    1    5    5    0  502  0.76902548417E+02 -0.60573617182E+02 -0.30400554515E+03  0.31941294046E+03  0.47000000000E+01 0.  1.
         13    1    6    6    0    0 -0.45944398213E-01  0.28404801086E+01  0.84241235726E+01  0.88902359981E+01  0.00000000000E+00 0. -1.
        -14    1    6    6    0    0  0.53782705137E+02  0.50321018453E+02 -0.17972642911E+03  0.19423278196E+03  0.00000000000E+00 0.  1.
</event>
<event>
12    1  0.8494789E-002  0.1764461E+03  0.7818608E-02  0.1171368E+00
         21   -1    0    0  503  502  0.00000000000E+00  0.00000000000E+00  0.56092133416E+03  0.56092133416E+03  0.00000000000E+00 0. -1.
         21   -1    0    0  501  503 -0.00000000000E+00 -0.00000000000E+00 -0.74547090346E+02  0.74547090346E+02  0.00000000000E+00 0. -1.
          6    2    1    2  501    0  0.72067784334E+01 -0.38992928775E+02  0.81998578259E+02  0.19427355006E+03  0.17159854098E+03 0.  0.
         24    2    3    3    0    0 -0.30797477792E+02  0.20200174736E+02  0.15895865174E+01  0.87335049291E+02  0.79172926885E+02 0.  0.
         -6    2    1    2    0  502 -0.72067784334E+01  0.38992928775E+02  0.40437566555E+03  0.44119487444E+03  0.17193269669E+03 0.  0.
        -24    2    5    5    0    0  0.19712010507E+02  0.96447325632E+01  0.39013324464E+03  0.39864050484E+03  0.78922235782E+02 0.  0.
          5    1    3    3  501    0  0.38004256225E+02 -0.59193103511E+02  0.80408991742E+02  0.10693850077E+03  0.47000000000E+01 0. -1.
        -11    1    4    4    0    0  0.16890696856E+02  0.22134214671E+02  0.21941828306E+02  0.35449441869E+02  0.00000000000E+00 0.  1.
         12    1    4    4    0    0 -0.47688174648E+02 -0.19340399348E+01 -0.20352241789E+02  0.51885607422E+02  0.00000000000E+00 0. -1.
         -5    1    5    5    0  502 -0.26918788941E+02  0.29348196212E+02  0.14242420915E+02  0.42554369605E+02  0.47000000000E+01 0.  1.
         13    1    6    6    0    0  0.13441423539E+02 -0.33986474002E+02  0.21248502185E+03  0.21560528007E+03  0.00000000000E+00 0. -1.
        -14    1    6    6    0    0  0.62705869688E+01  0.43631206566E+02  0.17764822278E+03  0.18303522476E+03  0.00000000000E+00 0.  1.
</event>
<event>
12    1  0.8494789E-002  0.1734677E+03  0.7818608E-02  0.1174461E+00
         21   -1    0    0  503  502  0.00000000000E+00  0.00000000000E+00  0.31205799684E+03  0.31205799684E+03  0.00000000000E+00 0. -1.
         21   -1    0    0  501  503 -0.00000000000E+00 -0.00000000000E+00 -0.18637400387E+03  0.18637400387E+03  0.00000000000E+00 0. -1.
          6    2    1    2  501    0  0.22161809704E+01  0.13399367756E+02 -0.11060339716E+03  0.20572834340E+03  0.17293520550E+03 0.  0.
         24    2    3    3    0    0  0.65569798372E+02  0.27864922587E+02 -0.61116815171E+02  0.12391181138E+03  0.80888933321E+02 0.  0.
         -6    2    1    2    0  502 -0.22161809704E+01 -0.13399367756E+02  0.23628739014E+03  0.29270365731E+03  0.17221859874E+03 0.  0.
        -24    2    5    5    0    0  0.28958538581E+02 -0.33080403746E+02  0.23172038944E+03  0.25525831298E+03  0.97619451913E+02 0.  0.
          5    1    3    3  501    0 -0.63353617401E+02 -0.14465554832E+02 -0.49486581991E+02  0.81816532018E+02  0.47000000000E+01 0. -1.
        -11    1    4    4    0    0  0.47743138127E+02  0.43417358302E+01 -0.76765352396E+02  0.90505122710E+02  0.00000000000E+00 0.  1.
         12    1    4    4    0    0  0.17826660245E+02  0.23523186757E+02  0.15648537225E+02  0.33406688671E+02  0.00000000000E+00 0. -1.
         -5    1    5    5    0  502 -0.31174719552E+02  0.19681035990E+02  0.45670006904E+01  0.37445344331E+02  0.47000000000E+01 0.  1.
         13    1    6    6    0    0  0.39638381538E+02 -0.36001964149E+01  0.26870774266E+02  0.48022923847E+02  0.00000000000E+00 0. -1.
        -14    1    6    6    0    0 -0.10679842957E+02 -0.29480207331E+02  0.20484961518E+03  0.20723538913E+03  0.00000000000E+00 0.  1.
</event>
<event>
12    1  0.8494789E-002  0.1740042E+03  0.7818608E-02  0.1173807E+00
         21   -1    0    0  503  502  0.00000000000E+00  0.00000000000E+00  0.22535065256E+02  0.22535065256E+02  0.00000000000E+00 0. -1.
         21   -1    0    0  501  503 -0.00000000000E+00 -0.00000000000E+00 -0.16491037535E+04  0.16491037535E+04  0.00000000000E+00 0. -1.
          6    2    1    2  501    0 -0.20480440412E+02  0.21411716341E+01 -0.11748682819E+04  0.11876838602E+04  0.17278147714E+03 0.  0.
         24    2    3    3    0    0  0.34351116725E+02  0.10382046118E+02 -0.10078157195E+04  0.10116070012E+04  0.79802344870E+02 0.  0.
         -6    2    1    2    0  502  0.20480440412E+02 -0.21411716341E+01 -0.45170040632E+03  0.48395495856E+03  0.17249670081E+03 0.  0.
        -24    2    5    5    0    0  0.62626815540E+02  0.74520281348E+01 -0.16372109119E+03  0.19271189450E+03  0.79722191605E+02 0.  0.
          5    1    3    3  501    0 -0.54831557137E+02 -0.82408744837E+01 -0.16705256236E+03  0.17607685896E+03  0.47000000000E+01 0. -1.
        -13    1    4    4    0    0  0.16525639067E+02  0.18308639000E+02 -0.83034535902E+02  0.86620073661E+02  0.00000000000E+00 0.  1.
         14    1    4    4    0    0  0.17825477658E+02 -0.79265928823E+01 -0.92478118364E+03  0.92498692755E+03  0.00000000000E+00 0. -1.
         -5    1    5    5    0  502 -0.42146375128E+02 -0.95931997689E+01 -0.28797931513E+03  0.29124306406E+03  0.47000000000E+01 0.  1.
         13    1    6    6    0    0  0.26225355839E+02  0.29695448249E+02 -0.23317444613E+02  0.45970557522E+02  0.00000000000E+00 0. -1.
        -14    1    6    6    0    0  0.36401459700E+02 -0.22243420114E+02 -0.14040364658E+03  0.14674133698E+03  0.00000000000E+00 0.  1.
</event>
<event>
12    1  0.8494789E-002  0.1876541E+03  0.7818608E-02  0.1160595E+00
         21   -1    0    0  501  502  0.00000000000E+00  0.00000000000E+00  0.31675512872E+03  0.31675512872E+03  0.00000000000E+00 0.  1.
         21   -1    0    0  502  503 -0.00000000000E+00 -0.00000000000E+00 -0.11702068745E+03  0.11702068745E+03  0.00000000000E+00 0.  1.
         -6    2    1    2    0  503  0.73967560723E+02  0.22008471651E+02  0.51365697513E+02  0.19455720451E+03  0.17105115633E+03 0.  0.
        -24    2    3    3    0    0  0.78272081240E+01  0.68269315085E+02  0.39883096473E+02  0.11289600195E+03  0.80205244862E+02 0.  0.
          6    2    1    2  501    0 -0.73967560723E+02 -0.22008471651E+02  0.14836874376E+03  0.23921861166E+03  0.17104586278E+03 0.  0.
         24    2    5    5    0    0 -0.99291473399E+01  0.32494283945E+00  0.46891151235E+01  0.80266966571E+02  0.79511663088E+02 0.  0.
          5    1    5    5  501    0 -0.64038413383E+02 -0.22333414491E+02  0.14367962863E+03  0.15895164509E+03  0.47000000000E+01 0. -1.
        -11    1    6    6    0    0 -0.24013160226E+02  0.10957516872E+02 -0.30842145949E+02  0.40594790390E+02  0.00000000000E+00 0.  1.
         12    1    6    6    0    0  0.14084012886E+02 -0.10632574032E+02  0.35531261073E+02  0.39672176181E+02  0.00000000000E+00 0. -1.
         -5    1    3    3    0  503  0.66140352599E+02 -0.46260843434E+02  0.11482601040E+02  0.81661202561E+02  0.47000000000E+01 0.  1.
         11    1    4    4    0    0 -0.34041101210E+02  0.48595149569E+02  0.21213110019E+02  0.63010167195E+02  0.00000000000E+00 0. -1.
        -12    1    4    4    0    0  0.41868309334E+02  0.19674165516E+02  0.18669986454E+02  0.49885834758E+02  0.00000000000E+00 0.  1.
</event>
<event>
12    1  0.8494789E-002  0.1789522E+03  0.7818608E-02  0.1168880E+00
         21   -1    0    0  501  502  0.00000000000E+00  0.00000000000E+00  0.29506035834E+04  0.29506035834E+04  0.00000000000E+00 0. -1.
         21   -1    0    0  502  503 -0.00000000000E+00 -0.00000000000E+00 -0.70272813371E+02  0.70272813371E+02  0.00000000000E+00 0. -1.
         -6    2    1    2    0  503 -0.48559329030E+02 -0.97804546271E+01  0.51235614243E+02  0.18614236054E+03  0.17195995026E+03 0.  0.
        -24    2    3    3    0    0 -0.80008916332E+02 -0.46399075884E+02  0.59742806494E+02  0.13690353151E+03  0.81357686033E+02 0.  0.
          6    2    1    2  501    0  0.48559329030E+02  0.97804546271E+01  0.28290951558E+04  0.28347340362E+04  0.17170902696E+03 0.  0.
         24    2    5    5    0    0  0.67287212539E+02 -0.27271776452E+02  0.25704937573E+04  0.25727791265E+04  0.80516821335E+02 0.  0.
          5    1    5    5  501    0 -0.18727883510E+02  0.37052231079E+02  0.25860139849E+03  0.26195490976E+03  0.47000000000E+01 0. -1.
        -11    1    6    6    0    0  0.78121589376E+02 -0.15806863755E+02  0.14604846318E+04  0.14626579229E+04  0.00000000000E+00 0.  1.
         12    1    6    6    0    0 -0.10834376836E+02 -0.11464912696E+02  0.11100091254E+04  0.11101212035E+04  0.00000000000E+00 0. -1.
         -5    1    3    3    0  503  0.31449587302E+02  0.36618621257E+02 -0.85071922507E+01  0.49238829030E+02  0.47000000000E+01 0.  1.
         13    1    4    4    0    0 -0.76436971351E+02 -0.69746394573E+01  0.59828450581E+02  0.97317519922E+02  0.00000000000E+00 0. -1.
        -14    1    4    4    0    0 -0.35719449814E+01 -0.39424436427E+02 -0.85644087396E-01  0.39586011588E+02  0.00000000000E+00 0.  1.
</event>
<event>
12    1  0.8494789E-002  0.1900027E+03  0.7818608E-02  0.1158699E+00
         21   -1    0    0  503  502  0.00000000000E+00  0.00000000000E+00  0.18824462423E+03  0.18824462423E+03  0.00000000000E+00 0.  1.
         21   -1    0    0  501  503 -0.00000000000E+00 -0.00000000000E+00 -0.26732183298E+03  0.26732183298E+03  0.00000000000E+00 0.  1.
          6    2    1    2  501    0 -0.14122585737E+02  0.80485534182E+02 -0.16156297160E+03  0.24940651116E+03  0.17153321945E+03 0.  0.
         24    2    3    3    0    0 -0.36423289108E+02  0.77599728540E+02 -0.38806498941E+02  0.12451899847E+03  0.81551595699E+02 0.  0.
         -6    2    1    2    0  502  0.14122585737E+02 -0.80485534182E+02  0.82485762844E+02  0.20615994605E+03  0.17035449405E+03 0.  0.
        -24    2    5    5    0    0 -0.19787324567E+02 -0.10869798220E+03  0.34982150706E+02  0.14116373534E+03  0.80601859530E+02 0.  0.
          5    1    3    3  501    0  0.22300703372E+02  0.28858056423E+01 -0.12275647266E+03  0.12488751269E+03  0.47000000000E+01 0. -1.
        -11    1    4    4    0    0  0.21601335476E+02  0.36387332111E+02  0.22117681498E+01  0.42373901766E+02  0.00000000000E+00 0.  1.
         12    1    4    4    0    0 -0.58024624584E+02  0.41212396428E+02 -0.41018267091E+02  0.82145096705E+02  0.00000000000E+00 0. -1.
         -5    1    5    5    0  502  0.33909910304E+02  0.28212448021E+02  0.47503612138E+02  0.64996210707E+02  0.47000000000E+01 0.  1.
         13    1    6    6    0    0  0.20313579671E+01  0.11279637791E+02  0.12863409226E+02  0.17228579187E+02  0.00000000000E+00 0. -1.
        -14    1    6    6    0    0 -0.21818682534E+02 -0.11997761999E+03  0.22118741481E+02  0.12393515616E+03  0.00000000000E+00 0.  1.
</event>
<event>
12    1  0.8494789E-002  0.3855014E+03  0.7818608E-02  0.1048980E+00
         21   -1    0    0  503  502  0.00000000000E+00  0.00000000000E+00  0.14343984328E+03  0.14343984328E+03  0.00000000000E+00 0.  1.
         21   -1    0    0  501  503 -0.00000000000E+00 -0.00000000000E+00 -0.10501514404E+04  0.10501514404E+04  0.00000000000E+00 0. -1.
          6    2    1    2  501    0  0.22791966542E+03  0.25868789438E+03 -0.52639959597E+03  0.65206702155E+03  0.17096217527E+03 0.  0.
         24    2    3    3    0    0  0.16257485359E+03  0.94542252400E+02 -0.24436496282E+03  0.31923168612E+03  0.82618483789E+02 0.  0.
         -6    2    1    2    0  502 -0.22791966542E+03 -0.25868789438E+03 -0.38031200113E+03  0.54152426210E+03  0.17246596086E+03 0.  0.
        -24    2    5    5    0    0 -0.23744657401E+03 -0.25270063060E+03 -0.38835869824E+03  0.52691438021E+03  0.81103645734E+02 0.  0.
          5    1    3    3  501    0  0.65344811837E+02  0.16414564198E+03 -0.28203463315E+03  0.33283533543E+03  0.47000000000E+01 0. -1.
        -13    1    4    4    0    0  0.56447191090E+02  0.67158362848E+00 -0.34968367379E+02  0.66404240254E+02  0.00000000000E+00 0.  1.
         14    1    4    4    0    0  0.10612766250E+03  0.93870668772E+02 -0.20939659544E+03  0.25282744587E+03  0.00000000000E+00 0. -1.
         -5    1    5    5    0  502  0.95269085853E+01 -0.59872637759E+01  0.80466971092E+01  0.14609881898E+02  0.47000000000E+01 0.  1.
         13    1    6    6    0    0 -0.12358031349E+03 -0.17042821283E+03 -0.27544894760E+03  0.34668428338E+03  0.00000000000E+00 0. -1.
        -14    1    6    6    0    0 -0.11386626052E+03 -0.82272417774E+02 -0.11290975065E+03  0.18023009683E+03  0.00000000000E+00 0.  1.
</event>
<event>
12    1  0.8494789E-002  0.2195515E+03  0.7818608E-02  0.1134289E+00
         21   -1    0    0  501  502  0.00000000000E+00  0.00000000000E+00  0.18290577675E+03  0.18290577675E+03  0.00000000000E+00 0. -1.
         21   -1    0    0  502  503 -0.00000000000E+00 -0.00000000000E+00 -0.27498472526E+03  0.27498472526E+03  0.00000000000E+00 0.  1.
         -6    2    1    2    0  503 -0.12653825873E+03  0.55621038870E+02 -0.93713628368E+02  0.23871550875E+03  0.17057906991E+03 0.  0.
        -24    2    3    3    0    0 -0.37778487492E+02  0.87038378167E+02 -0.30495907305E+02  0.12520816778E+03  0.75790444814E+02 0.  0.
          6    2    1    2  501    0  0.12653825873E+03 -0.55621038870E+02  0.16346798561E+01  0.21917499326E+03  0.17008637396E+03 0.  0.
         24    2    5    5    0    0  0.97469612040E+02 -0.13500397114E+02 -0.58632076095E+02  0.13997078532E+03  0.80445723337E+02 0.  0.
          5    1    5    5  501    0  0.29068646688E+02 -0.42120641757E+02  0.60266755951E+02  0.79204207938E+02  0.47000000000E+01 0. -1.
        -11    1    6    6    0    0  0.71002510265E+02  0.28209662861E+02 -0.45232534303E+02  0.88786956825E+02  0.00000000000E+00 0.  1.
         12    1    6    6    0    0  0.26467101776E+02 -0.41710059975E+02 -0.13399541791E+02  0.51183828499E+02  0.00000000000E+00 0. -1.
         -5    1    3    3    0  503 -0.88759771237E+02 -0.31417339296E+02 -0.63217721063E+02  0.11350734097E+03  0.47000000000E+01 0.  1.
         13    1    4    4    0    0 -0.59428583326E+02  0.68783501818E+02 -0.12755397074E+02  0.91791213049E+02  0.00000000000E+00 0. -1.
        -14    1    4    4    0    0  0.21650095834E+02  0.18254876349E+02 -0.17740510231E+02  0.33416954730E+02  0.00000000000E+00 0.  1.
</event>
<event>
12    1  0.8494789E-002  0.1778175E+03  0.7818608E-02  0.1170256E+00
         21   -1    0    0  503  502  0.00000000000E+00  0.00000000000E+00  0.10616935664E+03  0.10616935664E+03  0.00000000000E+00 0.  1.
         21   -1    0    0  501  503 -0.00000000000E+00 -0.00000000000E+00 -0.29602471421E+03  0.29602471421E+03  0.00000000000E+00 0.  1.
          6    2    1    2  501    0 -0.22211895048E+02  0.41948325382E+02 -0.10264986591E+03  0.20531937329E+03  0.17136516506E+03 0.  0.
         24    2    3    3    0    0  0.10619887567E+01 -0.16328510575E+02 -0.11648634660E+03  0.14088800303E+03  0.77541036712E+02 0.  0.
         -6    2    1    2    0  502  0.22211895048E+02 -0.41948325382E+02 -0.87205491657E+02  0.19687469755E+03  0.17000534838E+03 0.  0.
        -24    2    5    5    0    0 -0.49104476887E+02  0.18729048269E+00 -0.49474007831E+02  0.10573091059E+03  0.79498825619E+02 0.  0.
          5    1    3    3  501    0 -0.23273883805E+02  0.58276835957E+02  0.13836480694E+02  0.64431370267E+02  0.47000000000E+01 0. -1.
        -11    1    4    4    0    0  0.11710543095E+02  0.22048824473E+02 -0.89155212495E+02  0.92584768700E+02  0.00000000000E+00 0.  1.
         12    1    4    4    0    0 -0.10648554338E+02 -0.38377335048E+02 -0.27331134108E+02  0.48303234328E+02  0.00000000000E+00 0. -1.
         -5    1    5    5    0  502  0.71316371935E+02 -0.42135615864E+02 -0.37731483826E+02  0.91143786963E+02  0.47000000000E+01 0.  1.
         11    1    6    6    0    0 -0.59424820196E+02  0.26513385376E+02 -0.36643649457E+02  0.74679487846E+02  0.00000000000E+00 0. -1.
        -12    1    6    6    0    0  0.10320343308E+02 -0.26326094893E+02 -0.12830358374E+02  0.31051422742E+02  0.00000000000E+00 0.  1.
</event>
<event>
12    1  0.8494789E-002  0.1790060E+03  0.7818608E-02  0.1168851E+00
         21   -1    0    0  501  502  0.00000000000E+00  0.00000000000E+00  0.21247339027E+03  0.21247339027E+03  0.00000000000E+00 0. -1.
         21   -1    0    0  502  503 -0.00000000000E+00 -0.00000000000E+00 -0.17059926614E+03  0.17059926614E+03  0.00000000000E+00 0. -1.
         -6    2    1    2    0  503  0.40666204763E+02  0.34573161008E+02 -0.44744956225E+02  0.18451357474E+03  0.17086282358E+03 0.  0.
        -24    2    3    3    0    0 -0.13174994590E+02  0.54236305198E+02  0.18216595542E+02  0.99238953727E+02  0.80008551416E+02 0.  0.
          6    2    1    2  501    0 -0.40666204763E+02 -0.34573161008E+02  0.86619080361E+02  0.19855908167E+03  0.17051041071E+03 0.  0.
         24    2    5    5    0    0 -0.62346353125E+01  0.44495369517E+02  0.46486252393E+02  0.10332201234E+03  0.80596265335E+02 0.  0.
          5    1    5    5  501    0 -0.34431569451E+02 -0.79068530525E+02  0.40132827968E+02  0.95237069332E+02  0.47000000000E+01 0. -1.
        -11    1    6    6    0    0  0.36460293496E+02  0.14468453787E+02  0.13074555764E+02  0.41347710519E+02  0.00000000000E+00 0.  1.
         12    1    6    6    0    0 -0.42694928808E+02  0.30026915730E+02  0.33411696629E+02  0.61974301818E+02  0.00000000000E+00 0. -1.
         -5    1    3    3    0  503  0.53841199353E+02 -0.19663144190E+02 -0.62961551768E+02  0.85274621009E+02  0.47000000000E+01 0.  1.
         11    1    4    4    0    0  0.72944228632E+01  0.65668974578E+02  0.30497327172E+02  0.72771627656E+02  0.00000000000E+00 0. -1.
        -12    1    4    4    0    0 -0.20469417453E+02 -0.11432669380E+02 -0.12280731630E+02  0.26467326072E+02  0.00000000000E+00 0.  1.
</event>
<event>
12    1  0.8494789E-002  0.1754118E+03  0.7818608E-02  0.1172957E+00
         21   -1    0    0  501  502  0.00000000000E+00  0.00000000000E+00  0.70704992679E+03  0.70704992679E+03  0.00000000000E+00 0.  1.
         21   -1    0    0  502  503 -0.00000000000E+00 -0.00000000000E+00 -0.11397956710E+03  0.11397956710E+03  0.00000000000E+00 0.  1.
         -6    2    1    2    0  503  0.23117350555E+02  0.91594504252E+01 -0.26849219698E+02  0.17745476665E+03  0.17364045087E+03 0.  0.
        -24    2    3    3    0    0 -0.27743070059E+02 -0.25975024925E+02  0.31384495511E+02  0.92399082944E+02  0.78155128522E+02 0.  0.
          6    2    1    2  501    0 -0.23117350555E+02 -0.91594504252E+01  0.61991957939E+03  0.64357472724E+03  0.17108429854E+03 0.  0.
         24    2    5    5    0    0 -0.72958493609E+02  0.20325614542E+01  0.52144100195E+03  0.53253635151E+03  0.79794574183E+02 0.  0.
          5    1    5    5  501    0  0.49841143055E+02 -0.11192011879E+02  0.98478577446E+02  0.11103837574E+03  0.47000000000E+01 0. -1.
        -11    1    6    6    0    0 -0.20418055687E+02 -0.32636954058E+02  0.29525976539E+03  0.29775895759E+03  0.00000000000E+00 0.  1.
         12    1    6    6    0    0 -0.52540437923E+02  0.34669515512E+02  0.22618123655E+03  0.23477739391E+03  0.00000000000E+00 0. -1.
         -5    1    3    3    0  503  0.50860420614E+02  0.35134475350E+02 -0.58233715209E+02  0.85055683703E+02  0.47000000000E+01 0.  1.
         13    1    4    4    0    0  0.10258416250E+00  0.50528918579E+01  0.47451254757E+02  0.47719637652E+02  0.00000000000E+00 0. -1.
        -14    1    4    4    0    0 -0.27845654222E+02 -0.31027916783E+02 -0.16066759246E+02  0.44679445292E+02  0.00000000000E+00 0.  1.
</event>
<event>
12    1  0.8494789E-002  0.1941110E+03  0.7818608E-02  0.1155249E+00
         21   -1    0    0  503  502  0.00000000000E+00  0.00000000000E+00  0.33373039949E+03  0.33373039949E+03  0.00000000000E+00 0.  1.
         21   -1    0    0  501  503 -0.00000000000E+00 -0.00000000000E+00 -0.16538391194E+03  0.16538391194E+03  0.00000000000E+00 0.  1.
          6    2    1    2  501    0  0.60198176646E+02  0.64602859157E+02 -0.57666366296E+02  0.20249567748E+03  0.17286335561E+03 0.  0.
         24    2    3    3    0    0  0.53199712852E+02  0.11037473610E+03 -0.34803877063E+02  0.15064178053E+03  0.80429126354E+02 0.  0.
         -6    2    1    2    0  502 -0.60198176646E+02 -0.64602859157E+02  0.22601285384E+03  0.29661863395E+03  0.17059734470E+03 0.  0.
        -24    2    5    5    0    0 -0.91513934982E+02 -0.11840496544E+02  0.18929982149E+03  0.22496334543E+03  0.79114390056E+02 0.  0.
          5    1    3    3  501    0  0.69984637947E+01 -0.45771876947E+02 -0.22862489233E+02  0.51853896948E+02  0.47000000000E+01 0. -1.
        -11    1    4    4    0    0  0.45895602838E+02  0.58952997695E+02 -0.57186849794E+02  0.94086120583E+02  0.00000000000E+00 0.  1.
         12    1    4    4    0    0  0.73041100136E+01  0.51421738410E+02  0.22382972731E+02  0.56555659951E+02  0.00000000000E+00 0. -1.
         -5    1    5    5    0  502  0.31315758336E+02 -0.52762362613E+02  0.36713032349E+02  0.71655288520E+02  0.47000000000E+01 0.  1.
         13    1    6    6    0    0  0.65192027800E+01 -0.97891604552E+01 -0.15821835642E-01  0.11761288944E+02  0.00000000000E+00 0. -1.
        -14    1    6    6    0    0 -0.98033137762E+02 -0.20513360884E+01  0.18931564333E+03  0.21320205648E+03  0.00000000000E+00 0.  1.
</event>
<event>
12    1  0.8494789E-002  0.1982214E+03  0.7818608E-02  0.1151677E+00
         21   -1    0    0  501  502  0.00000000000E+00  0.00000000000E+00  0.34898599798E+03  0.34898599798E+03  0.00000000000E+00 0.  1.
         21   -1    0    0  502  503 -0.00000000000E+00 -0.00000000000E+00 -0.13469349274E+03  0.13469349274E+03  0.00000000000E+00 0.  1.
         -6    2    1    2    0  503  0.54615716800E+02 -0.77351780573E+02  0.71481337097E+01  0.19835024736E+03  0.17414232780E+03 0.  0.
        -24    2    3    3    0    0  0.23619544258E+02  0.20389461195E+02  0.34108961817E+02  0.92222544533E+02  0.79799520331E+02 0.  0.
          6    2    1    2  501    0 -0.54615716800E+02  0.77351780573E+02  0.20714437153E+03  0.28532924337E+03  0.17186568007E+03 0.  0.
         24    2    5    5    0    0 -0.99654853861E+02  0.79871604760E+02  0.17174689737E+03  0.22779712575E+03  0.77999811519E+02 0.  0.
          5    1    5    5  501    0  0.45039137061E+02 -0.25198241871E+01  0.35397474159E+02  0.57532117621E+02  0.47000000000E+01 0. -1.
        -13    1    6    6    0    0 -0.84945870971E+02  0.65804698698E+02  0.17674016349E+03  0.20684086820E+03  0.00000000000E+00 0.  1.
         14    1    6    6    0    0 -0.14708982890E+02  0.14066906062E+02 -0.49932661225E+01  0.20956257547E+02  0.00000000000E+00 0. -1.
         -5    1    3    3    0  503  0.30996172542E+02 -0.97741241768E+02 -0.26960828107E+02  0.10612770282E+03  0.47000000000E+01 0.  1.
         13    1    4    4    0    0 -0.60830237635E+01  0.29263562572E+02 -0.15542180060E+02  0.33688553450E+02  0.00000000000E+00 0. -1.
        -14    1    4    4    0    0  0.29702568022E+02 -0.88741013772E+01  0.49651141877E+02  0.58533991082E+02  0.00000000000E+00 0.  1.
</event>
<event>
12    1  0.8494789E-002  0.1840800E+03  0.7818608E-02  0.1164411E+00
         21   -1    0    0  501  502  0.00000000000E+00  0.00000000000E+00  0.10105864270E+03  0.10105864270E+03  0.00000000000E+00 0.  1.
         21   -1    0    0  502  503 -0.00000000000E+00 -0.00000000000E+00 -0.34151327702E+03  0.34151327702E+03  0.00000000000E+00 0.  1.
         -6    2    1    2    0  503  0.38479782380E+02  0.50218514722E+02 -0.15885252791E+03  0.24314513669E+03  0.17286653521E+03 0.  0.
        -24    2    3    3    0    0  0.67802152097E+02 -0.11704916566E+01 -0.14956026775E+03  0.18306962220E+03  0.80917927562E+02 0.  0.
          6    2    1    2  501    0 -0.38479782380E+02 -0.50218514722E+02 -0.81602106400E+02  0.19942678303E+03  0.17061519613E+03 0.  0.
         24    2    5    5    0    0 -0.52791619061E+02  0.25372107560E+02 -0.70394440765E+02  0.12153921910E+03  0.79910610086E+02 0.  0.
          5    1    5    5  501    0  0.14311836682E+02 -0.75590622282E+02 -0.11207665635E+02  0.77887563931E+02  0.47000000000E+01 0. -1.
        -13    1    6    6    0    0 -0.25587800723E+01 -0.26284241627E+02 -0.13078934599E+02  0.29469768299E+02  0.00000000000E+00 0.  1.
         14    1    6    6    0    0 -0.50232838989E+02  0.51656349187E+02 -0.57315506166E+02  0.92069450804E+02  0.00000000000E+00 0. -1.
         -5    1    3    3    0  503 -0.29322369718E+02  0.51389006378E+02 -0.92922601616E+01  0.60075514491E+02  0.47000000000E+01 0.  1.
         13    1    4    4    0    0 -0.15046032028E+02 -0.63385651270E+01 -0.63044223798E+01  0.17501606475E+02  0.00000000000E+00 0. -1.
        -14    1    4    4    0    0  0.82848184125E+02  0.51680734703E+01 -0.14325584537E+03  0.16556801572E+03  0.00000000000E+00 0.  1.
</event>
<event>
12    1  0.8494789E-002  0.2156253E+03  0.7818608E-02  0.1137227E+00
         21   -1    0    0  503  502  0.00000000000E+00  0.00000000000E+00  0.43755117674E+03  0.43755117674E+03  0.00000000000E+00 0. -1.
         21   -1    0    0  501  503 -0.00000000000E+00 -0.00000000000E+00 -0.12044661055E+03  0.12044661055E+03  0.00000000000E+00 0.  1.
          6    2    1    2  501    0  0.95427438476E+02 -0.88911167899E+02  0.62522968471E+02  0.22450703858E+03  0.17170526198E+03 0.  0.
         24    2    3    3    0    0  0.12084754354E+03 -0.74075598848E+02  0.95660787524E+01  0.16373864202E+03  0.81409519744E+02 0.  0.
         -6    2    1    2    0  502 -0.95427438476E+02  0.88911167899E+02  0.25458159772E+03  0.33349074871E+03  0.17144298698E+03 0.  0.
        -24    2    5    5    0    0 -0.15759929769E+02 -0.39487649992E+01  0.15532266395E+03  0.17586998543E+03  0.80877399248E+02 0.  0.
          5    1    3    3  501    0 -0.25420105065E+02 -0.14835569052E+02  0.52956889719E+02  0.60768396551E+02  0.47000000000E+01 0. -1.
        -13    1    4    4    0    0  0.93605238934E+02 -0.41116931174E+02 -0.28877782447E+02  0.10623779508E+03  0.00000000000E+00 0.  1.
         14    1    4    4    0    0  0.27242304607E+02 -0.32958667674E+02  0.38443861199E+02  0.57500846942E+02  0.00000000000E+00 0. -1.
         -5    1    5    5    0  502 -0.79667508706E+02  0.92859932898E+02  0.99258933774E+02  0.15762076327E+03  0.47000000000E+01 0.  1.
         11    1    6    6    0    0  0.37031309376E+01  0.34983951983E+02  0.43961089923E+02  0.56304240535E+02  0.00000000000E+00 0. -1.
        -12    1    6    6    0    0 -0.19463060707E+02 -0.38932716982E+02  0.11136157403E+03  0.11956574490E+03  0.00000000000E+00 0.  1.
</event>
<event>
12    1  0.8494789E-002  0.1915440E+03  0.7818608E-02  0.1157576E+00
         21   -1    0    0  503  502  0.00000000000E+00  0.00000000000E+00  0.10723422019E+04  0.10723422019E+04  0.00000000000E+00 0.  1.
         21   -1    0    0  501  503 -0.00000000000E+00 -0.00000000000E+00 -0.35414691735E+02  0.35414691735E+02  0.00000000000E+00 0.  1.
          6    2    1    2  501    0 -0.69349806030E+02  0.47078391443E+02  0.40373479663E+03  0.44686787766E+03  0.17223049537E+03 0.  0.
         24    2    3    3    0    0 -0.67047157085E+02  0.23462240342E+02  0.40871704720E+03  0.42217096276E+03  0.78312828637E+02 0.  0.
         -6    2    1    2    0  502  0.69349806030E+02 -0.47078391443E+02  0.63319271349E+03  0.66088901593E+03  0.16975131348E+03 0.  0.
        -24    2    5    5    0    0  0.42769739945E+02 -0.96716116564E+02  0.45336453476E+03  0.47239321350E+03  0.80204045580E+02 0.  0.
          5    1    3    3  501    0 -0.23026489448E+01  0.23616151100E+02 -0.49822505677E+01  0.24696914902E+02  0.47000000000E+01 0. -1.
        -11    1    4    4    0    0 -0.33666241305E+02  0.38029014674E+02  0.10903689279E+03  0.12028576703E+03  0.00000000000E+00 0.  1.
         12    1    4    4    0    0 -0.33380915780E+02 -0.14566774332E+02  0.29968015441E+03  0.30188519573E+03  0.00000000000E+00 0. -1.
         -5    1    5    5    0  502  0.26580066085E+02  0.49637725122E+02  0.17982817873E+03  0.18849580243E+03  0.47000000000E+01 0.  1.
         13    1    6    6    0    0  0.17167858809E+02 -0.26895205074E+02  0.30267623578E+03  0.30435339843E+03  0.00000000000E+00 0. -1.
        -14    1    6    6    0    0  0.25601881136E+02 -0.69820911490E+02  0.15068829898E+03  0.16803981506E+03  0.00000000000E+00 0.  1.
</event>
<event>
12    1  0.8494789E-002  0.2680019E+03  0.7818608E-02  0.1102515E+00
         21   -1    0    0  501  502  0.00000000000E+00  0.00000000000E+00  0.57896201707E+03  0.57896201707E+03  0.00000000000E+00 0.  1.
         21   -1    0    0  502  503 -0.00000000000E+00 -0.00000000000E+00 -0.19093214410E+03  0.19093214410E+03  0.00000000000E+00 0. -1.
         -6    2    1    2    0  503  0.56917109745E+02 -0.19676355603E+03 -0.34412041596E+02  0.26961206049E+03  0.17190410174E+03 0.  0.
        -24    2    3    3    0    0 -0.11010900218E+02 -0.18011960463E+03 -0.24220268259E+02  0.19877987925E+03  0.79765325202E+02 0.  0.
          6    2    1    2  501    0 -0.56917109745E+02  0.19676355603E+03  0.42244191457E+03  0.50028210067E+03  0.17282810739E+03 0.  0.
         24    2    5    5    0    0 -0.10580723406E+03  0.13935194269E+03  0.28936042969E+03  0.34724906757E+03  0.78983048493E+02 0.  0.
          5    1    5    5  501    0  0.48890124314E+02  0.57411613332E+02  0.13308148489E+03  0.15303303310E+03  0.47000000000E+01 0. -1.
        -13    1    6    6    0    0  0.18798242183E+01  0.54519881549E+02  0.91773446471E+02  0.10676289946E+03  0.00000000000E+00 0.  1.
         14    1    6    6    0    0 -0.10768705828E+03  0.84832061146E+02  0.19758698321E+03  0.24048616811E+03  0.00000000000E+00 0. -1.
         -5    1    3    3    0  503  0.67928009963E+02 -0.16643951393E+02 -0.10191773337E+02  0.70832181240E+02  0.47000000000E+01 0.  1.
         13    1    4    4    0    0  0.12643791292E+02 -0.14776807332E+01 -0.13053465397E+02  0.18232990908E+02  0.00000000000E+00 0. -1.
        -14    1    4    4    0    0 -0.23654691510E+02 -0.17864192390E+03 -0.11166802862E+02  0.18054688835E+03  0.00000000000E+00 0.  1.
</event>
<event>
12    1  0.8494789E-002  0.1926346E+03  0.7818608E-02  0.1156185E+00
         21   -1    0    0  503  502  0.00000000000E+00  0.00000000000E+00  0.98820412912E+02  0.98820412912E+02  0.00000000000E+00 0. -1.
         21   -1    0    0  501  503 -0.00000000000E+00 -0.00000000000E+00 -0.38706784530E+03  0.38706784530E+03  0.00000000000E+00 0. -1.
          6    2    1    2  501    0  0.76283346139E+02 -0.41833911420E+02 -0.18721035446E+03  0.26836447014E+03  0.17147170896E+03 0.  0.
         24    2    3    3    0    0  0.69679464655E+02  0.29870541544E+02 -0.15498843174E+03  0.18933610732E+03  0.77969676913E+02 0.  0.
         -6    2    1    2    0  502 -0.76283346139E+02  0.41833911420E+02 -0.10103707793E+03  0.21752378807E+03  0.17186879361E+03 0.  0.
        -24    2    5    5    0    0 -0.74476885792E+02 -0.31353884038E+02 -0.28713918013E+02  0.11450706048E+03  0.75878226458E+02 0.  0.
          5    1    3    3  501    0  0.66038814847E+01 -0.71704452964E+02 -0.32221922722E+02  0.79028362816E+02  0.47000000000E+01 0. -1.
        -13    1    4    4    0    0 -0.17251485800E+02  0.29325208987E+01 -0.20569263969E+02  0.27005704237E+02  0.00000000000E+00 0.  1.
         14    1    4    4    0    0  0.86930950454E+02  0.26938020645E+02 -0.13441916777E+03  0.16233040309E+03  0.00000000000E+00 0. -1.
         -5    1    5    5    0  502 -0.18064603469E+01  0.73187795458E+02 -0.72323159914E+02  0.10301672759E+03  0.47000000000E+01 0.  1.
         13    1    6    6    0    0 -0.46620789512E+02 -0.28676130929E+02  0.20044216011E+02  0.58288841945E+02  0.00000000000E+00 0. -1.
        -14    1    6    6    0    0 -0.27856096280E+02 -0.26777531092E+01 -0.48758134024E+02  0.56218218534E+02  0.00000000000E+00 0.  1.
</event>
<event>
12    1  0.8494789E-002  0.3121221E+03  0.7818608E-02  0.1080020E+00
         21   -1    0    0  501  502  0.00000000000E+00  0.00000000000E+00  0.12125384599E+04  0.12125384599E+04  0.00000000000E+00 0. -1.
         21   -1    0    0  502  503 -0.00000000000E+00 -0.00000000000E+00 -0.13189497512E+03  0.13189497512E+03  0.00000000000E+00 0.  1.
         -6    2    1    2    0  503 -0.23973182921E+03  0.83959614401E+02  0.96351212707E+03  0.10110568724E+04  0.17134705533E+03 0.  0.
        -24    2    3    3    0    0 -0.17567229049E+03  0.42851341024E+02  0.85694560733E+03  0.88001478840E+03  0.85867705279E+02 0.  0.
          6    2    1    2  501    0  0.23973182921E+03 -0.83959614401E+02  0.11713135771E+03  0.33337656265E+03  0.18138249855E+03 0.  0.
         24    2    5    5    0    0  0.19027144860E+02 -0.19800647014E+02  0.28159542035E+02  0.86870974936E+02  0.77456494983E+02 0.  0.
          5    1    5    5  501    0  0.22070468435E+03 -0.64158967388E+02  0.88971815679E+02  0.24650558772E+03  0.47000000000E+01 0. -1.
        -13    1    6    6    0    0  0.28348140666E+02 -0.13489643257E+02 -0.20125584963E+02  0.37291107848E+02  0.00000000000E+00 0.  1.
         14    1    6    6    0    0 -0.93209958059E+01 -0.63110037565E+01  0.48285126998E+02  0.49579867088E+02  0.00000000000E+00 0. -1.
         -5    1    3    3    0  503 -0.64059538726E+02  0.41108273377E+02  0.10656651974E+03  0.13104208397E+03  0.47000000000E+01 0.  1.
         11    1    4    4    0    0 -0.14959967190E+03  0.14195224043E+01  0.59394519496E+03  0.61249732366E+03  0.00000000000E+00 0. -1.
        -12    1    4    4    0    0 -0.26072618590E+02  0.41431818620E+02  0.26300041237E+03  0.26751746474E+03  0.00000000000E+00 0.  1.
</event>
<event>
12    1  0.8494789E-002  0.1738345E+03  0.7818608E-02  0.1175864E+00
         21   -1    0    0  503  502  0.00000000000E+00  0.00000000000E+00  0.13023195681E+03  0.13023195681E+03  0.00000000000E+00 0.  1.
         21   -1    0    0  501  503 -0.00000000000E+00 -0.00000000000E+00 -0.22218594865E+03  0.22218594865E+03  0.00000000000E+00 0.  1.
          6    2    1    2  501    0 -0.13643347236E+02 -0.18484869724E+02 -0.48973872588E+02  0.17334888107E+03  0.16469232842E+03 0.  0.
         24    2    3    3    0    0  0.47358743875E+02 -0.31136195741E+02 -0.51292121284E+02  0.11082868076E+03  0.80248373609E+02 0.  0.
         -6    2    1    2    0  502  0.13643347236E+02  0.18484869724E+02 -0.42980119258E+02  0.17906902439E+03  0.17230958624E+03 0.  0.
        -24    2    5    5    0    0  0.67449415904E+02  0.34054565310E+02 -0.57036557174E+02  0.12112783099E+03  0.75562195977E+02 0.  0.
          5    1    3    3  501    0 -0.61002091110E+02  0.12651326016E+02  0.23182486962E+01  0.62520200310E+02  0.47000000000E+01 0. -1.
        -13    1    4    4    0    0  0.43793358869E+02 -0.25256644213E+02 -0.72583748729E+02  0.88454264665E+02  0.00000000000E+00 0.  1.
         14    1    4    4    0    0  0.35653850054E+01 -0.58795515276E+01  0.21291627445E+02  0.22374416096E+02  0.00000000000E+00 0. -1.
         -5    1    5    5    0  502 -0.53806068668E+02 -0.15569695586E+02  0.14056437916E+02  0.57941193404E+02  0.47000000000E+01 0.  1.
         11    1    6    6    0    0  0.72161255739E+01 -0.19154695974E+02 -0.30029153449E+02  0.36341779030E+02  0.00000000000E+00 0. -1.
        -12    1    6    6    0    0  0.60233290330E+02  0.53209261284E+02 -0.27007403725E+02  0.84786051956E+02  0.00000000000E+00 0.  1.
</event>
<event>
12    1  0.8494789E-002  0.1970859E+03  0.7818608E-02  0.1152265E+00
         21   -1    0    0  503  502  0.00000000000E+00  0.00000000000E+00  0.43312893383E+03  0.43312893383E+03  0.00000000000E+00 0.  1.
         21   -1    0    0  501  503 -0.00000000000E+00 -0.00000000000E+00 -0.13598386430E+03  0.13598386430E+03  0.00000000000E+00 0.  1.
          6    2    1    2  501    0 -0.88963453840E+02  0.34502885800E+02 -0.17591585323E+02  0.19786946536E+03  0.17244685036E+03 0.  0.
         24    2    3    3    0    0  0.94712586323E+01 -0.10662498042E+02 -0.33877029498E+02  0.88249165187E+02  0.80230096747E+02 0.  0.
         -6    2    1    2    0  502  0.88963453840E+02 -0.34502885800E+02  0.31473665485E+03  0.37124333277E+03  0.17221354469E+03 0.  0.
        -24    2    5    5    0    0  0.10084164010E+03 -0.76363386888E+02  0.27524732150E+03  0.31229513256E+03  0.75939176926E+02 0.  0.
          5    1    3    3  501    0 -0.98434712473E+02  0.45165383842E+02  0.16285444175E+02  0.10962030017E+03  0.47000000000E+01 0. -1.
        -13    1    4    4    0    0 -0.34649325909E+02 -0.95618780777E+01 -0.23394196466E+02  0.42886987847E+02  0.00000000000E+00 0.  1.
         14    1    4    4    0    0  0.44120584542E+02 -0.11006199641E+01 -0.10482833033E+02  0.45362177340E+02  0.00000000000E+00 0. -1.
         -5    1    5    5    0  502 -0.11878186256E+02  0.41860501088E+02  0.39489333348E+02  0.58948200213E+02  0.47000000000E+01 0.  1.
         11    1    6    6    0    0  0.58865150952E+01  0.14180035499E+02  0.19152666936E+02  0.24546875921E+02  0.00000000000E+00 0. -1.
        -12    1    6    6    0    0  0.94955125001E+02 -0.90543422387E+02  0.25609465457E+03  0.28774825664E+03  0.00000000000E+00 0.  1.
</event>
<event>
12    1  0.8494789E-002  0.1896612E+03  0.7818608E-02  0.1158826E+00
         21   -1    0    0  503  502  0.00000000000E+00  0.00000000000E+00  0.25032946807E+03  0.25032946807E+03  0.00000000000E+00 0.  1.
         21   -1    0    0  501  503 -0.00000000000E+00 -0.00000000000E+00 -0.14539216768E+03  0.14539216768E+03  0.00000000000E+00 0. -1.
          6    2    1    2  501    0 -0.41772547903E+02  0.67300301690E+02  0.29856955139E+02  0.19174015770E+03  0.17204236088E+03 0.  0.
         24    2    3    3    0    0 -0.42622427550E+02  0.30043777459E+02 -0.47114242655E+02  0.10609305510E+03  0.79477572845E+02 0.  0.
         -6    2    1    2    0  502  0.41772547903E+02 -0.67300301690E+02  0.75080345259E+02  0.20398147806E+03  0.17232849091E+03 0.  0.
        -24    2    5    5    0    0  0.63883435085E+02 -0.84976714306E+02  0.10299267856E+02  0.13312934411E+03  0.79468308732E+02 0.  0.
          5    1    3    3  501    0  0.84987964753E+00  0.37256524230E+02  0.76971197794E+02  0.85647102595E+02  0.47000000000E+01 0. -1.
        -13    1    4    4    0    0 -0.32274525607E+02 -0.18283947985E+02  0.10141347723E+01  0.37107630299E+02  0.00000000000E+00 0.  1.
         14    1    4    4    0    0 -0.10347901943E+02  0.48327725444E+02 -0.48128377427E+02  0.68985424801E+02  0.00000000000E+00 0. -1.
         -5    1    5    5    0  502 -0.22110887182E+02  0.17676412616E+02  0.64781077403E+02  0.70852133944E+02  0.47000000000E+01 0.  1.
         11    1    6    6    0    0  0.39107857379E+02 -0.97316989761E+02  0.10885861075E+02  0.10544440704E+03  0.00000000000E+00 0. -1.
        -12    1    6    6    0    0  0.24775577706E+02  0.12340275455E+02 -0.58659321894E+00  0.27684937071E+02  0.00000000000E+00 0.  1.
</event>
<event>
12    1  0.8494789E-002  0.2544409E+03  0.7818608E-02  0.1110773E+00
         21   -1    0    0  501  502  0.00000000000E+00  0.00000000000E+00  0.21051490104E+03  0.21051490104E+03  0.00000000000E+00 0. -1.
         21   -1    0    0  502  503 -0.00000000000E+00 -0.00000000000E+00 -0.30775285572E+03  0.30775285572E+03  0.00000000000E+00 0.  1.
         -6    2    1    2    0  503 -0.17328581109E+03  0.70954497620E+02 -0.69952217587E+02  0.26236805414E+03  0.16994460872E+03 0.  0.
        -24    2    3    3    0    0 -0.14802800866E+03  0.83638942171E+02 -0.75066268587E+00  0.18746947660E+03  0.78971369286E+02 0.  0.
          6    2    1    2  501    0  0.17328581109E+03 -0.70954497620E+02 -0.27285737094E+02  0.25589970262E+03  0.17227197478E+03 0.  0.
         24    2    5    5    0    0  0.64723552403E+02 -0.70960948465E+02 -0.61355222580E+02  0.14202001219E+03  0.84738574927E+02 0.  0.
          5    1    5    5  501    0  0.10856225868E+03  0.64508447546E-02  0.34069485486E+02  0.11387969043E+03  0.47000000000E+01 0. -1.
        -13    1    6    6    0    0  0.77831658313E+02 -0.33341307598E+02 -0.25515770755E+02  0.88433389539E+02  0.00000000000E+00 0.  1.
         14    1    6    6    0    0 -0.13108105910E+02 -0.37619640867E+02 -0.35839451825E+02  0.53586622646E+02  0.00000000000E+00 0. -1.
         -5    1    3    3    0  503 -0.25257802430E+02 -0.12684444551E+02 -0.69201554901E+02  0.74898577543E+02  0.47000000000E+01 0.  1.
         13    1    4    4    0    0 -0.65670010538E+02  0.74820842610E+02  0.21192846762E+02  0.10178332637E+03  0.00000000000E+00 0. -1.
        -14    1    4    4    0    0 -0.82357998120E+02  0.88180995605E+01 -0.21943509448E+02  0.85686150229E+02  0.00000000000E+00 0.  1.
</event>
<event>
12    1  0.8494789E-002  0.1866908E+03  0.7818608E-02  0.1161643E+00
         21   -1    0    0  503  502  0.00000000000E+00  0.00000000000E+00  0.61206544105E+02  0.61206544105E+02  0.00000000000E+00 0.  1.
         21   -1    0    0  501  503 -0.00000000000E+00 -0.00000000000E+00 -0.68107170116E+03  0.68107170116E+03  0.00000000000E+00 0. -1.
          6    2    1    2  501    0  0.70889994821E+02 -0.90593894680E+01 -0.46211838665E+03  0.49840429805E+03  0.17247022099E+03 0.  0.
         24    2    3    3    0    0  0.41133761618E+02  0.25198344001E+02 -0.43510003651E+03  0.44538442478E+03  0.82026222506E+02 0.  0.
         -6    2    1    2    0  502 -0.70889994821E+02  0.90593894680E+01 -0.15774677041E+03  0.24387394722E+03  0.17170612877E+03 0.  0.
        -24    2    5    5    0    0  0.57969752783E+01  0.56027785694E+02 -0.83469009422E+02  0.12714264292E+03  0.77623826384E+02 0.  0.
          5    1    3    3  501    0  0.29756233203E+02 -0.34257733469E+02 -0.27018350137E+02  0.53019873265E+02  0.47000000000E+01 0. -1.
        -13    1    4    4    0    0  0.16202323622E+02 -0.17654494774E+02 -0.36181744595E+02  0.43397178692E+02  0.00000000000E+00 0.  1.
         14    1    4    4    0    0  0.24931437996E+02  0.42852838775E+02 -0.39891829192E+03  0.40198724609E+03  0.00000000000E+00 0. -1.
         -5    1    5    5    0  502 -0.76686970099E+02 -0.46968396226E+02 -0.74277760984E+02  0.11673130430E+03  0.47000000000E+01 0.  1.
         13    1    6    6    0    0 -0.48296067148E+01 -0.16041671950E+02 -0.37316885089E+02  0.40904892772E+02  0.00000000000E+00 0. -1.
        -14    1    6    6    0    0  0.10626581993E+02  0.72069457644E+02 -0.46152124333E+02  0.86237750147E+02  0.00000000000E+00 0.  1.
</event>
<event>
12    1  0.8494789E-002  0.2704610E+03  0.7818608E-02  0.1101044E+00
         21   -1    0    0  503  502  0.00000000000E+00  0.00000000000E+00  0.23059541160E+03  0.23059541160E+03  0.00000000000E+00 0. -1.
         21   -1    0    0  501  503 -0.00000000000E+00 -0.00000000000E+00 -0.54427326371E+03  0.54427326371E+03  0.00000000000E+00 0.  1.
          6    2    1    2  501    0 -0.16168261351E+03  0.13303475486E+03 -0.40723737064E+03  0.48886748111E+03  0.17120053892E+03 0.  0.
         24    2    3    3    0    0 -0.17201931884E+03  0.76828893409E+02 -0.36061752452E+03  0.41496588173E+03  0.81598768922E+02 0.  0.
         -6    2    1    2    0  502  0.16168261351E+03 -0.13303475486E+03  0.93559518531E+02  0.28600119420E+03  0.17089115269E+03 0.  0.
        -24    2    5    5    0    0  0.66319299370E+02 -0.27071810964E+01  0.13339454349E+02  0.10562163088E+03  0.81070398848E+02 0.  0.
          5    1    3    3  501    0  0.10336705334E+02  0.56205861453E+02 -0.46619846125E+02  0.73901599384E+02  0.47000000000E+01 0. -1.
        -13    1    4    4    0    0 -0.11034976196E+03  0.37431365797E+02 -0.13793168287E+03  0.18056391182E+03  0.00000000000E+00 0.  1.
         14    1    4    4    0    0 -0.61669556881E+02  0.39397527611E+02 -0.22268584165E+03  0.23440196991E+03  0.00000000000E+00 0. -1.
         -5    1    5    5    0  502  0.95363314139E+02 -0.13032757377E+03  0.80220064181E+02  0.18037956332E+03  0.47000000000E+01 0.  1.
         13    1    6    6    0    0  0.82275248727E+02 -0.11868777868E+02  0.20925088536E+02  0.85720147990E+02  0.00000000000E+00 0. -1.
        -14    1    6    6    0    0 -0.15955949357E+02  0.91615967719E+01 -0.75856341866E+01  0.19901482892E+02  0.00000000000E+00 0.  1.
</event>
<event>
12    1  0.8494789E-002  0.1909955E+03  0.7818608E-02  0.1158437E+00
         21   -1    0    0  503  502  0.00000000000E+00  0.00000000000E+00  0.16069830919E+03  0.16069830919E+03  0.00000000000E+00 0. -1.
         21   -1    0    0  501  503 -0.00000000000E+00 -0.00000000000E+00 -0.28760593251E+03  0.28760593251E+03  0.00000000000E+00 0. -1.
          6    2    1    2  501    0 -0.40648667013E+02  0.68199769100E+02  0.42726974519E+02  0.19571630163E+03  0.17371169718E+03 0.  0.
         24    2    3    3    0    0 -0.92309924711E+02  0.66506388033E+02  0.26904893435E+02  0.14145599076E+03  0.79634805085E+02 0.  0.
         -6    2    1    2    0  502  0.40648667013E+02 -0.68199769100E+02 -0.16963459783E+03  0.25258794007E+03  0.16947344350E+03 0.  0.
        -24    2    5    5    0    0 -0.40492184031E+02 -0.76572644767E+02 -0.64348717391E+02  0.11931697783E+03  0.50919513696E+02 0.  0.
          5    1    3    3  501    0  0.51661257697E+02  0.16933810675E+01  0.15822081084E+02  0.54260310874E+02  0.47000000000E+01 0. -1.
        -11    1    4    4    0    0 -0.53326908738E+02 -0.88087014344E+01  0.11594652254E+02  0.55279185752E+02  0.00000000000E+00 0.  1.
         12    1    4    4    0    0 -0.38983015972E+02  0.75315089467E+02  0.15310241180E+02  0.86176805004E+02  0.00000000000E+00 0. -1.
         -5    1    5    5    0  502  0.81140851044E+02  0.83728756671E+01 -0.10528588044E+03  0.13327096224E+03  0.47000000000E+01 0.  1.
         13    1    6    6    0    0 -0.16600387627E+02 -0.65833822606E+02 -0.63724297984E+02  0.93115257729E+02  0.00000000000E+00 0. -1.
        -14    1    6    6    0    0 -0.23891796404E+02 -0.10738822161E+02 -0.62441940681E+00  0.26201720104E+02  0.00000000000E+00 0.  1.
</event>
<event>
12    1  0.8494789E-002  0.3232048E+03  0.7818608E-02  0.1074215E+00
         21   -1    0    0  501  502  0.00000000000E+00  0.00000000000E+00  0.88694580148E+03  0.88694580148E+03  0.00000000000E+00 0.  1.
         21   -1    0    0  502  503 -0.00000000000E+00 -0.00000000000E+00 -0.11961678261E+03  0.11961678261E+03  0.00000000000E+00 0. -1.
         -6    2    1    2    0  503  0.16835713232E+03  0.21547327791E+03  0.31942934008E+03  0.45422620750E+03  0.17179489742E+03 0.  0.
        -24    2    3    3    0    0  0.10768173277E+03  0.66541997493E+02  0.90356255232E+02  0.17430014834E+03  0.78696225119E+02 0.  0.
          6    2    1    2  501    0 -0.16835713232E+03 -0.21547327791E+03  0.44789967879E+03  0.55233637659E+03  0.17230349140E+03 0.  0.
         24    2    5    5    0    0 -0.15827062452E+03 -0.12299161054E+03  0.23013276581E+03  0.31548385955E+03  0.79952791624E+02 0.  0.
          5    1    5    5  501    0 -0.10086507801E+02 -0.92481667373E+02  0.21776691298E+03  0.23685251704E+03  0.47000000000E+01 0. -1.
        -11    1    6    6    0    0 -0.14359480178E+03 -0.11877028126E+03  0.23457012469E+03  0.29958135824E+03  0.00000000000E+00 0.  1.
         12    1    6    6    0    0 -0.14675822746E+02 -0.42213292774E+01 -0.44373588793E+01  0.15902501311E+02  0.00000000000E+00 0. -1.
         -5    1    3    3    0  503  0.60675399556E+02  0.14893128042E+03  0.22907308485E+03  0.27992605916E+03  0.47000000000E+01 0.  1.
         13    1    4    4    0    0  0.11365486367E+03  0.71771412979E+02  0.95455658401E+02  0.16486463077E+03  0.00000000000E+00 0. -1.
        -14    1    4    4    0    0 -0.59731309033E+01 -0.52294154856E+01 -0.50994031689E+01  0.94355175687E+01  0.00000000000E+00 0.  1.
</event>
<event>
12    1  0.8494789E-002  0.1802998E+03  0.7818608E-02  0.1168361E+00
         21   -1    0    0  501  502  0.00000000000E+00  0.00000000000E+00  0.16642287332E+02  0.16642287332E+02  0.00000000000E+00 0.  1.
         21   -1    0    0  502  503 -0.00000000000E+00 -0.00000000000E+00 -0.20613924603E+04  0.20613924603E+04  0.00000000000E+00 0.  1.
         -6    2    1    2    0  503 -0.54746225648E+02  0.70639952856E+01 -0.13076951819E+04  0.13200661782E+04  0.17164200175E+03 0.  0.
        -24    2    3    3    0    0 -0.60109104595E+02  0.65275328988E+02 -0.96251096216E+03  0.96993540918E+03  0.80457272392E+02 0.  0.
          6    2    1    2  501    0  0.54746225648E+02 -0.70639952856E+01 -0.73705499102E+03  0.75796856941E+03  0.16798584215E+03 0.  0.
         24    2    5    5    0    0  0.20381656229E+02  0.55175580585E+02 -0.32951664347E+03  0.34424851531E+03  0.80411848406E+02 0.  0.
          5    1    5    5  501    0  0.34364569420E+02 -0.62239575871E+02 -0.40753834755E+03  0.41372005410E+03  0.47000000000E+01 0. -1.
        -11    1    6    6    0    0  0.39234958028E+02  0.73340999529E+01 -0.79024507943E+02  0.88532727335E+02  0.00000000000E+00 0.  1.
         12    1    6    6    0    0 -0.18853301800E+02  0.47841480632E+02 -0.25049213553E+03  0.25571578797E+03  0.00000000000E+00 0. -1.
         -5    1    3    3    0  503  0.53628789471E+01 -0.58211333703E+02 -0.34518421978E+03  0.35013076904E+03  0.47000000000E+01 0.  1.
         13    1    4    4    0    0 -0.15672982260E+02  0.16756901244E+02 -0.49522313152E+02  0.54579259908E+02  0.00000000000E+00 0. -1.
        -14    1    4    4    0    0 -0.44436122335E+02  0.48518427745E+02 -0.91298864901E+03  0.91535614928E+03  0.00000000000E+00 0.  1.
</event>
<event>
12    1  0.8494789E-002  0.2218034E+03  0.7818608E-02  0.1133036E+00
         21   -1    0    0  503  502  0.00000000000E+00  0.00000000000E+00  0.17088333336E+03  0.17088333336E+03  0.00000000000E+00 0. -1.
         21   -1    0    0  501  503 -0.00000000000E+00 -0.00000000000E+00 -0.39871719160E+03  0.39871719160E+03  0.00000000000E+00 0. -1.
          6    2    1    2  501    0 -0.25388432135E+02 -0.13308783530E+03 -0.26684522564E+03  0.34699155722E+03  0.17561270439E+03 0.  0.
         24    2    3    3    0    0 -0.19593030872E+02 -0.14282875398E+03 -0.13667302565E+03  0.21624231698E+03  0.85424141154E+02 0.  0.
         -6    2    1    2    0  502  0.25388432135E+02  0.13308783530E+03  0.39011367404E+02  0.22260896774E+03  0.17226700595E+03 0.  0.
        -24    2    5    5    0    0  0.30025052467E+02 -0.19895945570E+00  0.15432678278E+02  0.87091764086E+02  0.80282404375E+02 0.  0.
          5    1    3    3  501    0 -0.57954012631E+01  0.97409186734E+01 -0.13017220000E+03  0.13074924024E+03  0.47000000000E+01 0. -1.
        -13    1    4    4    0    0 -0.41732603080E+02 -0.28713640836E+02 -0.50620110649E+02  0.71613399109E+02  0.00000000000E+00 0.  1.
         14    1    4    4    0    0  0.22139572208E+02 -0.11411511314E+03 -0.86052914997E+02  0.14462891787E+03  0.00000000000E+00 0. -1.
         -5    1    5    5    0  502 -0.46366203325E+01  0.13328679476E+03  0.23578689126E+02  0.13551720365E+03  0.47000000000E+01 0.  1.
         13    1    6    6    0    0 -0.36349036002E+01 -0.39915055438E-01  0.43263530317E+02  0.43415978313E+02  0.00000000000E+00 0. -1.
        -14    1    6    6    0    0  0.33659956068E+02 -0.15904440026E+00 -0.27830852039E+02  0.43675785772E+02  0.00000000000E+00 0.  1.
</event>
