<event>
12    1  0.8271773E-002  0.2017025E+03  0.7818608E-02  0.1148406E+00
         21   -1    0    0  501  502  0.00000000000E+00  0.00000000000E+00  0.73205952710E+03  0.73205952710E+03  0.00000000000E+00 0. -1.
         21   -1    0    0  502  503 -0.00000000000E+00 -0.00000000000E+00 -0.70717962316E+02  0.70717962316E+02  0.00000000000E+00 0.  1.
         -6    2    1    2    0  503  0.10222783530E+03  0.22790963126E+02  0.14444966994E+03  0.24809191846E+03  0.17237730288E+03 0.  0.
        -24    2    3    3    0    0  0.59442964982E+02 -0.49708901037E+01  0.16245367998E+03  0.19380103525E+03  0.87232260593E+02 0.  0.
          6    2    1    2  501    0 -0.10222783530E+03 -0.22790963126E+02  0.51689189484E+03  0.55468557096E+03  0.17183973163E+03 0.  0.
         24    2    5    5    0    0 -0.51292493701E+02 -0.62536710435E+02  0.18984566743E+03  0.22128572346E+03  0.79901401114E+02 0.  0.
          5    1    5    5  501    0 -0.50935341595E+02  0.39745747309E+02  0.32704622741E+03  0.33339984750E+03  0.47000000000E+01 0. -1.
        -11    1    6    6    0    0 -0.64339112864E+02 -0.17646330850E+02  0.10464226782E+03  0.12410043775E+03  0.00000000000E+00 0.  1.
         12    1    6    6    0    0  0.13046619163E+02 -0.44890379585E+02  0.85203399618E+02  0.97185285704E+02  0.00000000000E+00 0. -1.
         -5    1    3    3    0  503  0.42784870314E+02  0.27761853230E+02 -0.18004010040E+02  0.54290883213E+02  0.47000000000E+01 0.  1.
         13    1    4    4    0    0  0.44736349106E+02  0.78819622539E+01  0.16756394872E+03  0.17361204788E+03  0.00000000000E+00 0. -1.
        -14    1    4    4    0    0  0.14706615876E+02 -0.12852852358E+02 -0.51102687335E+01  0.20188987364E+02  0.00000000000E+00 0.  1.
</event>
<event>
12    1  0.8271773E-002  0.1869472E+03  0.7818608E-02  0.1161322E+00
         21   -1    0    0  501  502  0.00000000000E+00  0.00000000000E+00  0.11604080021E+03  0.11604080021E+03  0.00000000000E+00 0.  1.
         21   -1    0    0  502  503 -0.00000000000E+00 -0.00000000000E+00 -0.35095634961E+03  0.35095634961E+03  0.00000000000E+00 0. -1.
         -6    2    1    2    0  503 -0.63591732218E+02  0.37117338250E+02 -0.20596388709E+03  0.27815534326E+03  0.17183616323E+03 0.  0.
        -24    2    3    3    0    0 -0.21875025065E+02  0.30037901894E+02 -0.36174742665E+02  0.10311007586E+03  0.89119489812E+02 0.  0.
          6    2    1    2  501    0  0.63591732218E+02 -0.37117338250E+02 -0.28951662306E+02  0.18884180656E+03  0.17146843427E+03 0.  0.
         24    2    5    5    0    0  0.10215386407E+03 -0.67423860049E+01  0.25212875603E+01  0.13034127400E+03  0.80632618112E+02 0.  0.
          5    1    5    5  501    0 -0.38562131853E+02 -0.30374952245E+02 -0.31472949866E+02  0.58500532564E+02  0.47000000000E+01 0. -1.
        -13    1    6    6    0    0  0.45274434107E+02 -0.34669340033E+02  0.26123327909E+02  0.62722928687E+02  0.00000000000E+00 0.  1.
         14    1    6    6    0    0  0.56879429964E+02  0.27926954029E+02 -0.23602040349E+02  0.67618345314E+02  0.00000000000E+00 0. -1.
         -5    1    3    3    0  503 -0.41716707153E+02  0.70794363556E+01 -0.16978914443E+03  0.17504526740E+03  0.47000000000E+01 0.  1.
         13    1    4    4    0    0  0.48005916354E+01  0.56349324971E+02 -0.33071320639E+02  0.65513390643E+02  0.00000000000E+00 0. -1.
        -14    1    4    4    0    0 -0.26675616701E+02 -0.26311423077E+02 -0.31034220256E+01  0.37596685212E+02  0.00000000000E+00 0.  1.
</event>
<event>
12    1  0.8271773E-002  0.2350305E+03  0.7818608E-02  0.1123162E+00
         21   -1    0    0  503  502  0.00000000000E+00  0.00000000000E+00  0.76531655242E+03  0.76531655242E+03  0.00000000000E+00 0.  1.
         21   -1    0    0  501  503 -0.00000000000E+00 -0.00000000000E+00 -0.95062083749E+02  0.95062083749E+02  0.00000000000E+00 0. -1.
          6    2    1    2  501    0  0.60236972657E+02 -0.14830860129E+03  0.12390477808E+03  0.26562042113E+03  0.17198220837E+03 0.  0.
         24    2    3    3    0    0  0.99845219087E+02 -0.14222471482E+03  0.11834924889E+03  0.22489228878E+03  0.79831444675E+02 0.  0.
         -6    2    1    2    0  502 -0.60236972657E+02  0.14830860129E+03  0.54634969059E+03  0.59475821504E+03  0.17209130095E+03 0.  0.
        -24    2    5    5    0    0 -0.79065766199E+02  0.12042562252E+03  0.53384610747E+03  0.55855858021E+03  0.79008196495E+02 0.  0.
          5    1    3    3  501    0 -0.39608246430E+02 -0.60838864674E+01  0.55555291939E+01  0.40728132347E+02  0.47000000000E+01 0. -1.
        -11    1    4    4    0    0  0.67216834259E+02 -0.28694086737E+02  0.46870564573E+02  0.86823402633E+02  0.00000000000E+00 0.  1.
         12    1    4    4    0    0  0.32628384828E+02 -0.11353062809E+03  0.71478684317E+02  0.13806888615E+03  0.00000000000E+00 0. -1.
         -5    1    5    5    0  502  0.18828793543E+02  0.27882978774E+02  0.12503583111E+02  0.36199634835E+02  0.47000000000E+01 0.  1.
         13    1    6    6    0    0  0.15018194524E+02  0.61011635328E+01  0.56163414131E+02  0.58455961630E+02  0.00000000000E+00 0. -1.
        -14    1    6    6    0    0 -0.94083960723E+02  0.11432445898E+03  0.47768269334E+03  0.50010261858E+03  0.00000000000E+00 0.  1.
</event>
<event>
12    1  0.8271773E-002  0.1933668E+03  0.7818608E-02  0.1155716E+00
         21   -1    0    0  503  502  0.00000000000E+00  0.00000000000E+00  0.45585519385E+03  0.45585519385E+03  0.00000000000E+00 0.  1.
         21   -1    0    0  501  503 -0.00000000000E+00 -0.00000000000E+00 -0.88192903293E+02  0.88192903293E+02  0.00000000000E+00 0.  1.
          6    2    1    2  501    0 -0.88294473363E+02 -0.20522266539E+01  0.25910627641E+03  0.32330601882E+03  0.17201916658E+03 0.  0.
         24    2    3    3    0    0 -0.11751114482E+03  0.29542904405E+02  0.16700272458E+03  0.22153657126E+03  0.80665296327E+02 0.  0.
         -6    2    1    2    0  502  0.88294473363E+02  0.20522266539E+01  0.10855601415E+03  0.22074207832E+03  0.17071183694E+03 0.  0.
        -24    2    5    5    0    0  0.17332250996E+02  0.57332995517E+00 -0.98468753453E+01  0.82614751627E+02  0.80171694509E+02 0.  0.
          5    1    3    3  501    0  0.29216671456E+02 -0.31595131059E+02  0.92103551834E+02  0.10176944757E+03  0.47000000000E+01 0. -1.
        -11    1    4    4    0    0 -0.68621337621E+02  0.34162586971E+02  0.15192222659E+03  0.17016560539E+03  0.00000000000E+00 0.  1.
         12    1    4    4    0    0 -0.48889807198E+02 -0.46196825664E+01  0.15080497988E+02  0.51370965870E+02  0.00000000000E+00 0. -1.
         -5    1    5    5    0  502  0.70962222367E+02  0.14788966988E+01  0.11840288949E+03  0.13812732669E+03  0.47000000000E+01 0.  1.
         11    1    6    6    0    0  0.18079931521E+02 -0.17851125043E+02  0.29637083984E+02  0.39037204513E+02  0.00000000000E+00 0. -1.
        -12    1    6    6    0    0 -0.74768052445E+00  0.18424454998E+02 -0.39483959330E+02  0.43577547114E+02  0.00000000000E+00 0.  1.
</event>
<event>
12    1  0.8271773E-002  0.2043747E+03  0.7818608E-02  0.1146561E+00
         21   -1    0    0  503  502  0.00000000000E+00  0.00000000000E+00  0.25803872504E+03  0.25803872504E+03  0.00000000000E+00 0. -1.
         21   -1    0    0  501  503 -0.00000000000E+00 -0.00000000000E+00 -0.16130335892E+03  0.16130335892E+03  0.00000000000E+00 0. -1.
          6    2    1    2  501    0  0.71714332953E+02 -0.78559549412E+02  0.30041338522E+02  0.20436040796E+03  0.17188992398E+03 0.  0.
         24    2    3    3    0    0  0.42626763285E+02 -0.85372243740E+01  0.71965949134E+02  0.11759073764E+03  0.82210453076E+02 0.  0.
         -6    2    1    2    0  502 -0.71714332953E+02  0.78559549412E+02  0.66694027597E+02  0.21498167600E+03  0.17451211805E+03 0.  0.
        -24    2    5    5    0    0 -0.10638813441E+03  0.96256283077E+02  0.66389474956E+02  0.17576905505E+03  0.76834179592E+02 0.  0.
          5    1    3    3  501    0  0.29087569667E+02 -0.70022325038E+02 -0.41924610612E+02  0.86769670322E+02  0.47000000000E+01 0. -1.
        -13    1    4    4    0    0 -0.41713597999E+01  0.12689436872E+02  0.64254519314E+02  0.65628235562E+02  0.00000000000E+00 0.  1.
         14    1    4    4    0    0  0.46798123085E+02 -0.21226661246E+02  0.77114298201E+01  0.51962502074E+02  0.00000000000E+00 0. -1.
         -5    1    5    5    0  502  0.34673801455E+02 -0.17696733666E+02  0.30455264105E+00  0.39212620954E+02  0.47000000000E+01 0.  1.
         13    1    6    6    0    0 -0.66772775007E+02  0.22687627337E+02  0.58889226528E+02  0.91876400220E+02  0.00000000000E+00 0. -1.
        -14    1    6    6    0    0 -0.39615359401E+02  0.73568655740E+02  0.75002484277E+01  0.83892654830E+02  0.00000000000E+00 0.  1.
</event>
<event>
12    1  0.8271773E-002  0.2119708E+03  0.7818608E-02  0.1140019E+00
         21   -1    0    0  503  502  0.00000000000E+00  0.00000000000E+00  0.43799330206E+03  0.43799330206E+03  0.00000000000E+00 0. -1.
         21   -1    0    0  501  503 -0.00000000000E+00 -0.00000000000E+00 -0.14089980642E+03  0.14089980642E+03  0.00000000000E+00 0.  1.
          6    2    1    2  501    0 -0.27537344159E+02  0.12238590219E+03  0.29949716736E+03  0.36690865915E+03  0.17084143680E+03 0.  0.
         24    2    3    3    0    0 -0.54628711789E+02  0.14635242840E+03  0.24173023857E+03  0.29858996010E+03  0.79492934179E+02 0.  0.
         -6    2    1    2    0  502  0.27537344159E+02 -0.12238590219E+03 -0.24036717138E+01  0.21198444932E+03  0.17086548726E+03 0.  0.
        -24    2    5    5    0    0  0.33730540641E+02 -0.40745833300E+02 -0.63806184812E+02  0.10953536369E+03  0.71615601482E+02 0.  0.
          5    1    3    3  501    0  0.27091367630E+02 -0.23966526205E+02  0.57766928790E+02  0.68318699052E+02  0.47000000000E+01 0. -1.
        -11    1    4    4    0    0 -0.24317787631E+02  0.34116022179E+02  0.16314384332E+02  0.44960170159E+02  0.00000000000E+00 0.  1.
         12    1    4    4    0    0 -0.30310924158E+02  0.11223640622E+03  0.22541585424E+03  0.25362978994E+03  0.00000000000E+00 0. -1.
         -5    1    5    5    0  502 -0.61931964824E+01 -0.81640068893E+02  0.61402513098E+02  0.10244908563E+03  0.47000000000E+01 0.  1.
         13    1    6    6    0    0 -0.93569117115E+01  0.60090264534E+00 -0.46393953172E+02  0.47331931839E+02  0.00000000000E+00 0. -1.
        -14    1    6    6    0    0  0.43087452353E+02 -0.41346735945E+02 -0.17412231640E+02  0.62203431853E+02  0.00000000000E+00 0.  1.
</event>
<event>
12    1  0.8271773E-002  0.1763374E+03  0.7818608E-02  0.1171836E+00
         21   -1    0    0  503  502  0.00000000000E+00  0.00000000000E+00  0.87441700949E+03  0.87441700949E+03  0.00000000000E+00 0.  1.
         21   -1    0    0  501  503 -0.00000000000E+00 -0.00000000000E+00 -0.40388771255E+02  0.40388771255E+02  0.00000000000E+00 0.  1.
          6    2    1    2  501    0  0.21146337024E+02 -0.18422166749E+02  0.58268592900E+03  0.60878385470E+03  0.17409292375E+03 0.  0.
         24    2    3    3    0    0 -0.19025108883E+02  0.49799845094E+02  0.28445088665E+03  0.30018343596E+03  0.79723327628E+02 0.  0.
         -6    2    1    2    0  502 -0.21146337024E+02  0.18422166749E+02  0.25134230924E+03  0.30602192604E+03  0.17230762899E+03 0.  0.
        -24    2    5    5    0    0 -0.65469349925E+02  0.53634066115E+02  0.15162606157E+03  0.19126205771E+03  0.80173956783E+02 0.  0.
          5    1    3    3  501    0  0.40171445907E+02 -0.68222011843E+02  0.29823504235E+03  0.30860041874E+03  0.47000000000E+01 0. -1.
        -11    1    4    4    0    0  0.20036740743E+02  0.42654582393E+02  0.21570317289E+03  0.22079117549E+03  0.00000000000E+00 0.  1.
         12    1    4    4    0    0 -0.39061849626E+02  0.71452627009E+01  0.68747713762E+02  0.79392260472E+02  0.00000000000E+00 0. -1.
         -5    1    5    5    0  502  0.44323012901E+02 -0.35211899367E+02  0.99716247670E+02  0.11475986833E+03  0.47000000000E+01 0.  1.
         11    1    6    6    0    0 -0.38723121816E+02 -0.40635129620E+01  0.10619031463E+03  0.11310338290E+03  0.00000000000E+00 0. -1.
        -12    1    6    6    0    0 -0.26746228109E+02  0.57697579077E+02  0.45435746934E+02  0.78158674815E+02  0.00000000000E+00 0.  1.
</event>
<event>
12    1  0.8271773E-002  0.2415501E+03  0.7818608E-02  0.1119579E+00
         21   -1    0    0  501  502  0.00000000000E+00  0.00000000000E+00  0.18469643377E+04  0.18469643377E+04  0.00000000000E+00 0.  1.
         21   -1    0    0  502  503 -0.00000000000E+00 -0.00000000000E+00 -0.38798504312E+03  0.38798504312E+03  0.00000000000E+00 0.  1.
         -6    2    1    2    0  503  0.50047352449E+02  0.15502111269E+03 -0.34188082082E+03  0.41860356945E+03  0.17835405755E+03 0.  0.
        -24    2    3    3    0    0 -0.83347609245E+01  0.44083771304E+02 -0.56874734283E+02  0.10720972841E+03  0.79033811328E+02 0.  0.
          6    2    1    2  501    0 -0.50047352449E+02 -0.15502111269E+03  0.18008601154E+04  0.18163458113E+04  0.17169353044E+03 0.  0.
         24    2    5    5    0    0 -0.25932285916E+02 -0.17761301302E+03  0.13583934797E+04  0.13726220864E+04  0.81484234976E+02 0.  0.
          5    1    5    5  501    0 -0.24115066534E+02  0.22591900325E+02  0.44246663565E+03  0.44372372492E+03  0.47000000000E+01 0. -1.
        -11    1    6    6    0    0 -0.32033312554E+01 -0.85435171806E+02  0.92548670421E+03  0.92942728041E+03  0.00000000000E+00 0.  1.
         12    1    6    6    0    0 -0.22728954660E+02 -0.92177841214E+02  0.43290677551E+03  0.44319480601E+03  0.00000000000E+00 0. -1.
         -5    1    3    3    0  503  0.58382113374E+02  0.11093734139E+03 -0.28500608654E+03  0.31139384104E+03  0.47000000000E+01 0.  1.
         13    1    4    4    0    0 -0.19024467813E+02 -0.83826113386E+01 -0.48821091760E+02  0.53063146807E+02  0.00000000000E+00 0. -1.
        -14    1    4    4    0    0  0.10689706889E+02  0.52466382643E+02 -0.80536425234E+01  0.54146581599E+02  0.00000000000E+00 0.  1.
</event>
<event>
12    1  0.8271773E-002  0.1949893E+03  0.7818608E-02  0.1155039E+00
         21   -1    0    0  501  502  0.00000000000E+00  0.00000000000E+00  0.76168524010E+03  0.76168524010E+03  0.00000000000E+00 0.  1.
         21   -1    0    0  502  503 -0.00000000000E+00 -0.00000000000E+00 -0.49262228992E+02  0.49262228992E+02  0.00000000000E+00 0.  1.
         -6    2    1    2    0  503  0.78995123046E+02 -0.17932181151E+02  0.31948013094E+03  0.37428380703E+03  0.17736691222E+03 0.  0.
        -24    2    3    3    0    0  0.16586097348E+02  0.29413275487E+02  0.67675200030E+02  0.11053337199E+03  0.80606787702E+02 0.  0.
          6    2    1    2  501    0 -0.78995123046E+02  0.17932181151E+02  0.39294288017E+03  0.43666366207E+03  0.17236372620E+03 0.  0.
         24    2    5    5    0    0 -0.52483235930E+02 -0.50348005643E+02  0.29172307223E+03  0.31163325142E+03  0.81997077960E+02 0.  0.
          5    1    5    5  501    0 -0.26511887116E+02  0.68280186794E+02  0.10121980794E+03  0.12503041065E+03  0.47000000000E+01 0. -1.
        -11    1    6    6    0    0 -0.59960839426E+01 -0.48618685340E+02  0.72297660427E+02  0.87330872491E+02  0.00000000000E+00 0.  1.
         12    1    6    6    0    0 -0.46487151987E+02 -0.17293203028E+01  0.21942541180E+03  0.22430237893E+03  0.00000000000E+00 0. -1.
         -5    1    3    3    0  503  0.62409025697E+02 -0.47345456639E+02  0.25180493091E+03  0.26375043504E+03  0.47000000000E+01 0.  1.
         13    1    4    4    0    0  0.37852107123E+02  0.52751482935E+01  0.30444236555E+01  0.38338984318E+02  0.00000000000E+00 0. -1.
        -14    1    4    4    0    0 -0.21266009774E+02  0.24138127194E+02  0.64630776374E+02  0.72194387669E+02  0.00000000000E+00 0.  1.
</event>
<event>
12    1  0.8271773E-002  0.2062206E+03  0.7818608E-02  0.1144756E+00
         21   -1    0    0  503  502  0.00000000000E+00  0.00000000000E+00  0.29442862255E+03  0.29442862255E+03  0.00000000000E+00 0. -1.
         21   -1    0    0  501  503 -0.00000000000E+00 -0.00000000000E+00 -0.19723355085E+03  0.19723355085E+03  0.00000000000E+00 0. -1.
          6    2    1    2  501    0 -0.72713932760E+02 -0.84376111511E+02 -0.79189042749E+02  0.22090231150E+03  0.17355195915E+03 0.  0.
         24    2    3    3    0    0 -0.90901986928E+02 -0.14458679401E+02 -0.14085492603E+02  0.12353797065E+03  0.81185001405E+02 0.  0.
         -6    2    1    2    0  502  0.72713932760E+02  0.84376111511E+02  0.17638411445E+03  0.27075986190E+03  0.17260620724E+03 0.  0.
        -24    2    5    5    0    0  0.90047279394E+02  0.11094819109E+03  0.17308673650E+03  0.23851884734E+03  0.80710647070E+02 0.  0.
          5    1    3    3  501    0  0.18188054168E+02 -0.69917432110E+02 -0.65103550146E+02  0.97364340849E+02  0.47000000000E+01 0. -1.
        -11    1    4    4    0    0 -0.75201351341E+01  0.20279484170E+02  0.17525284341E+02  0.27837842982E+02  0.00000000000E+00 0.  1.
         12    1    4    4    0    0 -0.83381851794E+02 -0.34738163571E+02 -0.31610776944E+02  0.95700127669E+02  0.00000000000E+00 0. -1.
         -5    1    5    5    0  502 -0.17333346634E+02 -0.26572079581E+02  0.32973779497E+01  0.32241014565E+02  0.47000000000E+01 0.  1.
         13    1    6    6    0    0  0.39703342326E+02  0.10599149537E+03  0.11239949764E+03  0.15951238056E+03  0.00000000000E+00 0. -1.
        -14    1    6    6    0    0  0.50343937068E+02  0.49566957207E+01  0.60687238859E+02  0.79006466775E+02  0.00000000000E+00 0.  1.
</event>
<event>
12    1  0.8271773E-002  0.2442895E+03  0.7818608E-02  0.1117468E+00
         21   -1    0    0  501  502  0.00000000000E+00  0.00000000000E+00  0.18317919513E+03  0.18317919513E+03  0.00000000000E+00 0. -1.
         21   -1    0    0  502  503 -0.00000000000E+00 -0.00000000000E+00 -0.32172779549E+03  0.32172779549E+03  0.00000000000E+00 0. -1.
         -6    2    1    2    0  503  0.15701444607E+03 -0.73671565723E+02 -0.69821861701E+02  0.25407170042E+03  0.17203575416E+03 0.  0.
        -24    2    3    3    0    0  0.17867784606E+03 -0.49562824777E+02 -0.83941771792E+02  0.21840664539E+03  0.79202243817E+02 0.  0.
          6    2    1    2  501    0 -0.15701444607E+03  0.73671565723E+02 -0.68726738661E+02  0.25083529021E+03  0.16767212748E+03 0.  0.
         24    2    5    5    0    0 -0.39773495356E+02  0.29995009264E+02 -0.82844234947E+02  0.12484133872E+03  0.78997221954E+02 0.  0.
          5    1    5    5  501    0 -0.11724095072E+03  0.43676556459E+02  0.14117496286E+02  0.12599395148E+03  0.47000000000E+01 0. -1.
        -13    1    6    6    0    0 -0.54293112879E+02 -0.57530055066E+01 -0.52643790682E+02  0.75843311346E+02  0.00000000000E+00 0.  1.
         14    1    6    6    0    0  0.14519617523E+02  0.35748014771E+02 -0.30200444265E+02  0.48998027377E+02  0.00000000000E+00 0. -1.
         -5    1    3    3    0  503 -0.21663399990E+02 -0.24108740946E+02  0.14119910091E+02  0.35665055027E+02  0.47000000000E+01 0.  1.
         13    1    4    4    0    0  0.95410816788E+02 -0.61476731744E+02 -0.26513994357E+02  0.11655730094E+03  0.00000000000E+00 0. -1.
        -14    1    4    4    0    0  0.83267029273E+02  0.11913906967E+02 -0.57427777435E+02  0.10184934445E+03  0.00000000000E+00 0.  1.
</event>
<event>
12    1  0.8271773E-002  0.1975169E+03  0.7818608E-02  0.1152097E+00
         21   -1    0    0  501  502  0.00000000000E+00  0.00000000000E+00  0.14457329911E+03  0.14457329911E+03  0.00000000000E+00 0. -1.
         21   -1    0    0  502  503 -0.00000000000E+00 -0.00000000000E+00 -0.28618982089E+03  0.28618982089E+03  0.00000000000E+00 0. -1.
         -6    2    1    2    0  503 -0.95972075317E+02 -0.46927856149E+01 -0.16751255700E+02  0.19708757238E+03  0.17126075191E+03 0.  0.
        -24    2    3    3    0    0  0.10543105877E+02  0.79842550993E+01 -0.34976890519E+02  0.88181856508E+02  0.79860826040E+02 0.  0.
          6    2    1    2  501    0  0.95972075317E+02  0.46927856149E+01 -0.12486526608E+03  0.23367554761E+03  0.17256959582E+03 0.  0.
         24    2    5    5    0    0  0.12570033193E+03 -0.13381123561E+02 -0.60234371798E+02  0.16012503484E+03  0.77667363297E+02 0.  0.
          5    1    5    5  501    0 -0.29728256608E+02  0.18073909176E+02 -0.64630894282E+02  0.73550512776E+02  0.47000000000E+01 0. -1.
        -11    1    6    6    0    0  0.50347735742E+02 -0.58846431698E+01  0.15520095071E+02  0.53013176387E+02  0.00000000000E+00 0.  1.
         12    1    6    6    0    0  0.75352596184E+02 -0.74964803916E+01 -0.75754466869E+02  0.10711185845E+03  0.00000000000E+00 0. -1.
         -5    1    3    3    0  503 -0.10651518119E+03 -0.12677040714E+02  0.18225634819E+02  0.10890571588E+03  0.47000000000E+01 0.  1.
         13    1    4    4    0    0 -0.30700783309E+02  0.41776259205E+01  0.40811932104E+01  0.31251348645E+02  0.00000000000E+00 0. -1.
        -14    1    4    4    0    0  0.41243889186E+02  0.38066291788E+01 -0.39058083730E+02  0.56930507863E+02  0.00000000000E+00 0.  1.
</event>
<event>
12    1  0.8271773E-002  0.2191092E+03  0.7818608E-02  0.1135202E+00
         21   -1    0    0  501  502  0.00000000000E+00  0.00000000000E+00  0.38843247621E+03  0.38843247621E+03  0.00000000000E+00 0. -1.
         21   -1    0    0  502  503 -0.00000000000E+00 -0.00000000000E+00 -0.13084720191E+03  0.13084720191E+03  0.00000000000E+00 0. -1.
         -6    2    1    2    0  503 -0.95436281386E+02  0.96069822812E+02  0.60925508544E+02  0.22742200271E+03  0.17225375197E+03 0.  0.
        -24    2    3    3    0    0 -0.90574275671E+01 -0.29670312285E+01  0.48321740027E+02  0.95321473470E+02  0.81610982575E+02 0.  0.
          6    2    1    2  501    0  0.95436281386E+02 -0.96069822812E+02  0.19665976575E+03  0.29185767541E+03  0.16783427710E+03 0.  0.
         24    2    5    5    0    0  0.72063393355E+01 -0.27133344935E+02  0.14258002942E+03  0.16742508909E+03  0.83150140916E+02 0.  0.
          5    1    5    5  501    0  0.88229942051E+02 -0.68936477877E+02  0.54079736335E+02  0.12443258632E+03  0.47000000000E+01 0. -1.
        -13    1    6    6    0    0 -0.86943736185E-01 -0.52055073708E+01 -0.10971666021E+02  0.12144229966E+02  0.00000000000E+00 0.  1.
         14    1    6    6    0    0  0.72932830717E+01 -0.21927837564E+02  0.15355169544E+03  0.15528085913E+03  0.00000000000E+00 0. -1.
         -5    1    3    3    0  503 -0.86378853819E+02  0.99036854041E+02  0.12603768516E+02  0.13210052924E+03  0.47000000000E+01 0.  1.
         13    1    4    4    0    0 -0.14459178179E+02  0.37890298770E+02  0.19287062905E+02  0.44908054623E+02  0.00000000000E+00 0. -1.
        -14    1    4    4    0    0  0.54017506118E+01 -0.40857329999E+02  0.29034677122E+02  0.50413418847E+02  0.00000000000E+00 0.  1.
</event>
<event>
12    1  0.8271773E-002  0.2401670E+03  0.7818608E-02  0.1119796E+00
         21   -1    0    0  503  502  0.00000000000E+00  0.00000000000E+00  0.15048810098E+03  0.15048810098E+03  0.00000000000E+00 0. -1.
         21   -1    0    0  501  503 -0.00000000000E+00 -0.00000000000E+00 -0.45298340342E+03  0.45298340342E+03  0.00000000000E+00 0. -1.
          6    2    1    2  501    0  0.55612374140E+02  0.15659843130E+03 -0.27034697495E+03  0.36116238871E+03  0.17243833481E+03 0.  0.
         24    2    3    3    0    0  0.14204305995E+02  0.13736826106E+02 -0.14300070254E+03  0.16529705374E+03  0.80519887902E+02 0.  0.
         -6    2    1    2    0  502 -0.55612374140E+02 -0.15659843130E+03 -0.32148327494E+02  0.24230911569E+03  0.17339085253E+03 0.  0.
        -24    2    5    5    0    0 -0.86047153179E+02 -0.99866193377E+02 -0.66377883825E+02  0.16924356210E+03  0.82825060827E+02 0.  0.
          5    1    3    3  501    0  0.41408068145E+02  0.14286160519E+03 -0.12734627240E+03  0.19586533496E+03  0.47000000000E+01 0. -1.
        -13    1    4    4    0    0  0.10854142393E+02  0.96775375305E+01  0.63398232036E+01  0.15863810954E+02  0.00000000000E+00 0.  1.
         14    1    4    4    0    0  0.33501636026E+01  0.40592885760E+01 -0.14934052575E+03  0.14943324279E+03  0.00000000000E+00 0. -1.
         -5    1    5    5    0  502  0.30434779040E+02 -0.56732237923E+02  0.34229556331E+02  0.73065553591E+02  0.47000000000E+01 0.  1.
         11    1    6    6    0    0 -0.82207627784E+02 -0.11320204260E+03 -0.67471662098E+02  0.15532295935E+03  0.00000000000E+00 0. -1.
        -12    1    6    6    0    0 -0.38395253957E+01  0.13335849228E+02  0.10937782736E+01  0.13920602746E+02  0.00000000000E+00 0.  1.
</event>
<event>
12    1  0.8271773E-002  0.2034479E+03  0.7818608E-02  0.1147107E+00
         21   -1    0    0  503  502  0.00000000000E+00  0.00000000000E+00  0.14302075506E+03  0.14302075506E+03  0.00000000000E+00 0.  1.
         21   -1    0    0  501  503 -0.00000000000E+00 -0.00000000000E+00 -0.13065943642E+04  0.13065943642E+04  0.00000000000E+00 0. -1.
          6    2    1    2  501    0 -0.95480542202E+02 -0.45579764354E+02 -0.12214589083E+04  0.12380926771E+04  0.17238782896E+03 0.  0.
         24    2    3    3    0    0 -0.63994936714E+01  0.25624960878E+02 -0.64717028402E+03  0.65257149040E+03  0.79514661683E+02 0.  0.
         -6    2    1    2    0  502  0.95480542202E+02  0.45579764354E+02  0.57885299148E+02  0.21152244218E+03  0.17377280233E+03 0.  0.
        -24    2    5    5    0    0  0.78607678461E+02 -0.35924820962E+02  0.41276572103E+02  0.12651873183E+03  0.82664830644E+02 0.  0.
          5    1    3    3  501    0 -0.89081048530E+02 -0.71204725232E+02 -0.57428862429E+03  0.58552118671E+03  0.47000000000E+01 0. -1.
        -11    1    4    4    0    0  0.14554943317E+02 -0.17359749022E+02 -0.73511275563E+02  0.76922785284E+02  0.00000000000E+00 0.  1.
         12    1    4    4    0    0 -0.20954436988E+02  0.42984709900E+02 -0.57365900846E+03  0.57564870512E+03  0.00000000000E+00 0. -1.
         -5    1    5    5    0  502  0.16872863741E+02  0.81504585317E+02  0.16608727045E+02  0.85003710346E+02  0.47000000000E+01 0.  1.
         11    1    6    6    0    0 -0.89031005681E+01 -0.27736000260E+02  0.22083425293E+02  0.36554460505E+02  0.00000000000E+00 0. -1.
        -12    1    6    6    0    0  0.87510779029E+02 -0.81888207026E+01  0.19193146811E+02  0.89964271327E+02  0.00000000000E+00 0.  1.
</event>
<event>
12    1  0.8271773E-002  0.1776234E+03  0.7818608E-02  0.1170671E+00
         21   -1    0    0  501  502  0.00000000000E+00  0.00000000000E+00  0.90792139899E+02  0.90792139899E+02  0.00000000000E+00 0.  1.
         21   -1    0    0  502  503 -0.00000000000E+00 -0.00000000000E+00 -0.68147030731E+03  0.68147030731E+03  0.00000000000E+00 0.  1.
         -6    2    1    2    0  503 -0.30116371344E+02 -0.10810087517E+02 -0.56831901182E+03  0.59542973838E+03  0.17471754444E+03 0.  0.
        -24    2    3    3    0    0 -0.37765232655E+02  0.56995555029E+02 -0.24827730997E+03  0.26816090216E+03  0.74792651432E+02 0.  0.
          6    2    1    2  501    0  0.30116371344E+02  0.10810087517E+02 -0.22359155586E+02  0.17683270883E+03  0.17247034892E+03 0.  0.
         24    2    5    5    0    0 -0.47649716238E+02  0.28044246669E+01 -0.38748286205E+02  0.96818031311E+02  0.74792655040E+02 0.  0.
          5    1    5    5  501    0  0.77766087582E+02  0.80056628501E+01  0.16389130619E+02  0.80014677515E+02  0.47000000000E+01 0. -1.
        -11    1    6    6    0    0 -0.63396905642E+02  0.27443080620E+01 -0.10278488907E+02  0.64283327589E+02  0.00000000000E+00 0.  1.
         12    1    6    6    0    0  0.15747189404E+02  0.60116604944E-01 -0.28469797298E+02  0.32534703722E+02  0.00000000000E+00 0. -1.
         -5    1    3    3    0  503  0.76488613107E+01 -0.67805642546E+02 -0.32004170185E+03  0.32726883622E+03  0.47000000000E+01 0.  1.
         11    1    4    4    0    0 -0.25239967081E+02  0.88661831914E+01 -0.17226830649E+02  0.31818686913E+02  0.00000000000E+00 0. -1.
        -12    1    4    4    0    0 -0.12525265573E+02  0.48129371838E+02 -0.23105047932E+03  0.23634221524E+03  0.00000000000E+00 0.  1.
</event>
<event>
12    1  0.8271773E-002  0.1913418E+03  0.7818608E-02  0.1157547E+00
         21   -1    0    0  501  502  0.00000000000E+00  0.00000000000E+00  0.17027275546E+03  0.17027275546E+03  0.00000000000E+00 0. -1.
         21   -1    0    0  502  503 -0.00000000000E+00 -0.00000000000E+00 -0.28509123068E+03  0.28509123068E+03  0.00000000000E+00 0. -1.
         -6    2    1    2    0  503  0.71123891921E+02  0.38207069278E+02 -0.17159550844E+03  0.25701494958E+03  0.17347414115E+03 0.  0.
        -24    2    3    3    0    0  0.85864078949E+02  0.66216495095E+02 -0.17912151451E+03  0.22414350581E+03  0.79990811734E+02 0.  0.
          6    2    1    2  501    0 -0.71123891921E+02 -0.38207069278E+02  0.56777033228E+02  0.19834903656E+03  0.17204743723E+03 0.  0.
         24    2    5    5    0    0  0.58560164295E+01  0.26902447375E+02  0.25207214291E+02  0.92595081947E+02  0.84737305511E+02 0.  0.
          5    1    5    5  501    0 -0.76979908351E+02 -0.65109516652E+02  0.31569818937E+02  0.10575395461E+03  0.47000000000E+01 0. -1.
        -13    1    6    6    0    0  0.21836418912E+02  0.33944838553E+02  0.48745092912E+02  0.63286375613E+02  0.00000000000E+00 0.  1.
         14    1    6    6    0    0 -0.15980402482E+02 -0.70423911781E+01 -0.23537878621E+02  0.29308706334E+02  0.00000000000E+00 0. -1.
         -5    1    3    3    0  503 -0.14740187028E+02 -0.28009425817E+02  0.75260060659E+01  0.32871443770E+02  0.47000000000E+01 0.  1.
         11    1    4    4    0    0  0.30097520739E+02  0.13701616678E+02 -0.12762975029E+03  0.13184440911E+03  0.00000000000E+00 0. -1.
        -12    1    4    4    0    0  0.55766558211E+02  0.52514878417E+02 -0.51491764216E+02  0.92299096701E+02  0.00000000000E+00 0.  1.
</event>
<event>
12    1  0.8271773E-002  0.1786226E+03  0.7818608E-02  0.1169345E+00
         21   -1    0    0  501  502  0.00000000000E+00  0.00000000000E+00  0.50407104451E+02  0.50407104451E+02  0.00000000000E+00 0. -1.
         21   -1    0    0  502  503 -0.00000000000E+00 -0.00000000000E+00 -0.99474423912E+03  0.99474423912E+03  0.00000000000E+00 0. -1.
         -6    2    1    2    0  503 -0.13011378558E+00  0.46971154809E+02 -0.15506337808E+03  0.23591770298E+03  0.17148237532E+03 0.  0.
        -24    2    3    3    0    0  0.45408186928E+02  0.31494706829E+02 -0.16017786383E+03  0.18732238183E+03  0.79868057904E+02 0.  0.
          6    2    1    2  501    0  0.13011378558E+00 -0.46971154809E+02 -0.78927375659E+03  0.80923364059E+03  0.17233605517E+03 0.  0.
         24    2    5    5    0    0 -0.59363500976E+02  0.47239494242E+01 -0.46620242174E+03  0.47665424947E+03  0.79424395199E+02 0.  0.
          5    1    5    5  501    0  0.59493614761E+02 -0.51695104233E+02 -0.32307133485E+03  0.33257939112E+03  0.47000000000E+01 0. -1.
        -13    1    6    6    0    0 -0.23668812911E+02  0.39374133026E+02 -0.28789040459E+03  0.29153287998E+03  0.00000000000E+00 0.  1.
         14    1    6    6    0    0 -0.35694688065E+02 -0.34650183602E+02 -0.17831201715E+03  0.18512136948E+03  0.00000000000E+00 0. -1.
         -5    1    3    3    0  503 -0.45538300713E+02  0.15476447980E+02  0.51144857470E+01  0.48595321157E+02  0.47000000000E+01 0.  1.
         13    1    4    4    0    0  0.58770153231E+02  0.43751131266E+00 -0.72357806223E+02  0.93218959705E+02  0.00000000000E+00 0. -1.
        -14    1    4    4    0    0 -0.13361966304E+02  0.31057195517E+02 -0.87820057606E+02  0.94103422121E+02  0.00000000000E+00 0.  1.
</event>
<event>
12    1  0.8271773E-002  0.1880498E+03  0.7818608E-02  0.1162356E+00
         21   -1    0    0  503  502  0.00000000000E+00  0.00000000000E+00  0.23597416326E+03  0.23597416326E+03  0.00000000000E+00 0. -1.
         21   -1    0    0  501  503 -0.00000000000E+00 -0.00000000000E+00 -0.38468851898E+03  0.38468851898E+03  0.00000000000E+00 0. -1.
          6    2    1    2  501    0  0.18166038104E+02 -0.44470133261E+02 -0.32112482728E+03  0.37213423564E+03  0.18181071735E+03 0.  0.
         24    2    3    3    0    0  0.16993847144E+02 -0.98944433483E+02 -0.18261674328E+03  0.22322015722E+03  0.79997324369E+02 0.  0.
         -6    2    1    2    0  502 -0.18166038104E+02  0.44470133261E+02  0.17241047157E+03  0.24852844660E+03  0.17243381447E+03 0.  0.
        -24    2    5    5    0    0  0.27103498396E+02  0.73151839134E+02  0.15584136337E+03  0.19223815851E+03  0.81136846488E+02 0.  0.
          5    1    3    3  501    0  0.11721909599E+01  0.54474300222E+02 -0.13850808400E+03  0.14891407842E+03  0.47000000000E+01 0. -1.
        -11    1    4    4    0    0 -0.11118995685E+02 -0.93164603306E+01  0.33396341220E+01  0.14885619040E+02  0.00000000000E+00 0.  1.
         12    1    4    4    0    0  0.28112842828E+02 -0.89627973153E+02 -0.18595637740E+03  0.20833453818E+03  0.00000000000E+00 0. -1.
         -5    1    5    5    0  502 -0.45269536500E+02 -0.28681705873E+02  0.16569108199E+02  0.56290288090E+02  0.47000000000E+01 0.  1.
         13    1    6    6    0    0  0.19519757103E+02  0.73134086086E+02  0.16428763187E+03  0.18088681944E+03  0.00000000000E+00 0. -1.
        -14    1    6    6    0    0  0.75837412929E+01  0.17753047847E-01 -0.84462684955E+01  0.11351339069E+02  0.00000000000E+00 0.  1.
</event>
<event>
12    1  0.8271773E-002  0.1979957E+03  0.7818608E-02  0.1151633E+00
         21   -1    0    0  501  502  0.00000000000E+00  0.00000000000E+00  0.13359870409E+03  0.13359870409E+03  0.00000000000E+00 0.  1.
         21   -1    0    0  502  503 -0.00000000000E+00 -0.00000000000E+00 -0.32696996420E+03  0.32696996420E+03  0.00000000000E+00 0.  1.
         -6    2    1    2    0  503 -0.49543729966E+01 -0.95984991102E+02 -0.21291839339E+02  0.19824518612E+03  0.17207599213E+03 0.  0.
        -24    2    3    3    0    0 -0.66072056080E+02 -0.39370819415E+02 -0.34960236084E+02  0.11369076169E+03  0.76077547079E+02 0.  0.
          6    2    1    2  501    0  0.49543729966E+01  0.95984991102E+02 -0.17207942078E+03  0.26232348217E+03  0.17310291134E+03 0.  0.
         24    2    5    5    0    0 -0.51798171405E+02  0.36079726209E+02 -0.44238696703E+02  0.11009065789E+03  0.78600849002E+02 0.  0.
          5    1    5    5  501    0  0.56752544402E+02  0.59905264893E+02 -0.12784072407E+03  0.15223282428E+03  0.47000000000E+01 0. -1.
        -11    1    6    6    0    0  0.19061900497E+02  0.17272293920E+02 -0.27968875952E+01  0.25874906145E+02  0.00000000000E+00 0.  1.
         12    1    6    6    0    0 -0.70860071902E+02  0.18807432289E+02 -0.41441809108E+02  0.84215751742E+02  0.00000000000E+00 0. -1.
         -5    1    3    3    0  503  0.61117683084E+02 -0.56614171688E+02  0.13668396744E+02  0.84554424431E+02  0.47000000000E+01 0.  1.
         11    1    4    4    0    0 -0.71821425213E+02 -0.48241074613E+02 -0.10637533528E+02  0.87170382120E+02  0.00000000000E+00 0. -1.
        -12    1    4    4    0    0  0.57493691328E+01  0.88702551978E+01 -0.24322702555E+02  0.26520379565E+02  0.00000000000E+00 0.  1.
</event>
<event>
12    1  0.8271773E-002  0.1776714E+03  0.7818608E-02  0.1170381E+00
         21   -1    0    0  501  502  0.00000000000E+00  0.00000000000E+00  0.80346476876E+02  0.80346476876E+02  0.00000000000E+00 0. -1.
         21   -1    0    0  502  503 -0.00000000000E+00 -0.00000000000E+00 -0.51980890565E+03  0.51980890565E+03  0.00000000000E+00 0. -1.
         -6    2    1    2    0  503  0.16754683378E+02  0.35994183557E+02 -0.36901983194E+03  0.40902901771E+03  0.17190927927E+03 0.  0.
        -24    2    3    3    0    0 -0.32631620407E+02  0.73205147322E+02 -0.26566999209E+03  0.28850125235E+03  0.78921553875E+02 0.  0.
          6    2    1    2  501    0 -0.16754683378E+02 -0.35994183557E+02 -0.70442596835E+02  0.19112636482E+03  0.17317859918E+03 0.  0.
         24    2    5    5    0    0 -0.69543490067E+02 -0.17774428217E+02 -0.77137599703E+02  0.13468585933E+03  0.83891859591E+02 0.  0.
          5    1    5    5  501    0  0.52788806689E+02 -0.18219755340E+02  0.66950028679E+01  0.56440505488E+02  0.47000000000E+01 0. -1.
        -11    1    6    6    0    0 -0.17619293266E+02  0.29328770512E+02 -0.47578558507E+02  0.58603203876E+02  0.00000000000E+00 0.  1.
         12    1    6    6    0    0 -0.51924196802E+02 -0.47103198730E+02 -0.29559041196E+02  0.76082655451E+02  0.00000000000E+00 0. -1.
         -5    1    3    3    0  503  0.49386303785E+02 -0.37210963765E+02 -0.10334983985E+03  0.12052776536E+03  0.47000000000E+01 0.  1.
         13    1    4    4    0    0  0.19185034212E+02  0.26915117472E+02 -0.14973481495E+03  0.15333950533E+03  0.00000000000E+00 0. -1.
        -14    1    4    4    0    0 -0.51816654619E+02  0.46290029850E+02 -0.11593517713E+03  0.13516174701E+03  0.00000000000E+00 0.  1.
</event>
<event>
12    1  0.8271773E-002  0.1839402E+03  0.7818608E-02  0.1164197E+00
         21   -1    0    0  503  502  0.00000000000E+00  0.00000000000E+00  0.96169242210E+03  0.96169242210E+03  0.00000000000E+00 0.  1.
         21   -1    0    0  501  503 -0.00000000000E+00 -0.00000000000E+00 -0.35784200400E+02  0.35784200400E+02  0.00000000000E+00 0.  1.
          6    2    1    2  501    0  0.64778463343E+02  0.78880027501E+01  0.39266340115E+03  0.43361103597E+03  0.17197532965E+03 0.  0.
         24    2    3    3    0    0  0.83119041619E+02  0.40641872421E+02  0.36961835329E+03  0.38931253689E+03  0.79912373338E+02 0.  0.
         -6    2    1    2    0  502 -0.64778463343E+02 -0.78880027501E+01  0.53324482055E+03  0.56386558654E+03  0.17127723472E+03 0.  0.
        -24    2    5    5    0    0  0.26285688617E+01  0.15200466128E+02  0.43481605829E+03  0.44226338003E+03  0.79334287839E+02 0.  0.
          5    1    3    3  501    0 -0.18340578276E+02 -0.32753869671E+02  0.23045047858E+02  0.44298499080E+02  0.47000000000E+01 0. -1.
        -11    1    4    4    0    0  0.18714099034E+02 -0.18237529542E+01  0.95810072974E+01  0.21103063245E+02  0.00000000000E+00 0.  1.
         12    1    4    4    0    0  0.64404942585E+02  0.42465625376E+02  0.36003734599E+03  0.36820947364E+03  0.00000000000E+00 0. -1.
         -5    1    5    5    0  502 -0.67407032205E+02 -0.23088468878E+02  0.98428762261E+02  0.12160220650E+03  0.47000000000E+01 0.  1.
         11    1    6    6    0    0 -0.98665802745E+01  0.41941975506E+02  0.34596703923E+03  0.34863974379E+03  0.00000000000E+00 0. -1.
        -12    1    6    6    0    0  0.12495149136E+02 -0.26741509377E+02  0.88849019061E+02  0.93623636245E+02  0.00000000000E+00 0.  1.
</event>
<event>
12    1  0.8271773E-002  0.2457515E+03  0.7818608E-02  0.1116101E+00
         21   -1    0    0  503  502  0.00000000000E+00  0.00000000000E+00  0.10772674214E+04  0.10772674214E+04  0.00000000000E+00 0.  1.
         21   -1    0    0  501  503 -0.00000000000E+00 -0.00000000000E+00 -0.59867561654E+02  0.59867561654E+02  0.00000000000E+00 0.  1.
          6    2    1    2  501    0 -0.13006190083E+03  0.11636466864E+03  0.36369784362E+03  0.43894181746E+03  0.17302301437E+03 0.  0.
         24    2    3    3    0    0 -0.56830768421E+02 -0.65661585468E+01  0.19789578454E+03  0.21988200868E+03  0.76892818414E+02 0.  0.
         -6    2    1    2    0  502  0.13006190083E+03 -0.11636466864E+03  0.65370201609E+03  0.69819316556E+03  0.17230942064E+03 0.  0.
        -24    2    5    5    0    0  0.17118030296E+02 -0.10053458914E+03  0.35237451395E+03  0.37597078450E+03  0.82377194318E+02 0.  0.
          5    1    3    3  501    0 -0.73231132414E+02  0.12293082719E+03  0.16580205908E+03  0.21905980878E+03  0.47000000000E+01 0. -1.
        -11    1    4    4    0    0 -0.75960233106E+02 -0.13885525299E+01  0.15975896854E+03  0.17690340053E+03  0.00000000000E+00 0.  1.
         12    1    4    4    0    0  0.19129464686E+02 -0.51776060169E+01  0.38136816004E+02  0.42978608146E+02  0.00000000000E+00 0. -1.
         -5    1    5    5    0  502  0.11294387054E+03 -0.15830079504E+02  0.30132750215E+03  0.32222238106E+03  0.47000000000E+01 0.  1.
         13    1    6    6    0    0 -0.33638087389E+01 -0.72521308098E+02  0.32126393687E+03  0.32936480150E+03  0.00000000000E+00 0. -1.
        -14    1    6    6    0    0  0.20481839035E+02 -0.28013281040E+02  0.31110577080E+02  0.46605982998E+02  0.00000000000E+00 0.  1.
</event>
<event>
12    1  0.8271773E-002  0.2370269E+03  0.7818608E-02  0.1122346E+00
         21   -1    0    0  503  502  0.00000000000E+00  0.00000000000E+00  0.27191944403E+03  0.27191944403E+03  0.00000000000E+00 0.  1.
         21   -1    0    0  501  503 -0.00000000000E+00 -0.00000000000E+00 -0.28563748268E+03  0.28563748268E+03  0.00000000000E+00 0. -1.
          6    2    1    2  501    0 -0.10859739081E+02  0.15748023245E+03 -0.15606234006E+03  0.28107250145E+03  0.17241908115E+03 0.  0.
         24    2    3    3    0    0 -0.15414081020E+01  0.76694662802E+02 -0.16648142367E+03  0.19895193850E+03  0.77339266659E+02 0.  0.
         -6    2    1    2    0  502  0.10859739081E+02 -0.15748023245E+03  0.14234430141E+03  0.27648442526E+03  0.17681566594E+03 0.  0.
        -24    2    5    5    0    0 -0.67868776676E+01 -0.97411954701E+02  0.47746933942E+01  0.12526574875E+03  0.78317044673E+02 0.  0.
          5    1    3    3  501    0 -0.93183309794E+01  0.80785569652E+02  0.10419083608E+02  0.82120562951E+02  0.47000000000E+01 0. -1.
        -13    1    4    4    0    0  0.25311293293E+02 -0.40002239752E+00 -0.24827941700E+02  0.35457696981E+02  0.00000000000E+00 0.  1.
         14    1    4    4    0    0 -0.26852701395E+02  0.77094685199E+02 -0.14165348197E+03  0.16349424152E+03  0.00000000000E+00 0. -1.
         -5    1    5    5    0  502  0.17646616749E+02 -0.60068277753E+02  0.13756960802E+03  0.15121867651E+03  0.47000000000E+01 0.  1.
         11    1    6    6    0    0  0.47959446751E+01  0.12346407452E+02 -0.56638996849E+01  0.14405367816E+02  0.00000000000E+00 0. -1.
        -12    1    6    6    0    0 -0.11582822343E+02 -0.10975836215E+03  0.10438593079E+02  0.11086038094E+03  0.00000000000E+00 0.  1.
</event>
<event>
12    1  0.8271773E-002  0.2087740E+03  0.7818608E-02  0.1142968E+00
         21   -1    0    0  503  502  0.00000000000E+00  0.00000000000E+00  0.36208992821E+03  0.36208992821E+03  0.00000000000E+00 0.  1.
         21   -1    0    0  501  503 -0.00000000000E+00 -0.00000000000E+00 -0.23676336401E+03  0.23676336401E+03  0.00000000000E+00 0.  1.
          6    2    1    2  501    0 -0.70154062931E+02  0.95419426726E+02 -0.14853648528E+03  0.25448783234E+03  0.16933549483E+03 0.  0.
         24    2    3    3    0    0  0.27335191244E+02  0.57216196303E+02 -0.63386075200E+02  0.11944589874E+03  0.78921621858E+02 0.  0.
         -6    2    1    2    0  502  0.70154062931E+02 -0.95419426726E+02  0.27386304948E+03  0.34436545988E+03  0.17193062713E+03 0.  0.
        -24    2    5    5    0    0  0.24599811379E+02 -0.11424757925E+03  0.13418470913E+03  0.19617025778E+03  0.82580710764E+02 0.  0.
          5    1    3    3  501    0 -0.97489254175E+02  0.38203230423E+02 -0.85150410076E+02  0.13504193360E+03  0.47000000000E+01 0. -1.
        -11    1    4    4    0    0  0.44423094669E+02  0.64694259297E+01 -0.42960534617E+02  0.62135918327E+02  0.00000000000E+00 0.  1.
         12    1    4    4    0    0 -0.17087903424E+02  0.50746770374E+02 -0.20425540584E+02  0.57309980413E+02  0.00000000000E+00 0. -1.
         -5    1    5    5    0  502  0.45554251552E+02  0.18828152522E+02  0.13967834035E+03  0.14819520210E+03  0.47000000000E+01 0.  1.
         13    1    6    6    0    0  0.42926731524E+01 -0.12623868103E+02 -0.11348584957E+02  0.17509410876E+02  0.00000000000E+00 0. -1.
        -14    1    6    6    0    0  0.20307138226E+02 -0.10162371115E+03  0.14553329408E+03  0.17866084690E+03  0.00000000000E+00 0.  1.
</event>
<event>
12    1  0.8271773E-002  0.2793208E+03  0.7818608E-02  0.1096061E+00
         21   -1    0    0  503  502  0.00000000000E+00  0.00000000000E+00  0.93221860193E+03  0.93221860193E+03  0.00000000000E+00 0.  1.
         21   -1    0    0  501  503 -0.00000000000E+00 -0.00000000000E+00 -0.96252277385E+02  0.96252277385E+02  0.00000000000E+00 0. -1.
          6    2    1    2  501    0  0.22001919351E+03 -0.16716420379E+01  0.23222552695E+03  0.36324681941E+03  0.17207067312E+03 0.  0.
         24    2    3    3    0    0  0.22406310125E+03 -0.31366320985E+02  0.22231376620E+03  0.33133349698E+03  0.95761976519E+02 0.  0.
         -6    2    1    2    0  502 -0.22001919351E+03  0.16716420379E+01  0.60374079759E+03  0.66522405990E+03  0.17207225021E+03 0.  0.
        -24    2    5    5    0    0 -0.17077560191E+03  0.64585391762E+02  0.43422863913E+03  0.47776864364E+03  0.79829736120E+02 0.  0.
          5    1    3    3  501    0 -0.40439077392E+01  0.29694678947E+02  0.99117607473E+01  0.31913322432E+02  0.47000000000E+01 0. -1.
        -11    1    4    4    0    0  0.87489684583E+02  0.15431985892E+02  0.13807036292E+03  0.16418287430E+03  0.00000000000E+00 0.  1.
         12    1    4    4    0    0  0.13657341666E+03 -0.46798306877E+02  0.84243403281E+02  0.16715062268E+03  0.00000000000E+00 0. -1.
         -5    1    5    5    0  502 -0.49243591600E+02 -0.62913749724E+02  0.16951215846E+03  0.18745541626E+03  0.47000000000E+01 0.  1.
         13    1    6    6    0    0  0.33567792064E+01 -0.72773481869E+01  0.40632099653E+02  0.41414916219E+02  0.00000000000E+00 0. -1.
        -14    1    6    6    0    0 -0.17413238111E+03  0.71862739949E+02  0.39359653948E+03  0.43635372742E+03  0.00000000000E+00 0.  1.
</event>
<event>
12    1  0.8271773E-002  0.2047563E+03  0.7818608E-02  0.1147885E+00
         21   -1    0    0  501  502  0.00000000000E+00  0.00000000000E+00  0.19758404027E+03  0.19758404027E+03  0.00000000000E+00 0.  1.
         21   -1    0    0  502  503 -0.00000000000E+00 -0.00000000000E+00 -0.21532147874E+03  0.21532147874E+03  0.00000000000E+00 0. -1.
         -6    2    1    2    0  503  0.51669216305E+02  0.98807329902E+02 -0.60055140371E+02  0.20382200381E+03  0.15970032247E+03 0.  0.
        -24    2    3    3    0    0 -0.18502242545E+02  0.21699806699E+02 -0.45813657086E+01  0.85631338162E+02  0.80613414353E+02 0.  0.
          6    2    1    2  501    0 -0.51669216305E+02 -0.98807329902E+02  0.42317701904E+02  0.20908351520E+03  0.17173389903E+03 0.  0.
         24    2    5    5    0    0 -0.24949261269E+02 -0.36044798076E+01  0.68557881075E+02  0.10667172063E+03  0.77738118146E+02 0.  0.
          5    1    5    5  501    0 -0.26719955036E+02 -0.95202850095E+02 -0.26240179170E+02  0.10241179457E+03  0.47000000000E+01 0. -1.
        -13    1    6    6    0    0  0.18768589451E+02  0.98890584466E+01 -0.33148336489E+01  0.21471878098E+02  0.00000000000E+00 0.  1.
         14    1    6    6    0    0 -0.43717850720E+02 -0.13493538254E+02  0.71872714723E+02  0.85199842535E+02  0.00000000000E+00 0. -1.
         -5    1    3    3    0  503  0.70171458849E+02  0.77107523204E+02 -0.55473774663E+02  0.11819066565E+03  0.47000000000E+01 0.  1.
         11    1    4    4    0    0  0.22037741420E+02 -0.64735117175E+01 -0.23408221606E+02  0.32795018518E+02  0.00000000000E+00 0. -1.
        -12    1    4    4    0    0 -0.40539983965E+02  0.28173318416E+02  0.18826855898E+02  0.52836319643E+02  0.00000000000E+00 0.  1.
</event>
<event>
12    1  0.8271773E-002  0.2077927E+03  0.7818608E-02  0.1143511E+00
         21   -1    0    0  503  502  0.00000000000E+00  0.00000000000E+00  0.50521572522E+03  0.50521572522E+03  0.00000000000E+00 0.  1.
         21   -1    0    0  501  503 -0.00000000000E+00 -0.00000000000E+00 -0.15661094186E+03  0.15661094186E+03  0.00000000000E+00 0.  1.
          6    2    1    2  501    0 -0.49970972109E+02 -0.10415081940E+03 -0.49537278482E+02  0.21272209822E+03  0.17161660140E+03 0.  0.
         24    2    3    3    0    0 -0.15769966122E+01 -0.11764673135E+03 -0.70150422342E+02  0.15821422537E+03  0.79167032527E+02 0.  0.
         -6    2    1    2    0  502  0.49970972109E+02  0.10415081940E+03  0.39814206184E+03  0.44910456886E+03  0.17272325011E+03 0.  0.
        -24    2    5    5    0    0 -0.22105491068E+02  0.18836878453E+02  0.10585218573E+03  0.13616855824E+03  0.80583561008E+02 0.  0.
          5    1    3    3  501    0 -0.48393975497E+02  0.13495911943E+02  0.20613143860E+02  0.54507872856E+02  0.47000000000E+01 0. -1.
        -11    1    4    4    0    0 -0.19073558065E+02 -0.96551086910E+02 -0.19072918735E+02  0.10024813829E+03  0.00000000000E+00 0.  1.
         12    1    4    4    0    0  0.17496561452E+02 -0.21095644437E+02 -0.51077503608E+02  0.57966087082E+02  0.00000000000E+00 0. -1.
         -5    1    5    5    0  502  0.72076463177E+02  0.85313940951E+02  0.29228987611E+03  0.31293601062E+03  0.47000000000E+01 0.  1.
         13    1    6    6    0    0 -0.16179876916E+01 -0.31352075164E+02  0.41169991876E+02  0.51773919422E+02  0.00000000000E+00 0. -1.
        -14    1    6    6    0    0 -0.20487503376E+02  0.50188953617E+02  0.64682193853E+02  0.84394638819E+02  0.00000000000E+00 0.  1.
</event>
<event>
12    1  0.8271773E-002  0.2540497E+03  0.7818608E-02  0.1110892E+00
         21   -1    0    0  503  502  0.00000000000E+00  0.00000000000E+00  0.55751096778E+03  0.55751096778E+03  0.00000000000E+00 0.  1.
         21   -1    0    0  501  503 -0.00000000000E+00 -0.00000000000E+00 -0.11670696249E+03  0.11670696249E+03  0.00000000000E+00 0. -1.
          6    2    1    2  501    0 -0.13300487887E+03 -0.12982407875E+03  0.25620461297E+03  0.36080751077E+03  0.17319545864E+03 0.  0.
         24    2    3    3    0    0 -0.12737382400E+03 -0.79989690039E+02  0.10526549205E+03  0.20168528322E+03  0.83508610918E+02 0.  0.
         -6    2    1    2    0  502  0.13300487887E+03  0.12982407875E+03  0.18459939231E+03  0.31341041950E+03  0.17205977503E+03 0.  0.
        -24    2    5    5    0    0  0.26068990470E+02  0.94169585697E+02  0.41840894767E+02  0.13145271638E+03  0.77341147100E+02 0.  0.
          5    1    3    3  501    0 -0.56310548732E+01 -0.49834388711E+02  0.15093912092E+03  0.15912222755E+03  0.47000000000E+01 0. -1.
        -13    1    4    4    0    0 -0.30599331852E+02 -0.32743468525E+02  0.79016284021E+02  0.90840668102E+02  0.00000000000E+00 0.  1.
         14    1    4    4    0    0 -0.96774492147E+02 -0.47246221514E+02  0.26249208027E+02  0.11084461511E+03  0.00000000000E+00 0. -1.
         -5    1    5    5    0  502  0.10693588840E+03  0.35654493053E+02  0.14275849755E+03  0.18195770312E+03  0.47000000000E+01 0.  1.
         13    1    6    6    0    0 -0.75809953048E+01  0.90395945737E+02  0.31977037131E+02  0.96184351113E+02  0.00000000000E+00 0. -1.
        -14    1    6    6    0    0  0.33649985775E+02  0.37736399603E+01  0.98638576358E+01  0.35268365268E+02  0.00000000000E+00 0.  1.
</event>
<event>
12    1  0.8271773E-002  0.1850211E+03  0.7818608E-02  0.1164203E+00
         21   -1    0    0  501  502  0.00000000000E+00  0.00000000000E+00  0.13813613682E+03  0.13813613682E+03  0.00000000000E+00 0. -1.
         21   -1    0    0  502  503 -0.00000000000E+00 -0.00000000000E+00 -0.47249728695E+03  0.47249728695E+03  0.00000000000E+00 0. -1.
         -6    2    1    2    0  503  0.27691027229E+02  0.45085334462E+02  0.47568861037E+02  0.18624757700E+03  0.17212170992E+03 0.  0.
        -24    2    3    3    0    0  0.46936971367E+02 -0.20916957627E+02 -0.11019654600E+02  0.95796412875E+02  0.80093205297E+02 0.  0.
          6    2    1    2  501    0 -0.27691027229E+02 -0.45085334462E+02 -0.38193001117E+03  0.42438584677E+03  0.17729448140E+03 0.  0.
         24    2    5    5    0    0  0.49587689069E+02 -0.81902180643E+01 -0.24800124678E+03  0.26535046223E+03  0.79876347055E+02 0.  0.
          5    1    5    5  501    0 -0.77278716298E+02 -0.36895116397E+02 -0.13392876439E+03  0.15903538454E+03  0.47000000000E+01 0. -1.
        -11    1    6    6    0    0 -0.13564842592E+02  0.10352250761E+02 -0.13414938459E+02  0.21705635771E+02  0.00000000000E+00 0.  1.
         12    1    6    6    0    0  0.63152531662E+02 -0.18542468825E+02 -0.23458630833E+03  0.24364482646E+03  0.00000000000E+00 0. -1.
         -5    1    3    3    0  503 -0.19245944138E+02  0.66002292088E+02  0.58588515638E+02  0.90451164124E+02  0.47000000000E+01 0.  1.
         13    1    4    4    0    0  0.22601955928E+02  0.29681239027E+02  0.44151790619E+01  0.37567514798E+02  0.00000000000E+00 0. -1.
        -14    1    4    4    0    0  0.24335015439E+02 -0.50598196654E+02 -0.15434833662E+02  0.58228898077E+02  0.00000000000E+00 0.  1.
</event>
<event>
12    1  0.8271773E-002  0.2013785E+03  0.7818608E-02  0.1151468E+00
         21   -1    0    0  503  502  0.00000000000E+00  0.00000000000E+00  0.40865503948E+02  0.40865503948E+02  0.00000000000E+00 0.  1.
         21   -1    0    0  501  503 -0.00000000000E+00 -0.00000000000E+00 -0.14143096983E+04  0.14143096983E+04  0.00000000000E+00 0.  1.
          6    2    1    2  501    0  0.66254038928E+02  0.42357466953E+02 -0.10978778918E+04  0.11138687820E+04  0.17083338505E+03 0.  0.
         24    2    3    3    0    0  0.10054354252E+03  0.11142043641E+02 -0.95176602798E+03  0.96050340302E+03  0.80467795544E+02 0.  0.
         -6    2    1    2    0  502 -0.66254038928E+02 -0.42357466953E+02 -0.27556630258E+03  0.34130642032E+03  0.18539021751E+03 0.  0.
        -24    2    5    5    0    0 -0.18432227537E+02 -0.13769424531E+02 -0.37560933248E+02  0.96821558523E+02  0.86222076202E+02 0.  0.
          5    1    3    3  501    0 -0.34289503590E+02  0.31215423312E+02 -0.14611186384E+03  0.15336537896E+03  0.47000000000E+01 0. -1.
        -11    1    4    4    0    0  0.51488509034E+02 -0.14912720471E+02 -0.21261582530E+03  0.21926911538E+03  0.00000000000E+00 0.  1.
         12    1    4    4    0    0  0.49055033483E+02  0.26054764112E+02 -0.73915020269E+03  0.74123428764E+03  0.00000000000E+00 0. -1.
         -5    1    5    5    0  502 -0.47821811391E+02 -0.28588042422E+02 -0.23800536933E+03  0.24448486179E+03  0.47000000000E+01 0.  1.
         11    1    6    6    0    0 -0.10338633193E+02  0.35423634384E+02 -0.27350650504E+02  0.45932333843E+02  0.00000000000E+00 0. -1.
        -12    1    6    6    0    0 -0.80935943438E+01 -0.49193058915E+02 -0.10210282744E+02  0.50889224680E+02  0.00000000000E+00 0.  1.
</event>
<event>
12    1  0.8271773E-002  0.2566381E+03  0.7818608E-02  0.1109293E+00
         21   -1    0    0  501  502  0.00000000000E+00  0.00000000000E+00  0.77150285421E+03  0.77150285421E+03  0.00000000000E+00 0.  1.
         21   -1    0    0  502  503 -0.00000000000E+00 -0.00000000000E+00 -0.15967644699E+03  0.15967644699E+03  0.00000000000E+00 0. -1.
         -6    2    1    2    0  503  0.15445278236E+03  0.11186432939E+03  0.62381257515E+03  0.67426140227E+03  0.17063709886E+03 0.  0.
        -24    2    3    3    0    0  0.29495830976E+02 -0.16742687226E+01  0.19894691415E+03  0.21705447662E+03  0.81608602199E+02 0.  0.
          6    2    1    2  501    0 -0.15445278236E+03 -0.11186432939E+03 -0.11986167929E+02  0.25691789892E+03  0.17173773143E+03 0.  0.
         24    2    5    5    0    0 -0.53917181847E+02 -0.20151799171E+02 -0.56237483158E+02  0.11374365519E+03  0.80385366052E+02 0.  0.
          5    1    5    5  501    0 -0.10053560051E+03 -0.91712530223E+02  0.44251315228E+02  0.14317424373E+03  0.47000000000E+01 0. -1.
        -13    1    6    6    0    0  0.19664825138E+02 -0.58293974177E+01 -0.25496263804E+02  0.32722265966E+02  0.00000000000E+00 0.  1.
         14    1    6    6    0    0 -0.73582006986E+02 -0.14322401753E+02 -0.30741219354E+02  0.81021389222E+02  0.00000000000E+00 0. -1.
         -5    1    3    3    0  503  0.12495695138E+03  0.11353859812E+03  0.42486566100E+03  0.45720692565E+03  0.47000000000E+01 0.  1.
         13    1    4    4    0    0  0.46161562177E+02 -0.21585105289E+02  0.76732871917E+02  0.92112649650E+02  0.00000000000E+00 0. -1.
        -14    1    4    4    0    0 -0.16665731201E+02  0.19910836567E+02  0.12221404223E+03  0.12494182697E+03  0.00000000000E+00 0.  1.
</event>
<event>
12    1  0.8271773E-002  0.2235835E+03  0.7818608E-02  0.1131436E+00
         21   -1    0    0  501  502  0.00000000000E+00  0.00000000000E+00  0.28533975049E+03  0.28533975049E+03  0.00000000000E+00 0.  1.
         21   -1    0    0  502  503 -0.00000000000E+00 -0.00000000000E+00 -0.18651016268E+03  0.18651016268E+03  0.00000000000E+00 0. -1.
         -6    2    1    2    0  503 -0.13151382086E+03 -0.51688441284E+02 -0.10706398861E+02  0.22383968470E+03  0.17326857023E+03 0.  0.
        -24    2    3    3    0    0 -0.14492969349E+03 -0.40144197964E+02  0.34808296514E+02  0.17477918442E+03  0.81975442155E+02 0.  0.
          6    2    1    2  501    0  0.13151382086E+03  0.51688441284E+02  0.10953598667E+03  0.24801022848E+03  0.17188182282E+03 0.  0.
         24    2    5    5    0    0  0.16206478013E+03  0.54674242033E+02  0.10381240073E+03  0.21643293356E+03  0.82534444216E+02 0.  0.
          5    1    5    5  501    0 -0.30550959274E+02 -0.29858007488E+01  0.57235859436E+01  0.31577294924E+02  0.47000000000E+01 0. -1.
        -11    1    6    6    0    0  0.12434444832E+03  0.63290756049E+02  0.10945082414E+03  0.17733229975E+03  0.00000000000E+00 0.  1.
         12    1    6    6    0    0  0.37720331812E+02 -0.86165140158E+01 -0.56384234100E+01  0.39100633810E+02  0.00000000000E+00 0. -1.
         -5    1    3    3    0  503  0.13415872625E+02 -0.11544243320E+02 -0.45514695375E+02  0.49060500274E+02  0.47000000000E+01 0.  1.
         11    1    4    4    0    0 -0.10981369359E+03 -0.24467935150E+02 -0.13188098578E+02  0.11327688685E+03  0.00000000000E+00 0. -1.
        -12    1    4    4    0    0 -0.35115999893E+02 -0.15676262815E+02  0.47996395092E+02  0.61502297568E+02  0.00000000000E+00 0.  1.
</event>
<event>
12    1  0.8271773E-002  0.2259320E+03  0.7818608E-02  0.1130915E+00
         21   -1    0    0  503  502  0.00000000000E+00  0.00000000000E+00  0.15658380120E+03  0.15658380120E+03  0.00000000000E+00 0. -1.
         21   -1    0    0  501  503 -0.00000000000E+00 -0.00000000000E+00 -0.33267955670E+03  0.33267955670E+03  0.00000000000E+00 0. -1.
          6    2    1    2  501    0 -0.21130225791E+02 -0.13513696032E+03 -0.33446189930E+02  0.22839419335E+03  0.17982429048E+03 0.  0.
         24    2    3    3    0    0  0.24822559593E+01  0.41833137200E+00  0.15502982394E+01  0.86339166742E+02  0.86288537439E+02 0.  0.
         -6    2    1    2    0  502  0.21130225791E+02  0.13513696032E+03 -0.14264956558E+03  0.26086916455E+03  0.17028017492E+03 0.  0.
        -24    2    5    5    0    0  0.64318584326E+02  0.89346045500E+02 -0.21283287408E+02  0.12407038653E+03  0.53112017039E+02 0.  0.
          5    1    3    3  501    0 -0.23612481751E+02 -0.13555529169E+03 -0.34996488169E+02  0.14205502660E+03  0.47000000000E+01 0. -1.
        -13    1    4    4    0    0  0.39348196505E+02  0.53905118117E+01  0.20386424264E+02  0.44642406745E+02  0.00000000000E+00 0.  1.
         14    1    4    4    0    0 -0.36865940545E+02 -0.49721804397E+01 -0.18836126024E+02  0.41696759997E+02  0.00000000000E+00 0. -1.
         -5    1    5    5    0  502 -0.43188358534E+02  0.45790914816E+02 -0.12136627817E+03  0.13679877802E+03  0.47000000000E+01 0.  1.
         13    1    6    6    0    0  0.40856277876E+02  0.41018977050E+02  0.14298224285E+02  0.59634144060E+02  0.00000000000E+00 0. -1.
        -14    1    6    6    0    0  0.23462306450E+02  0.48327068450E+02 -0.35581511693E+02  0.64436242467E+02  0.00000000000E+00 0.  1.
</event>
<event>
12    1  0.8271773E-002  0.2181837E+03  0.7818608E-02  0.1136135E+00
         21   -1    0    0  501  502  0.00000000000E+00  0.00000000000E+00  0.25541942188E+03  0.25541942188E+03  0.00000000000E+00 0. -1.
         21   -1    0    0  502  503 -0.00000000000E+00 -0.00000000000E+00 -0.24150478529E+03  0.24150478529E+03  0.00000000000E+00 0. -1.
         -6    2    1    2    0  503  0.42586906075E+02 -0.12814720739E+03  0.12980494085E+03  0.24987222823E+03  0.16538275739E+03 0.  0.
        -24    2    3    3    0    0  0.56409853069E+02 -0.42175305453E+02  0.15847838988E+02  0.10637814177E+03  0.78130193474E+02 0.  0.
          6    2    1    2  501    0 -0.42586906075E+02  0.12814720739E+03 -0.11589030426E+03  0.24705197893E+03  0.17137317860E+03 0.  0.
         24    2    5    5    0    0 -0.87060112914E+02  0.95505624004E+02 -0.11392286659E+03  0.19165071628E+03  0.83968982623E+02 0.  0.
          5    1    5    5  501    0  0.44473206839E+02  0.32641583382E+02 -0.19674376699E+01  0.55401262650E+02  0.47000000000E+01 0. -1.
        -13    1    6    6    0    0 -0.95371973918E+02  0.10259403332E+03 -0.93271814524E+02  0.16828838482E+03  0.00000000000E+00 0.  1.
         14    1    6    6    0    0  0.83118610041E+01 -0.70884093119E+01 -0.20651052064E+02  0.23362331461E+02  0.00000000000E+00 0. -1.
         -5    1    3    3    0  503 -0.13822946994E+02 -0.85971901933E+02  0.11395710186E+03  0.14349408646E+03  0.47000000000E+01 0.  1.
         11    1    4    4    0    0  0.14791948959E+02 -0.56309902263E+02 -0.35647501438E+01  0.58329360450E+02  0.00000000000E+00 0. -1.
        -12    1    4    4    0    0  0.41617904110E+02  0.14134596810E+02  0.19412589132E+02  0.48048781319E+02  0.00000000000E+00 0.  1.
</event>
<event>
12    1  0.8271773E-002  0.2198704E+03  0.7818608E-02  0.1134142E+00
         21   -1    0    0  501  502  0.00000000000E+00  0.00000000000E+00  0.63365585180E+03  0.63365585180E+03  0.00000000000E+00 0.  1.
         21   -1    0    0  502  503 -0.00000000000E+00 -0.00000000000E+00 -0.33799332370E+03  0.33799332370E+03  0.00000000000E+00 0. -1.
         -6    2    1    2    0  503  0.13440727657E+03  0.27914705226E+02 -0.27984101048E+03  0.35588478135E+03  0.17175109806E+03 0.  0.
        -24    2    3    3    0    0  0.64398832993E+02  0.55050244283E+02 -0.42994938363E+02  0.10737789708E+03  0.50037075953E+02 0.  0.
          6    2    1    2  501    0 -0.13440727657E+03 -0.27914705226E+02  0.57550353857E+03  0.61576439415E+03  0.17063680562E+03 0.  0.
         24    2    5    5    0    0 -0.11686691179E+03  0.62956428069E+01  0.24257793822E+03  0.28059345615E+03  0.78683678967E+02 0.  0.
          5    1    5    5  501    0 -0.17540364785E+02 -0.34210348033E+02  0.33292560035E+03  0.33517093800E+03  0.47000000000E+01 0. -1.
        -13    1    6    6    0    0 -0.97172367456E+02 -0.24303535175E+02  0.20566180183E+03  0.22875731147E+03  0.00000000000E+00 0.  1.
         14    1    6    6    0    0 -0.19694544331E+02  0.30599177982E+02  0.36916136388E+02  0.51836144681E+02  0.00000000000E+00 0. -1.
         -5    1    3    3    0  503  0.70008443579E+02 -0.27135539056E+02 -0.23684607212E+03  0.24850688427E+03  0.47000000000E+01 0.  1.
         11    1    4    4    0    0  0.59453712695E+02  0.64123512902E+02 -0.41966180379E+02  0.96993449035E+02  0.00000000000E+00 0. -1.
        -12    1    4    4    0    0  0.49451202984E+01 -0.90732686192E+01 -0.10287579839E+01  0.10384448045E+02  0.00000000000E+00 0.  1.
</event>
<event>
12    1  0.8271773E-002  0.1840007E+03  0.7818608E-02  0.1163997E+00
         21   -1    0    0  503  502  0.00000000000E+00  0.00000000000E+00  0.28402181313E+02  0.28402181313E+02  0.00000000000E+00 0. -1.
         21   -1    0    0  501  503 -0.00000000000E+00 -0.00000000000E+00 -0.16184337013E+04  0.16184337013E+04  0.00000000000E+00 0.  1.
          6    2    1    2  501    0 -0.15358398920E+02 -0.63513897102E+02 -0.12177431738E+04  0.12315590234E+04  0.17195724806E+03 0.  0.
         24    2    3    3    0    0  0.34580028513E+02  0.11994967537E+02 -0.76417376293E+03  0.76901958111E+03  0.78037930209E+02 0.  0.
         -6    2    1    2    0  502  0.15358398920E+02  0.63513897102E+02 -0.37228834616E+03  0.41527685922E+03  0.17200686490E+03 0.  0.
        -24    2    5    5    0    0 -0.39459521765E+02  0.56932200722E+02 -0.13666367231E+03  0.17322438539E+03  0.80817071403E+02 0.  0.
          5    1    3    3  501    0 -0.49938427434E+02 -0.75508864639E+02 -0.45356941085E+03  0.46253944224E+03  0.47000000000E+01 0. -1.
        -13    1    4    4    0    0 -0.21002026928E+02  0.67585183408E+01 -0.39833751525E+03  0.39894804017E+03  0.00000000000E+00 0.  1.
         14    1    4    4    0    0  0.55582055441E+02  0.52364491967E+01 -0.36583624769E+03  0.37007154093E+03  0.00000000000E+00 0. -1.
         -5    1    5    5    0  502  0.54817920685E+02  0.65816963796E+01 -0.23562467385E+03  0.24205247382E+03  0.47000000000E+01 0.  1.
         11    1    6    6    0    0  0.18226197170E+02  0.43051668104E+02 -0.53232774455E+02  0.70847502891E+02  0.00000000000E+00 0. -1.
        -12    1    6    6    0    0 -0.57685718935E+02  0.13880532618E+02 -0.83430897851E+02  0.10237688250E+03  0.00000000000E+00 0.  1.
</event>
<event>
12    1  0.8271773E-002  0.2556747E+03  0.7818608E-02  0.1109854E+00
         21   -1    0    0  503  502  0.00000000000E+00  0.00000000000E+00  0.60301370217E+03  0.60301370217E+03  0.00000000000E+00 0. -1.
         21   -1    0    0  501  503 -0.00000000000E+00 -0.00000000000E+00 -0.14998586465E+03  0.14998586465E+03  0.00000000000E+00 0.  1.
          6    2    1    2  501    0  0.16578864978E+03 -0.89493120366E+02  0.27551890638E+02  0.25661329413E+03  0.17203598769E+03 0.  0.
         24    2    3    3    0    0  0.17156147272E+02 -0.44021484193E+02  0.33906030122E+02  0.10097989288E+03  0.82553591242E+02 0.  0.
         -6    2    1    2    0  502 -0.16578864978E+03  0.89493120366E+02  0.42547594689E+03  0.49638627269E+03  0.17284286315E+03 0.  0.
        -24    2    5    5    0    0 -0.67066065733E+02  0.11036911867E+03  0.29063737086E+03  0.32790634067E+03  0.79832871573E+02 0.  0.
          5    1    3    3  501    0  0.14863250251E+03 -0.45471636174E+02 -0.63541394845E+01  0.15563340126E+03  0.47000000000E+01 0. -1.
        -11    1    4    4    0    0  0.45600014075E+02 -0.25795130974E+02 -0.10046146086E+01  0.52399993474E+02  0.00000000000E+00 0.  1.
         12    1    4    4    0    0 -0.28443866803E+02 -0.18226353219E+02  0.34910644731E+02  0.48579899402E+02  0.00000000000E+00 0. -1.
         -5    1    5    5    0  502 -0.98722584047E+02 -0.20875998305E+02  0.13483857603E+03  0.16847993201E+03  0.47000000000E+01 0.  1.
         13    1    6    6    0    0 -0.57411535856E+02  0.63539186408E+02  0.25286489314E+03  0.26697184653E+03  0.00000000000E+00 0. -1.
        -14    1    6    6    0    0 -0.96545298767E+01  0.46829932263E+02  0.37772477722E+02  0.60934494141E+02  0.00000000000E+00 0.  1.
</event>
<event>
12    1  0.8271773E-002  0.2015424E+03  0.7818608E-02  0.1148563E+00
         21   -1    0    0  501  502  0.00000000000E+00  0.00000000000E+00  0.21870535063E+03  0.21870535063E+03  0.00000000000E+00 0. -1.
         21   -1    0    0  502  503 -0.00000000000E+00 -0.00000000000E+00 -0.19808928979E+03  0.19808928979E+03  0.00000000000E+00 0. -1.
         -6    2    1    2    0  503 -0.15781577999E+02 -0.10351939373E+03 -0.42827391882E+02  0.20604256752E+03  0.17220345830E+03 0.  0.
        -24    2    3    3    0    0 -0.27140438257E+02 -0.11127793298E+03 -0.82182078164E+02  0.16408902214E+03  0.83975778987E+02 0.  0.
          6    2    1    2  501    0  0.15781577999E+02  0.10351939373E+03  0.63443452725E+02  0.21075207291E+03  0.17154020363E+03 0.  0.
         24    2    5    5    0    0  0.29647004464E+02  0.13753820454E+03  0.61367839745E+02  0.17365857335E+03  0.81213211746E+02 0.  0.
          5    1    5    5  501    0 -0.13865426465E+02 -0.34018810812E+02  0.20756129802E+01  0.37093499557E+02  0.47000000000E+01 0. -1.
        -13    1    6    6    0    0  0.95324058389E+01  0.34389265943E+02  0.58502571560E+02  0.68527653195E+02  0.00000000000E+00 0.  1.
         14    1    6    6    0    0  0.20114598625E+02  0.10314893860E+03  0.28652681847E+01  0.10513092016E+03  0.00000000000E+00 0. -1.
         -5    1    3    3    0  503  0.11358860258E+02  0.77585392547E+01  0.39354686282E+02  0.41953545381E+02  0.47000000000E+01 0.  1.
         13    1    4    4    0    0  0.18509698934E+01 -0.92545034415E+01 -0.53348636889E+02  0.54177015251E+02  0.00000000000E+00 0. -1.
        -14    1    4    4    0    0 -0.28991408151E+02 -0.10202342954E+03 -0.28833441274E+02  0.10991200688E+03  0.00000000000E+00 0.  1.
</event>
<event>
12    1  0.8271773E-002  0.1840266E+03  0.7818608E-02  0.1165353E+00
         21   -1    0    0  503  502  0.00000000000E+00  0.00000000000E+00  0.35375241518E+03  0.35375241518E+03  0.00000000000E+00 0.  1.
         21   -1    0    0  501  503 -0.00000000000E+00 -0.00000000000E+00 -0.10410182799E+03  0.10410182799E+03  0.00000000000E+00 0.  1.
          6    2    1    2  501    0  0.32603548804E+02 -0.58827789253E+02  0.19869202148E+03  0.26690248300E+03  0.16502943933E+03 0.  0.
         24    2    3    3    0    0  0.26780759786E+02 -0.67207328438E+02  0.52128951829E+02  0.11990947318E+03  0.80167450063E+02 0.  0.
         -6    2    1    2    0  502 -0.32603548804E+02  0.58827789253E+02  0.50958565705E+02  0.19095176017E+03  0.17129535636E+03 0.  0.
        -24    2    5    5    0    0  0.45729963525E+02  0.21835185049E+02  0.40753288912E+02  0.10359714041E+03  0.80644479496E+02 0.  0.
          5    1    3    3  501    0  0.58227890183E+01  0.83795391842E+01  0.14656306965E+03  0.14699300982E+03  0.47000000000E+01 0. -1.
        -11    1    4    4    0    0 -0.77011222642E+01  0.40035224207E+01  0.38695633110E+02  0.39657124173E+02  0.00000000000E+00 0.  1.
         12    1    4    4    0    0  0.34481882050E+02 -0.71210850858E+02  0.13433318719E+02  0.80252349009E+02  0.00000000000E+00 0. -1.
         -5    1    5    5    0  502 -0.78333512329E+02  0.36992604204E+02  0.10205276792E+02  0.87354619764E+02  0.47000000000E+01 0.  1.
         11    1    6    6    0    0  0.30367683833E+02 -0.17915303195E+01  0.61493163622E+02  0.68606231310E+02  0.00000000000E+00 0. -1.
        -12    1    6    6    0    0  0.15362279692E+02  0.23626715368E+02 -0.20739874710E+02  0.34990909097E+02  0.00000000000E+00 0.  1.
</event>
<event>
12    1  0.8271773E-002  0.2179107E+03  0.7818608E-02  0.1135838E+00
         21   -1    0    0  503  502  0.00000000000E+00  0.00000000000E+00  0.77661776377E+03  0.77661776377E+03  0.00000000000E+00 0. -1.
         21   -1    0    0  501  503 -0.00000000000E+00 -0.00000000000E+00 -0.62948112711E+02  0.62948112711E+02  0.00000000000E+00 0. -1.
          6    2    1    2  501    0 -0.30150317364E+02  0.12948789245E+03  0.27689139210E+03  0.35235480734E+03  0.17265257399E+03 0.  0.
         24    2    3    3    0    0  0.19889682770E+02  0.37957714459E+02  0.20982495321E+03  0.22825093020E+03  0.78965743064E+02 0.  0.
         -6    2    1    2    0  502  0.30150317364E+02 -0.12948789245E+03  0.43677825895E+03  0.48721106914E+03  0.17006828767E+03 0.  0.
        -24    2    5    5    0    0 -0.42741828102E+02 -0.49968053952E+02  0.26785045464E+03  0.28672325740E+03  0.78375314994E+02 0.  0.
          5    1    3    3  501    0 -0.50040000134E+02  0.91530177986E+02  0.67066438889E+02  0.12410387714E+03  0.47000000000E+01 0. -1.
        -13    1    4    4    0    0 -0.21493911827E+02  0.42256021460E+02  0.12706554038E+03  0.13562157331E+03  0.00000000000E+00 0.  1.
         14    1    4    4    0    0  0.41383594597E+02 -0.42983070015E+01  0.82759412836E+02  0.92629356890E+02  0.00000000000E+00 0. -1.
         -5    1    5    5    0  502  0.72892145466E+02 -0.79519838494E+02  0.16892780432E+03  0.20048781174E+03  0.47000000000E+01 0.  1.
         11    1    6    6    0    0  0.12258856930E+02 -0.40529631296E+02  0.15712128746E+03  0.16272685568E+03  0.00000000000E+00 0. -1.
        -12    1    6    6    0    0 -0.55000685032E+02 -0.94384226552E+01  0.11072916718E+03  0.12399640172E+03  0.00000000000E+00 0.  1.
</event>
<event>
12    1  0.8271773E-002  0.2357986E+03  0.7818608E-02  0.1122922E+00
         21   -1    0    0  501  502  0.00000000000E+00  0.00000000000E+00  0.59564399969E+02  0.59564399969E+02  0.00000000000E+00 0.  1.
         21   -1    0    0  502  503 -0.00000000000E+00 -0.00000000000E+00 -0.15782709578E+04  0.15782709578E+04  0.00000000000E+00 0.  1.
         -6    2    1    2    0  503 -0.18158560238E+02 -0.15989245679E+03 -0.12839244136E+04  0.13050837293E+04  0.16995972892E+03 0.  0.
        -24    2    3    3    0    0  0.32891718609E+02 -0.37809935136E+02 -0.70122482771E+03  0.70752940497E+03  0.79813179065E+02 0.  0.
          6    2    1    2  501    0  0.18158560238E+02  0.15989245679E+03 -0.23478214423E+03  0.33275162853E+03  0.17235329991E+03 0.  0.
         24    2    5    5    0    0  0.78287377568E+02  0.88934338844E+02 -0.14952082310E+03  0.20648955165E+03  0.79014101836E+02 0.  0.
          5    1    5    5  501    0 -0.60128817330E+02  0.70958117943E+02 -0.85261321135E+02  0.12626207688E+03  0.47000000000E+01 0. -1.
        -13    1    6    6    0    0 -0.14491011220E+02  0.10544671020E+02 -0.70173472704E+01  0.19246367341E+02  0.00000000000E+00 0.  1.
         14    1    6    6    0    0  0.92778388788E+02  0.78389667824E+02 -0.14250347583E+03  0.18724318431E+03  0.00000000000E+00 0. -1.
         -5    1    3    3    0  503 -0.51050278847E+02 -0.12208252165E+03 -0.58269958593E+03  0.59755432431E+03  0.47000000000E+01 0.  1.
         11    1    4    4    0    0  0.33445518871E+02 -0.13933925550E+02 -0.10981898906E+03  0.11564154691E+03  0.00000000000E+00 0. -1.
        -12    1    4    4    0    0 -0.55380026282E+00 -0.23876009587E+02 -0.59140583865E+03  0.59188785806E+03  0.00000000000E+00 0.  1.
</event>
<event>
12    1  0.8271773E-002  0.1725552E+03  0.7818608E-02  0.1176341E+00
         21   -1    0    0  503  502  0.00000000000E+00  0.00000000000E+00  0.55543925724E+02  0.55543925724E+02  0.00000000000E+00 0.  1.
         21   -1    0    0  501  503 -0.00000000000E+00 -0.00000000000E+00 -0.11782453642E+04  0.11782453642E+04  0.00000000000E+00 0.  1.
          6    2    1    2  501    0 -0.29237612662E+01  0.12217478327E+02 -0.10437417036E+03  0.20166622544E+03  0.17209730936E+03 0.  0.
         24    2    3    3    0    0  0.53844788574E+02  0.47076416308E+02 -0.62231558660E+02  0.12269848818E+03  0.77889035679E+02 0.  0.
         -6    2    1    2    0  502  0.29237612662E+01 -0.12217478327E+02 -0.10183272682E+04  0.10321230645E+04  0.16771934916E+03 0.  0.
        -24    2    5    5    0    0 -0.49358408566E+02  0.20602132090E+02 -0.42695746526E+03  0.43752161322E+03  0.79194599244E+02 0.  0.
          5    1    3    3  501    0 -0.56768549840E+02 -0.34858937981E+02 -0.42142611700E+02  0.78967737267E+02  0.47000000000E+01 0. -1.
        -11    1    4    4    0    0  0.70683770324E+01  0.56050908348E+02 -0.44348476914E+02  0.71822375936E+02  0.00000000000E+00 0.  1.
         12    1    4    4    0    0  0.46776411542E+02 -0.89744920402E+01 -0.17883081745E+02  0.50876112242E+02  0.00000000000E+00 0. -1.
         -5    1    5    5    0  502  0.52282169833E+02 -0.32819610416E+02 -0.59136980290E+03  0.59460145130E+03  0.47000000000E+01 0.  1.
         13    1    6    6    0    0 -0.21890069316E+02 -0.27093109674E+02 -0.98327519977E+02  0.10431449042E+03  0.00000000000E+00 0. -1.
        -14    1    6    6    0    0 -0.27468339251E+02  0.47695241764E+02 -0.32862994528E+03  0.33320712280E+03  0.00000000000E+00 0.  1.
</event>
<event>
12    1  0.8271773E-002  0.1977778E+03  0.7818608E-02  0.1152192E+00
         21   -1    0    0  503  502  0.00000000000E+00  0.00000000000E+00  0.29243198437E+03  0.29243198437E+03  0.00000000000E+00 0.  1.
         21   -1    0    0  501  503 -0.00000000000E+00 -0.00000000000E+00 -0.26180133481E+03  0.26180133481E+03  0.00000000000E+00 0. -1.
          6    2    1    2  501    0 -0.16267228137E+02 -0.93992214207E+02 -0.17976050827E+03  0.26726369107E+03  0.17325380570E+03 0.  0.
         24    2    3    3    0    0 -0.15724236413E+02 -0.78823730452E+02 -0.27298071070E+02  0.11397552291E+03  0.76057892729E+02 0.  0.
         -6    2    1    2    0  502  0.16267228137E+02  0.93992214207E+02  0.21039115784E+03  0.28696962811E+03  0.17025853611E+03 0.  0.
        -24    2    5    5    0    0 -0.46775972630E+02  0.19342738634E+02  0.12485378656E+03  0.15702455798E+03  0.80660465145E+02 0.  0.
          5    1    3    3  501    0 -0.54299172433E+00 -0.15168483755E+02 -0.15246243720E+03  0.15328816816E+03  0.47000000000E+01 0. -1.
        -11    1    4    4    0    0  0.66362091387E+01  0.68602075301E+01  0.13453317550E+02  0.16495256051E+02  0.00000000000E+00 0.  1.
         12    1    4    4    0    0 -0.22360445551E+02 -0.85683937982E+02 -0.40751388620E+02  0.97480266864E+02  0.00000000000E+00 0. -1.
         -5    1    5    5    0  502  0.63043200767E+02  0.74649475574E+02  0.85537371279E+02  0.12994507013E+03  0.47000000000E+01 0.  1.
         13    1    6    6    0    0 -0.64077315453E+02  0.23448985661E+02  0.63728417660E+02  0.93365242471E+02  0.00000000000E+00 0. -1.
        -14    1    6    6    0    0  0.17301342823E+02 -0.41062470271E+01  0.61125368897E+02  0.63659315508E+02  0.00000000000E+00 0.  1.
</event>
<event>
12    1  0.8271773E-002  0.2055768E+03  0.7818608E-02  0.1145387E+00
         21   -1    0    0  503  502  0.00000000000E+00  0.00000000000E+00  0.29848090862E+02  0.29848090862E+02  0.00000000000E+00 0. -1.
         21   -1    0    0  501  503 -0.00000000000E+00 -0.00000000000E+00 -0.14321511582E+04  0.14321511582E+04  0.00000000000E+00 0. -1.
          6    2    1    2  501    0  0.86050596707E+02 -0.72341611026E+02 -0.60173946488E+03  0.63546194754E+03  0.17053882051E+03 0.  0.
         24    2    3    3    0    0  0.12043872774E+03 -0.53657894392E+02 -0.38390318865E+03  0.41408815039E+03  0.81869904527E+02 0.  0.
         -6    2    1    2    0  502 -0.86050596707E+02  0.72341611026E+02 -0.80056360244E+03  0.82653730150E+03  0.17211570336E+03 0.  0.
        -24    2    5    5    0    0 -0.62815020937E+02 -0.74068813103E+01 -0.25675257174E+03  0.27639891789E+03  0.80460487013E+02 0.  0.
          5    1    3    3  501    0 -0.34388131036E+02 -0.18683716634E+02 -0.21783627623E+03  0.22137379715E+03  0.47000000000E+01 0. -1.
        -11    1    4    4    0    0  0.16807614559E+02 -0.15715796708E+01 -0.16937132609E+03  0.17021049284E+03  0.00000000000E+00 0.  1.
         12    1    4    4    0    0  0.10363111318E+03 -0.52086314721E+02 -0.21453186256E+03  0.24387765756E+03  0.00000000000E+00 0. -1.
         -5    1    5    5    0  502 -0.23235575770E+02  0.79748492336E+02 -0.54381103070E+03  0.55013838361E+03  0.47000000000E+01 0.  1.
         11    1    6    6    0    0 -0.37660781672E+02  0.21633607632E+02 -0.21626773647E+03  0.22058576856E+03  0.00000000000E+00 0. -1.
        -12    1    6    6    0    0 -0.25154239265E+02 -0.29040488942E+02 -0.40484835271E+02  0.55813149328E+02  0.00000000000E+00 0.  1.
</event>
<event>
12    1  0.8271773E-002  0.3018728E+03  0.7818608E-02  0.1084339E+00
         21   -1    0    0  501  502  0.00000000000E+00  0.00000000000E+00  0.16451311251E+04  0.16451311251E+04  0.00000000000E+00 0. -1.
         21   -1    0    0  502  503 -0.00000000000E+00 -0.00000000000E+00 -0.70119439800E+02  0.70119439800E+02  0.00000000000E+00 0. -1.
         -6    2    1    2    0  503 -0.15903544054E+02  0.24695545576E+03  0.39410741579E+03  0.49643513273E+03  0.17287933939E+03 0.  0.
        -24    2    3    3    0    0  0.15006115077E+02  0.16519604828E+03  0.15000344472E+03  0.23711130731E+03  0.78777031999E+02 0.  0.
          6    2    1    2  501    0  0.15903544054E+02 -0.24695545576E+03  0.11809042695E+04  0.12188154322E+04  0.17244200211E+03 0.  0.
         24    2    5    5    0    0 -0.46562700510E+02 -0.70839784822E+02  0.51071903933E+03  0.52305031806E+03  0.74574378250E+02 0.  0.
          5    1    5    5  501    0  0.62466244564E+02 -0.17611567094E+03  0.67018523017E+03  0.69576511410E+03  0.47000000000E+01 0. -1.
        -13    1    6    6    0    0  0.76984946295E+01  0.97317170524E+01  0.27582488206E+02  0.30245111869E+02  0.00000000000E+00 0.  1.
         14    1    6    6    0    0 -0.54261195139E+02 -0.80571501875E+02  0.48313655113E+03  0.49280520619E+03  0.00000000000E+00 0. -1.
         -5    1    3    3    0  503 -0.30909659131E+02  0.81759407481E+02  0.24410397107E+03  0.25932382542E+03  0.47000000000E+01 0.  1.
         11    1    4    4    0    0  0.14817883597E+02  0.11514245534E+02 -0.43860467544E+01  0.19271349995E+02  0.00000000000E+00 0. -1.
        -12    1    4    4    0    0  0.18823148058E+00  0.15368180274E+03  0.15438949147E+03  0.21783995731E+03  0.00000000000E+00 0.  1.
</event>
<event>
12    1  0.8271773E-002  0.2616217E+03  0.7818608E-02  0.1107353E+00
         21   -1    0    0  501  502  0.00000000000E+00  0.00000000000E+00  0.83490066348E+03  0.83490066348E+03  0.00000000000E+00 0. -1.
         21   -1    0    0  502  503 -0.00000000000E+00 -0.00000000000E+00 -0.10549590828E+03  0.10549590828E+03  0.00000000000E+00 0.  1.
         -6    2    1    2    0  503 -0.16907522250E+03  0.89104212306E+02  0.13572892012E+03  0.29473420896E+03  0.17866147504E+03 0.  0.
        -24    2    3    3    0    0 -0.21164818408E+02 -0.62668184624E+01  0.59822920835E+02  0.10301323495E+03  0.80905637417E+02 0.  0.
          6    2    1    2  501    0  0.16907522250E+03 -0.89104212306E+02  0.59367583508E+03  0.64566236280E+03  0.16704160579E+03 0.  0.
         24    2    5    5    0    0  0.25707612041E+02 -0.54408379351E+02  0.20105760880E+03  0.22622317273E+03  0.84448852962E+02 0.  0.
          5    1    5    5  501    0  0.14336761046E+03 -0.34695832955E+02  0.39261822628E+03  0.41943919006E+03  0.47000000000E+01 0. -1.
        -11    1    6    6    0    0 -0.69985855106E+01  0.14671605230E+02  0.89689238179E+02  0.91150401230E+02  0.00000000000E+00 0.  1.
         12    1    6    6    0    0  0.32706197552E+02 -0.69079984581E+02  0.11136837062E+03  0.13507277150E+03  0.00000000000E+00 0. -1.
         -5    1    3    3    0  503 -0.14791040409E+03  0.95371030768E+02  0.75905999281E+02  0.19172097401E+03  0.47000000000E+01 0.  1.
         11    1    4    4    0    0  0.19220364037E+02  0.10054333382E+02  0.55079990499E+02  0.59197274995E+02  0.00000000000E+00 0. -1.
        -12    1    4    4    0    0 -0.40385182445E+02 -0.16321151844E+02  0.47429303358E+01  0.43815959955E+02  0.00000000000E+00 0.  1.
</event>
<event>
12    1  0.8271773E-002  0.1855076E+03  0.7818608E-02  0.1163151E+00
         21   -1    0    0  501  502  0.00000000000E+00  0.00000000000E+00  0.10447948784E+03  0.10447948784E+03  0.00000000000E+00 0. -1.
         21   -1    0    0  502  503 -0.00000000000E+00 -0.00000000000E+00 -0.33346350564E+03  0.33346350564E+03  0.00000000000E+00 0. -1.
         -6    2    1    2    0  503  0.65285809712E+02  0.26697462105E+02 -0.14855235391E+03  0.23574921302E+03  0.16892275795E+03 0.  0.
        -24    2    3    3    0    0 -0.27463247763E+02  0.31639020208E+02 -0.78915643048E+02  0.11956759589E+03  0.79457370282E+02 0.  0.
          6    2    1    2  501    0 -0.65285809712E+02 -0.26697462105E+02 -0.80431663891E+02  0.20219378046E+03  0.17157529212E+03 0.  0.
         24    2    5    5    0    0 -0.22279347341E+02 -0.40115682688E+02  0.19297367563E+02  0.92660341892E+02  0.78153139728E+02 0.  0.
          5    1    5    5  501    0 -0.43006462371E+02  0.13418220584E+02 -0.99729031454E+02  0.10953343857E+03  0.47000000000E+01 0. -1.
        -11    1    6    6    0    0 -0.41806497642E+02 -0.47828776861E+02  0.28637434483E+02  0.69681258563E+02  0.00000000000E+00 0.  1.
         12    1    6    6    0    0  0.19527150301E+02  0.77130941730E+01 -0.93400669195E+01  0.22979083330E+02  0.00000000000E+00 0. -1.
         -5    1    3    3    0  503  0.92749057475E+02 -0.49415581031E+01 -0.69636710863E+02  0.11618161713E+03  0.47000000000E+01 0.  1.
         11    1    4    4    0    0 -0.46736506697E+02  0.30574747832E+01 -0.19206267538E+02  0.50621437386E+02  0.00000000000E+00 0. -1.
        -12    1    4    4    0    0  0.19273258934E+02  0.28581545425E+02 -0.59709375511E+02  0.68946158505E+02  0.00000000000E+00 0.  1.
</event>
<event>
12    1  0.8271773E-002  0.1732939E+03  0.7818608E-02  0.1174537E+00
         21   -1    0    0  501  502  0.00000000000E+00  0.00000000000E+00  0.11187265265E+03  0.11187265265E+03  0.00000000000E+00 0. -1.
         21   -1    0    0  502  503 -0.00000000000E+00 -0.00000000000E+00 -0.70041137501E+03  0.70041137501E+03  0.00000000000E+00 0. -1.
         -6    2    1    2    0  503 -0.21729340031E+02 -0.68718017110E+01 -0.61351292208E+03  0.63751776023E+03  0.17178883306E+03 0.  0.
        -24    2    3    3    0    0 -0.62853979425E+02  0.40545668260E+02 -0.42019581918E+03  0.43421196912E+03  0.79880746896E+02 0.  0.
          6    2    1    2  501    0  0.21729340031E+02  0.68718017110E+01  0.24974199720E+02  0.17476626744E+03  0.17146472437E+03 0.  0.
         24    2    5    5    0    0  0.12732874888E+02  0.46663902110E+02 -0.37153036975E+02  0.10029324428E+03  0.79616209580E+02 0.  0.
          5    1    5    5  501    0  0.89964651429E+01 -0.39792100399E+02  0.62127236695E+02  0.74473023160E+02  0.47000000000E+01 0. -1.
        -11    1    6    6    0    0 -0.14258164277E+02  0.10956682721E+02  0.20522906665E+02  0.27286147453E+02  0.00000000000E+00 0.  1.
         12    1    6    6    0    0  0.26991039165E+02  0.35707219388E+02 -0.57675943641E+02  0.73007096823E+02  0.00000000000E+00 0. -1.
         -5    1    3    3    0  503  0.41124639395E+02 -0.47417469971E+02 -0.19331710290E+03  0.20330579111E+03  0.47000000000E+01 0.  1.
         13    1    4    4    0    0 -0.11334142346E+02  0.19146249010E+02 -0.30906197872E+03  0.30986182134E+03  0.00000000000E+00 0. -1.
        -14    1    4    4    0    0 -0.51519837079E+02  0.21399419250E+02 -0.11113384046E+03  0.12435014778E+03  0.00000000000E+00 0.  1.
</event>
<event>
12    1  0.8271773E-002  0.2135149E+03  0.7818608E-02  0.1139018E+00
         21   -1    0    0  503  502  0.00000000000E+00  0.00000000000E+00  0.98746277261E+03  0.98746277261E+03  0.00000000000E+00 0. -1.
         21   -1    0    0  501  503 -0.00000000000E+00 -0.00000000000E+00 -0.49909272588E+02  0.49909272588E+02  0.00000000000E+00 0. -1.
          6    2    1    2  501    0  0.66344006467E+02  0.10545751666E+03  0.32354745488E+03  0.38764876931E+03  0.17339491854E+03 0.  0.
         24    2    3    3    0    0  0.46132169331E+01  0.23649313890E+01  0.68547243191E+02  0.10571620738E+03  0.80313867317E+02 0.  0.
         -6    2    1    2    0  502 -0.66344006467E+02 -0.10545751666E+03  0.61400604514E+03  0.64972327589E+03  0.17208746830E+03 0.  0.
        -24    2    5    5    0    0 -0.13330624747E+02 -0.86423673789E+00  0.12942699021E+03  0.15113614877E+03  0.76891723934E+02 0.  0.
          5    1    3    3  501    0  0.61730789534E+02  0.10309258527E+03  0.25500021169E+03  0.28193256193E+03  0.47000000000E+01 0. -1.
        -13    1    4    4    0    0 -0.39840369014E+01 -0.71134060316E+01  0.84709751420E+02  0.85101204933E+02  0.00000000000E+00 0.  1.
         14    1    4    4    0    0  0.85972538345E+01  0.94783374206E+01 -0.16162508229E+02  0.20615002450E+02  0.00000000000E+00 0. -1.
         -5    1    5    5    0  502 -0.53013381720E+02 -0.10459327992E+03  0.48457905494E+03  0.49858712712E+03  0.47000000000E+01 0.  1.
         11    1    6    6    0    0 -0.36995593218E+02 -0.45295387818E+00  0.12014476846E+03  0.12571254700E+03  0.00000000000E+00 0. -1.
        -12    1    6    6    0    0  0.23664968470E+02 -0.41128285971E+00  0.92822217430E+01  0.25423601767E+02  0.00000000000E+00 0.  1.
</event>
<event>
12    1  0.8271773E-002  0.2121004E+03  0.7818608E-02  0.1140277E+00
         21   -1    0    0  503  502  0.00000000000E+00  0.00000000000E+00  0.69270898704E+03  0.69270898704E+03  0.00000000000E+00 0. -1.
         21   -1    0    0  501  503 -0.00000000000E+00 -0.00000000000E+00 -0.15887119336E+03  0.15887119336E+03  0.00000000000E+00 0. -1.
          6    2    1    2  501    0 -0.12129451915E+03  0.47557505473E+01 -0.60984038121E+02  0.22069352474E+03  0.17392987500E+03 0.  0.
         24    2    3    3    0    0 -0.10223745239E+03 -0.10414757408E+02  0.21155387954E+02  0.13488972866E+03  0.84774551701E+02 0.  0.
         -6    2    1    2    0  502  0.12129451915E+03 -0.47557505473E+01  0.59482183179E+03  0.63088665566E+03  0.17166823578E+03 0.  0.
        -24    2    5    5    0    0  0.15512889851E+03 -0.12698810364E+02  0.50559721310E+03  0.53501705669E+03  0.79927930750E+02 0.  0.
          5    1    3    3  501    0 -0.19057066758E+02  0.15170507956E+02 -0.82139426075E+02  0.85803796076E+02  0.47000000000E+01 0. -1.
        -13    1    4    4    0    0 -0.24370157913E+02 -0.12378424915E+02  0.45675410196E+02  0.53229438252E+02  0.00000000000E+00 0.  1.
         14    1    4    4    0    0 -0.77867294478E+02  0.19636675070E+01 -0.24520022241E+02  0.81660290411E+02  0.00000000000E+00 0. -1.
         -5    1    5    5    0  502 -0.33834379366E+02  0.79430598172E+01  0.89224618692E+02  0.95869598972E+02  0.47000000000E+01 0.  1.
         13    1    6    6    0    0  0.76889093484E+01 -0.49700131876E+01  0.14604920461E+03  0.14633588256E+03  0.00000000000E+00 0. -1.
        -14    1    6    6    0    0  0.14743998917E+03 -0.77287971769E+01  0.35954800849E+03  0.38868117413E+03  0.00000000000E+00 0.  1.
</event>
<event>
12    1  0.8271773E-002  0.2131537E+03  0.7818608E-02  0.1139319E+00
         21   -1    0    0  501  502  0.00000000000E+00  0.00000000000E+00  0.49370334413E+02  0.49370334413E+02  0.00000000000E+00 0.  1.
         21   -1    0    0  502  503 -0.00000000000E+00 -0.00000000000E+00 -0.13306205920E+04  0.13306205920E+04  0.00000000000E+00 0. -1.
         -6    2    1    2    0  503 -0.87345411878E+02 -0.88892216925E+02 -0.10249242732E+04  0.10466180220E+04  0.17148898240E+03 0.  0.
        -24    2    3    3    0    0 -0.37516503531E+02 -0.53586948241E+02 -0.27270533717E+03  0.29190960165E+03  0.81018303831E+02 0.  0.
          6    2    1    2  501    0  0.87345411878E+02  0.88892216925E+02 -0.25632598437E+03  0.33337290435E+03  0.17292609948E+03 0.  0.
         24    2    5    5    0    0  0.84823325517E+02 -0.50217829296E+01 -0.17221103037E+03  0.20718409432E+03  0.77771428584E+02 0.  0.
          5    1    5    5  501    0  0.25220863608E+01  0.93913999855E+02 -0.84114954007E+02  0.12618881003E+03  0.47000000000E+01 0. -1.
        -13    1    6    6    0    0  0.60397006026E+02  0.78144797151E+01 -0.41750831784E+02  0.73837635288E+02  0.00000000000E+00 0.  1.
         14    1    6    6    0    0  0.24426319490E+02 -0.12836262645E+02 -0.13046019858E+03  0.13334645903E+03  0.00000000000E+00 0. -1.
         -5    1    3    3    0  503 -0.49828908346E+02 -0.35305268684E+02 -0.75221893601E+03  0.75470842038E+03  0.47000000000E+01 0.  1.
         11    1    4    4    0    0 -0.14787373253E+02 -0.22986105897E+02 -0.24038353301E+03  0.24193236744E+03  0.00000000000E+00 0. -1.
        -12    1    4    4    0    0 -0.22729130279E+02 -0.30600842344E+02 -0.32321804163E+02  0.49977234215E+02  0.00000000000E+00 0.  1.
</event>
<event>
12    1  0.8271773E-002  0.2241142E+03  0.7818608E-02  0.1131420E+00
         21   -1    0    0  503  502  0.00000000000E+00  0.00000000000E+00  0.36540884299E+03  0.36540884299E+03  0.00000000000E+00 0.  1.
         21   -1    0    0  501  503 -0.00000000000E+00 -0.00000000000E+00 -0.14854847824E+03  0.14854847824E+03  0.00000000000E+00 0. -1.
          6    2    1    2  501    0 -0.18297450511E+02 -0.13913355309E+03  0.31768006130E+02  0.22329192490E+03  0.17075460527E+03 0.  0.
         24    2    3    3    0    0  0.39278209223E+02 -0.56318146713E+02 -0.24649614149E+02  0.10762695179E+03  0.79129298648E+02 0.  0.
         -6    2    1    2    0  502  0.18297450511E+02  0.13913355309E+03  0.18509235862E+03  0.29066539633E+03  0.17474051938E+03 0.  0.
        -24    2    5    5    0    0  0.53574022212E+02  0.15447034283E+03  0.16866006898E+03  0.24857307193E+03  0.81308613019E+02 0.  0.
          5    1    3    3  501    0 -0.57575659734E+02 -0.82815406376E+02  0.56417620279E+02  0.11566497311E+03  0.47000000000E+01 0. -1.
        -11    1    4    4    0    0  0.34633509540E+02 -0.20814502484E+02  0.24170001790E+02  0.47084100111E+02  0.00000000000E+00 0.  1.
         12    1    4    4    0    0  0.46446996828E+01 -0.35503644229E+02 -0.48819615940E+02  0.60542851677E+02  0.00000000000E+00 0. -1.
         -5    1    5    5    0  502 -0.35276571701E+02 -0.15336789739E+02  0.16432289635E+02  0.42092324397E+02  0.47000000000E+01 0.  1.
         13    1    6    6    0    0 -0.47265634813E+01  0.10392750837E+03  0.11186622898E+03  0.15276557395E+03  0.00000000000E+00 0. -1.
        -14    1    6    6    0    0  0.58300585693E+02  0.50542834461E+02  0.56793840004E+02  0.95807497983E+02  0.00000000000E+00 0.  1.
</event>
<event>
12    1  0.8271773E-002  0.1763140E+03  0.7818608E-02  0.1171953E+00
         21   -1    0    0  503  502  0.00000000000E+00  0.00000000000E+00  0.53009294318E+03  0.53009294318E+03  0.00000000000E+00 0. -1.
         21   -1    0    0  501  503 -0.00000000000E+00 -0.00000000000E+00 -0.97020149950E+02  0.97020149950E+02  0.00000000000E+00 0. -1.
          6    2    1    2  501    0  0.31683376089E+01 -0.38483286778E+02  0.18311051399E+02  0.17726228915E+03  0.17203378397E+03 0.  0.
         24    2    3    3    0    0  0.48931977487E+02 -0.45944601732E+02 -0.31416304926E+02  0.10910891856E+03  0.80078255754E+02 0.  0.
         -6    2    1    2    0  502 -0.31683376089E+01  0.38483286778E+02  0.41476174183E+03  0.44985080398E+03  0.16984534621E+03 0.  0.
        -24    2    5    5    0    0  0.52368998351E+02  0.15887047667E+01  0.15441084107E+03  0.18105666827E+03  0.78700529305E+02 0.  0.
          5    1    3    3  501    0 -0.45763639879E+02  0.74613149540E+01  0.49727356325E+02  0.68153370590E+02  0.47000000000E+01 0. -1.
        -13    1    4    4    0    0  0.44794398346E+02 -0.13306420033E+02  0.17719707300E+02  0.49975863815E+02  0.00000000000E+00 0.  1.
         14    1    4    4    0    0  0.41375791414E+01 -0.32638181699E+02 -0.49136012226E+02  0.59133054743E+02  0.00000000000E+00 0. -1.
         -5    1    5    5    0  502 -0.55537335960E+02  0.36894582011E+02  0.26035090075E+03  0.26879413571E+03  0.47000000000E+01 0.  1.
         11    1    6    6    0    0  0.14215297871E+02  0.20396929209E+02  0.12928248254E+03  0.13165131867E+03  0.00000000000E+00 0. -1.
        -12    1    6    6    0    0  0.38153700480E+02 -0.18808224442E+02  0.25128358534E+02  0.49405349605E+02  0.00000000000E+00 0.  1.
</event>
<event>
12    1  0.8271773E-002  0.1975277E+03  0.7818608E-02  0.1151882E+00
         21   -1    0    0  501  502  0.00000000000E+00  0.00000000000E+00  0.43759883834E+03  0.43759883834E+03  0.00000000000E+00 0. -1.
         21   -1    0    0  502  503 -0.00000000000E+00 -0.00000000000E+00 -0.16160322570E+03  0.16160322570E+03  0.00000000000E+00 0. -1.
         -6    2    1    2    0  503 -0.80475820543E+02  0.53965620631E+02 -0.62745465134E+02  0.20707617034E+03  0.17191538915E+03 0.  0.
        -24    2    3    3    0    0 -0.72322278097E+02  0.72270103756E+02 -0.96818649594E+02  0.16726905721E+03  0.90286249138E+02 0.  0.
          6    2    1    2  501    0  0.80475820543E+02 -0.53965620631E+02  0.33874107777E+03  0.39212589370E+03  0.17212946535E+03 0.  0.
         24    2    5    5    0    0  0.11786352535E+03 -0.17172666359E+02  0.27638859292E+03  0.31050797703E+03  0.76405748643E+02 0.  0.
          5    1    5    5  501    0 -0.37387704808E+02 -0.36792954272E+02  0.62352484854E+02  0.81617916675E+02  0.47000000000E+01 0. -1.
        -13    1    6    6    0    0  0.49927085702E+02 -0.45503372718E+02  0.14318516972E+03  0.15832013026E+03  0.00000000000E+00 0.  1.
         14    1    6    6    0    0  0.67936439648E+02  0.28330706359E+02  0.13320342319E+03  0.15218784677E+03  0.00000000000E+00 0. -1.
         -5    1    3    3    0  503 -0.81535424456E+01 -0.18304483124E+02  0.34073184460E+02  0.39807113134E+02  0.47000000000E+01 0.  1.
         11    1    4    4    0    0 -0.90787696669E+02  0.44094000373E+02 -0.83690571137E+02  0.13111368515E+03  0.00000000000E+00 0. -1.
        -12    1    4    4    0    0  0.18465418571E+02  0.28176103382E+02 -0.13128078456E+02  0.36155372060E+02  0.00000000000E+00 0.  1.
</event>
<event>
12    1  0.8271773E-002  0.1924857E+03  0.7818608E-02  0.1156529E+00
         21   -1    0    0  501  502  0.00000000000E+00  0.00000000000E+00  0.59277707856E+02  0.59277707856E+02  0.00000000000E+00 0.  1.
         21   -1    0    0  502  503 -0.00000000000E+00 -0.00000000000E+00 -0.78551627924E+03  0.78551627924E+03  0.00000000000E+00 0.  1.
         -6    2    1    2    0  503  0.81909893288E+02 -0.24424484306E+02 -0.16872427543E+03  0.25498644829E+03  0.17101000450E+03 0.  0.
        -24    2    3    3    0    0 -0.13890542816E+02 -0.45419427107E+02 -0.71555926338E+02  0.11684778880E+03  0.79229310321E+02 0.  0.
          6    2    1    2  501    0 -0.81909893288E+02  0.24424484306E+02 -0.55751429596E+03  0.58980753881E+03  0.17246726238E+03 0.  0.
         24    2    5    5    0    0 -0.11996354639E+03  0.23953978025E+02 -0.49596818539E+03  0.51729329458E+03  0.81503780109E+02 0.  0.
          5    1    5    5  501    0  0.38053653103E+02  0.47050628066E+00 -0.61546110564E+02  0.72514244230E+02  0.47000000000E+01 0. -1.
        -11    1    6    6    0    0 -0.32651681522E+02 -0.10361614296E+02 -0.27651761558E+03  0.27863145386E+03  0.00000000000E+00 0.  1.
         12    1    6    6    0    0 -0.87311864869E+02  0.34315592322E+02 -0.21945056981E+03  0.23866184072E+03  0.00000000000E+00 0. -1.
         -5    1    3    3    0  503  0.95800436104E+02  0.20994942801E+02 -0.97168349094E+02  0.13813865949E+03  0.47000000000E+01 0.  1.
         11    1    4    4    0    0  0.15400661880E+01  0.17996449373E+00 -0.68600143835E+02  0.68617664820E+02  0.00000000000E+00 0. -1.
        -12    1    4    4    0    0 -0.15430609004E+02 -0.45599391600E+02 -0.29557825026E+01  0.48230123976E+02  0.00000000000E+00 0.  1.
</event>
<event>
12    1  0.8271773E-002  0.2168486E+03  0.7818608E-02  0.1136473E+00
         21   -1    0    0  501  502  0.00000000000E+00  0.00000000000E+00  0.47376720087E+03  0.47376720087E+03  0.00000000000E+00 0.  1.
         21   -1    0    0  502  503 -0.00000000000E+00 -0.00000000000E+00 -0.18920925041E+03  0.18920925041E+03  0.00000000000E+00 0.  1.
         -6    2    1    2    0  503 -0.13151641663E+03 -0.36487285564E+01 -0.87148532211E+02  0.23264049750E+03  0.17092938117E+03 0.  0.
        -24    2    3    3    0    0 -0.14776232496E+03 -0.41219944433E+02 -0.71076108929E+02  0.18841450299E+03  0.83159023450E+02 0.  0.
          6    2    1    2  501    0  0.13151641663E+03  0.36487285564E+01  0.37170648268E+03  0.43033595378E+03  0.17237587647E+03 0.  0.
         24    2    5    5    0    0  0.14864310756E+03  0.42679653359E+02  0.30458877521E+03  0.35068915040E+03  0.79323590360E+02 0.  0.
          5    1    5    5  501    0 -0.17126690930E+02 -0.39030924803E+02  0.67117707464E+02  0.79646803379E+02  0.47000000000E+01 0. -1.
        -11    1    6    6    0    0  0.92762598661E+02 -0.75968726832E+01  0.21125787720E+03  0.23085169019E+03  0.00000000000E+00 0.  1.
         12    1    6    6    0    0  0.55880508902E+02  0.50276526043E+02  0.93330898010E+02  0.11983746021E+03  0.00000000000E+00 0. -1.
         -5    1    3    3    0  503  0.16245908327E+02  0.37571215877E+02 -0.16072423282E+02  0.44225994505E+02  0.47000000000E+01 0.  1.
         13    1    4    4    0    0 -0.56524283472E+02 -0.39276324884E+01  0.13827378008E+02  0.58323385546E+02  0.00000000000E+00 0. -1.
        -14    1    4    4    0    0 -0.91238041487E+02 -0.37292311945E+02 -0.84903486937E+02  0.13009111745E+03  0.00000000000E+00 0.  1.
</event>
<event>
12    1  0.8271773E-002  0.1919979E+03  0.7818608E-02  0.1156872E+00
         21   -1    0    0  503  502  0.00000000000E+00  0.00000000000E+00  0.16332395106E+03  0.16332395106E+03  0.00000000000E+00 0.  1.
         21   -1    0    0  501  503 -0.00000000000E+00 -0.00000000000E+00 -0.22497586270E+03  0.22497586270E+03  0.00000000000E+00 0.  1.
          6    2    1    2  501    0 -0.58747576690E+02 -0.56484819563E+02 -0.23381465324E+02  0.19252485118E+03  0.17285055045E+03 0.  0.
         24    2    3    3    0    0 -0.76755475702E+02 -0.91365112702E+02  0.61358660895E+01  0.14318640643E+03  0.78903176516E+02 0.  0.
         -6    2    1    2    0  502  0.58747576690E+02  0.56484819563E+02 -0.38270446316E+02  0.19577496258E+03  0.17384302201E+03 0.  0.
        -24    2    5    5    0    0  0.86369931441E+02  0.47419168504E+01 -0.70554137547E+02  0.12865827923E+03  0.63975117490E+02 0.  0.
          5    1    3    3  501    0  0.18007899012E+02  0.34880293139E+02 -0.29517331413E+02  0.49338444747E+02  0.47000000000E+01 0. -1.
        -13    1    4    4    0    0 -0.81469605398E+02 -0.76062439249E+02  0.29097373572E+02  0.11519309188E+03  0.00000000000E+00 0.  1.
         14    1    4    4    0    0  0.47141296953E+01 -0.15302673452E+02 -0.22961507483E+02  0.27993314549E+02  0.00000000000E+00 0. -1.
         -5    1    5    5    0  502 -0.27622354751E+02  0.51742902713E+02  0.32283691231E+02  0.67116683341E+02  0.47000000000E+01 0.  1.
         11    1    6    6    0    0  0.52199816020E+02 -0.24923681971E+02 -0.20966608784E+02  0.61527306128E+02  0.00000000000E+00 0. -1.
        -12    1    6    6    0    0  0.34170115422E+02  0.29665598821E+02 -0.49587528764E+02  0.67130973106E+02  0.00000000000E+00 0.  1.
</event>
<event>
12    1  0.8271773E-002  0.2310137E+03  0.7818608E-02  0.1126201E+00
         21   -1    0    0  501  502  0.00000000000E+00  0.00000000000E+00  0.43576542349E+03  0.43576542349E+03  0.00000000000E+00 0. -1.
         21   -1    0    0  502  503 -0.00000000000E+00 -0.00000000000E+00 -0.18325949314E+03  0.18325949314E+03  0.00000000000E+00 0. -1.
         -6    2    1    2    0  503  0.12774070757E+03 -0.83263441010E+02 -0.52928807633E+02  0.23699951930E+03  0.17354199633E+03 0.  0.
        -24    2    3    3    0    0  0.14819464064E+02 -0.79330546657E+02 -0.36294148357E+02  0.12269520275E+03  0.84993502247E+02 0.  0.
          6    2    1    2  501    0 -0.12774070757E+03  0.83263441010E+02  0.30543473798E+03  0.38202539734E+03  0.17147167715E+03 0.  0.
         24    2    5    5    0    0 -0.13741634524E+03  0.58171747286E+02  0.15486230465E+03  0.22899808363E+03  0.78680269362E+02 0.  0.
          5    1    5    5  501    0  0.96756376635E+01  0.25091693724E+02  0.15057243334E+03  0.15302731370E+03  0.47000000000E+01 0. -1.
        -11    1    6    6    0    0 -0.94922626015E+01 -0.16602578677E+02  0.92227733717E+01  0.21232244740E+02  0.00000000000E+00 0.  1.
         12    1    6    6    0    0 -0.12792408264E+03  0.74774325963E+02  0.14563953127E+03  0.20776583889E+03  0.00000000000E+00 0. -1.
         -5    1    3    3    0  503  0.11292124351E+03 -0.39328943525E+01 -0.16634659277E+02  0.11430431655E+03  0.47000000000E+01 0.  1.
         11    1    4    4    0    0  0.24860871750E+02  0.10252808555E+02 -0.56043598728E+01  0.27469835767E+02  0.00000000000E+00 0. -1.
        -12    1    4    4    0    0 -0.10041407686E+02 -0.89583355213E+02 -0.30689788484E+02  0.95225366981E+02  0.00000000000E+00 0.  1.
</event>
<event>
12    1  0.8271773E-002  0.1962716E+03  0.7818608E-02  0.1152993E+00
         21   -1    0    0  501  502  0.00000000000E+00  0.00000000000E+00  0.34104390772E+02  0.34104390772E+02  0.00000000000E+00 0.  1.
         21   -1    0    0  502  503 -0.00000000000E+00 -0.00000000000E+00 -0.11850548431E+04  0.11850548431E+04  0.00000000000E+00 0.  1.
         -6    2    1    2    0  503 -0.56440903747E+02  0.74902636356E+02 -0.70914723378E+03  0.73572087762E+03  0.17204484888E+03 0.  0.
        -24    2    3    3    0    0  0.61635011859E+01  0.87290194368E+02 -0.58712574809E+03  0.59793809175E+03  0.71803556404E+02 0.  0.
          6    2    1    2  501    0  0.56440903747E+02 -0.74902636356E+02 -0.44180321852E+03  0.48343835623E+03  0.17241397807E+03 0.  0.
         24    2    5    5    0    0  0.51792425393E+02 -0.59867080650E+02 -0.12758620864E+03  0.16879237170E+03  0.77110968319E+02 0.  0.
          5    1    5    5  501    0  0.46484783533E+01 -0.15035555705E+02 -0.31421700987E+03  0.31464598453E+03  0.47000000000E+01 0. -1.
        -11    1    6    6    0    0  0.25298432569E+02 -0.19501258147E+02 -0.11434939104E+03  0.11872696826E+03  0.00000000000E+00 0.  1.
         12    1    6    6    0    0  0.26493992824E+02 -0.40365822503E+02 -0.13236817604E+02  0.50065403447E+02  0.00000000000E+00 0. -1.
         -5    1    3    3    0  503 -0.62604404932E+02 -0.12387558013E+02 -0.12202148569E+03  0.13778278587E+03  0.47000000000E+01 0.  1.
         11    1    4    4    0    0  0.35217291173E+02  0.48827425942E+02 -0.23779861095E+03  0.24530094678E+03  0.00000000000E+00 0. -1.
        -12    1    4    4    0    0 -0.29053789987E+02  0.38462768426E+02 -0.34932713714E+03  0.35263714497E+03  0.00000000000E+00 0.  1.
</event>
<event>
12    1  0.8271773E-002  0.1877548E+03  0.7818608E-02  0.1160599E+00
         21   -1    0    0  501  502  0.00000000000E+00  0.00000000000E+00  0.73423808873E+02  0.73423808873E+02  0.00000000000E+00 0.  1.
         21   -1    0    0  502  503 -0.00000000000E+00 -0.00000000000E+00 -0.64011089539E+03  0.64011089539E+03  0.00000000000E+00 0.  1.
         -6    2    1    2    0  503 -0.41599841114E+01  0.74238795768E+02 -0.46207345285E+03  0.49860246019E+03  0.17194136565E+03 0.  0.
        -24    2    3    3    0    0 -0.62055206087E+02  0.77471833809E+02 -0.32210731675E+03  0.34702766507E+03  0.82597476871E+02 0.  0.
          6    2    1    2  501    0  0.41599841114E+01 -0.74238795768E+02 -0.10461363368E+03  0.21493224407E+03  0.17240403976E+03 0.  0.
         24    2    5    5    0    0  0.55154239206E+02 -0.58054774506E+02 -0.19862585376E+02  0.11459697219E+03  0.79533620506E+02 0.  0.
          5    1    5    5  501    0 -0.50994255094E+02 -0.16184021262E+02 -0.84751048300E+02  0.10033527189E+03  0.47000000000E+01 0. -1.
        -13    1    6    6    0    0  0.79424424806E+01 -0.63195833434E+02 -0.15922060203E+01  0.63712878416E+02  0.00000000000E+00 0.  1.
         14    1    6    6    0    0  0.47211796725E+02  0.51410589281E+01 -0.18270379356E+02  0.50884093769E+02  0.00000000000E+00 0. -1.
         -5    1    3    3    0  503  0.57895221976E+02 -0.32330380410E+01 -0.13996613609E+03  0.15157479512E+03  0.47000000000E+01 0.  1.
         13    1    4    4    0    0 -0.11427117450E+02 -0.17780588048E+02 -0.58629917219E+02  0.62323314399E+02  0.00000000000E+00 0. -1.
        -14    1    4    4    0    0 -0.50628088637E+02  0.95252421858E+02 -0.26347739953E+03  0.28470435068E+03  0.00000000000E+00 0.  1.
</event>
<event>
12    1  0.8271773E-002  0.2594692E+03  0.7818608E-02  0.1107611E+00
         21   -1    0    0  503  502  0.00000000000E+00  0.00000000000E+00  0.14980043814E+04  0.14980043814E+04  0.00000000000E+00 0.  1.
         21   -1    0    0  501  503 -0.00000000000E+00 -0.00000000000E+00 -0.58843140676E+02  0.58843140676E+02  0.00000000000E+00 0. -1.
          6    2    1    2  501    0  0.29308829373E+02  0.19003354660E+03  0.10991938813E+04  0.11291770048E+04  0.17274768641E+03 0.  0.
         24    2    3    3    0    0  0.51150132901E+02  0.16892016244E+03  0.63372989483E+03  0.66269910582E+03  0.80038539963E+02 0.  0.
         -6    2    1    2    0  502 -0.29308829373E+02 -0.19003354660E+03  0.33996735944E+03  0.42767051729E+03  0.17421971635E+03 0.  0.
        -24    2    5    5    0    0 -0.89596245846E+02 -0.14401884271E+03  0.23210094752E+03  0.29572667174E+03  0.69386599674E+02 0.  0.
          5    1    3    3  501    0 -0.21841303528E+02  0.21113384159E+02  0.46546398649E+03  0.46647789900E+03  0.47000000000E+01 0. -1.
        -13    1    4    4    0    0  0.56464894225E+02  0.16521831894E+03  0.63243496417E+03  0.65609401849E+03  0.00000000000E+00 0.  1.
         14    1    4    4    0    0 -0.53147613242E+01  0.37018435086E+01  0.12949306633E+01  0.66050873361E+01  0.00000000000E+00 0. -1.
         -5    1    5    5    0  502  0.60287416473E+02 -0.46014703895E+02  0.10786641191E+03  0.13194384555E+03  0.47000000000E+01 0.  1.
         11    1    6    6    0    0 -0.68942261472E+02 -0.13674623203E+03  0.22599363336E+03  0.27299393713E+03  0.00000000000E+00 0. -1.
        -12    1    6    6    0    0 -0.20653984374E+02 -0.72726106759E+01  0.61073141625E+01  0.22732734610E+02  0.00000000000E+00 0.  1.
</event>
<event>
12    1  0.8271773E-002  0.1923651E+03  0.7818608E-02  0.1156884E+00
         21   -1    0    0  503  502  0.00000000000E+00  0.00000000000E+00  0.46387929992E+03  0.46387929992E+03  0.00000000000E+00 0.  1.
         21   -1    0    0  501  503 -0.00000000000E+00 -0.00000000000E+00 -0.16987669120E+03  0.16987669120E+03  0.00000000000E+00 0.  1.
          6    2    1    2  501    0 -0.38744348910E+02  0.75371652388E+02 -0.85481395943E+02  0.20830042386E+03  0.16999996169E+03 0.  0.
         24    2    3    3    0    0 -0.14383979800E+02  0.57924377863E+02 -0.12390697820E+03  0.15934687094E+03  0.80475795153E+02 0.  0.
         -6    2    1    2    0  502  0.38744348910E+02 -0.75371652388E+02  0.37948400466E+03  0.42545556726E+03  0.17269139921E+03 0.  0.
        -24    2    5    5    0    0  0.60094318863E+02 -0.99953927168E+02  0.21175865993E+03  0.25453456002E+03  0.79649215146E+02 0.  0.
          5    1    3    3  501    0 -0.24360369109E+02  0.17447274525E+02  0.38425582261E+02  0.48953552921E+02  0.47000000000E+01 0. -1.
        -13    1    4    4    0    0  0.30693226436E+02  0.14897395597E+02 -0.65915746523E+02  0.74221911753E+02  0.00000000000E+00 0.  1.
         14    1    4    4    0    0 -0.45077206236E+02  0.43026982267E+02 -0.57991231681E+02  0.85124959189E+02  0.00000000000E+00 0. -1.
         -5    1    5    5    0  502 -0.21349969954E+02  0.24582274780E+02  0.16772534474E+03  0.17092100725E+03  0.47000000000E+01 0.  1.
         13    1    6    6    0    0  0.20823318119E+02 -0.80937040003E+00  0.43073417369E+01  0.21279540661E+02  0.00000000000E+00 0. -1.
        -14    1    6    6    0    0  0.39271000745E+02 -0.99144556768E+02  0.20745131819E+03  0.23325501936E+03  0.00000000000E+00 0.  1.
</event>
<event>
12    1  0.8271773E-002  0.1923091E+03  0.7818608E-02  0.1157702E+00
         21   -1    0    0  501  502  0.00000000000E+00  0.00000000000E+00  0.90584447627E+03  0.90584447627E+03  0.00000000000E+00 0.  1.
         21   -1    0    0  502  503 -0.00000000000E+00 -0.00000000000E+00 -0.14518364158E+03  0.14518364158E+03  0.00000000000E+00 0.  1.
         -6    2    1    2    0  503 -0.70358152057E+02 -0.20685380401E+02 -0.69379464212E+02  0.19900130406E+03  0.17149301572E+03 0.  0.
        -24    2    3    3    0    0 -0.11666985654E+02  0.23885323175E+02 -0.88779764035E+02  0.12264907905E+03  0.80338800543E+02 0.  0.
          6    2    1    2  501    0  0.70358152057E+02  0.20685380401E+02  0.83004029890E+03  0.85202681378E+03  0.17777693629E+03 0.  0.
         24    2    5    5    0    0  0.58501004867E+01  0.53230980225E+02  0.66410347288E+03  0.67098089415E+03  0.79461793898E+02 0.  0.
          5    1    5    5  501    0  0.64508051571E+02 -0.32545599823E+02  0.16593682602E+03  0.18104591963E+03  0.47000000000E+01 0. -1.
        -13    1    6    6    0    0  0.67477775700E+01  0.55720290896E+01  0.50045428375E+03  0.50053078840E+03  0.00000000000E+00 0.  1.
         14    1    6    6    0    0 -0.89767708328E+00  0.47658951135E+02  0.16364918912E+03  0.17045010575E+03  0.00000000000E+00 0. -1.
         -5    1    3    3    0  503 -0.58691166404E+02 -0.44570703576E+02  0.19400299823E+02  0.76352225012E+02  0.47000000000E+01 0.  1.
         11    1    4    4    0    0 -0.22581368748E+02 -0.25455628489E+02 -0.33460536279E+02  0.47723314264E+02  0.00000000000E+00 0. -1.
        -12    1    4    4    0    0  0.10914383094E+02  0.49340951664E+02 -0.55319227756E+02  0.74925764787E+02  0.00000000000E+00 0.  1.
</event>
<event>
12    1  0.8271773E-002  0.2020272E+03  0.7818608E-02  0.1152165E+00
         21   -1    0    0  503  502  0.00000000000E+00  0.00000000000E+00  0.10574860224E+03  0.10574860224E+03  0.00000000000E+00 0.  1.
         21   -1    0    0  501  503 -0.00000000000E+00 -0.00000000000E+00 -0.42650186396E+03  0.42650186396E+03  0.00000000000E+00 0.  1.
          6    2    1    2  501    0 -0.61572635495E+02  0.84003842671E+01 -0.26589754315E+03  0.32290828976E+03  0.17235574910E+03 0.  0.
         24    2    3    3    0    0 -0.62831604761E+02  0.66480051983E+02 -0.13711058311E+03  0.18154703665E+03  0.76109175847E+02 0.  0.
         -6    2    1    2    0  502  0.61572635495E+02 -0.84003842671E+01 -0.54855718581E+02  0.20934217644E+03  0.19223225816E+03 0.  0.
        -24    2    5    5    0    0 -0.56985688077E+01  0.52386143013E+02 -0.71783324802E+02  0.11698931682E+03  0.75874059227E+02 0.  0.
          5    1    3    3  501    0  0.12589692654E+01 -0.58079667716E+02 -0.12878696004E+03  0.14136125312E+03  0.47000000000E+01 0. -1.
        -13    1    4    4    0    0 -0.67470567443E+02  0.32220353972E+02 -0.12354510726E+03  0.14440852541E+03  0.00000000000E+00 0.  1.
         14    1    4    4    0    0  0.46389626819E+01  0.34259698011E+02 -0.13565475842E+02  0.37138511244E+02  0.00000000000E+00 0. -1.
         -5    1    5    5    0  502  0.67271204303E+02 -0.60786527280E+02  0.16927606222E+02  0.92352859618E+02  0.47000000000E+01 0.  1.
         13    1    6    6    0    0 -0.38540209907E+02  0.34584646171E+02 -0.56466007073E+02  0.76614982120E+02  0.00000000000E+00 0. -1.
        -14    1    6    6    0    0  0.32841641099E+02  0.17801496842E+02 -0.15317317729E+02  0.40374334698E+02  0.00000000000E+00 0.  1.
</event>
<event>
12    1  0.8271773E-002  0.2073798E+03  0.7818608E-02  0.1143854E+00
         21   -1    0    0  501  502  0.00000000000E+00  0.00000000000E+00  0.18005489028E+02  0.18005489028E+02  0.00000000000E+00 0. -1.
         21   -1    0    0  502  503 -0.00000000000E+00 -0.00000000000E+00 -0.26594500552E+04  0.26594500552E+04  0.00000000000E+00 0. -1.
         -6    2    1    2    0  503  0.11449557091E+03 -0.87404351630E+01 -0.17539716898E+04  0.17660749987E+04  0.17151845843E+03 0.  0.
        -24    2    3    3    0    0  0.14719826070E+03  0.50292718054E+01 -0.13566867594E+04  0.13671809317E+04  0.83018765952E+02 0.  0.
          6    2    1    2  501    0 -0.11449557091E+03  0.87404351630E+01 -0.88747287644E+03  0.91138054555E+03  0.17268688844E+03 0.  0.
         24    2    5    5    0    0 -0.70357635093E+02  0.45028554903E+02 -0.30965416071E+03  0.33072441388E+03  0.80716609912E+02 0.  0.
          5    1    5    5  501    0 -0.44137935821E+02 -0.36288119740E+02 -0.57781871572E+03  0.58065613168E+03  0.47000000000E+01 0. -1.
        -13    1    6    6    0    0  0.90392099594E+01 -0.73836602962E+00 -0.14506936841E+01  0.91846074086E+01  0.00000000000E+00 0.  1.
         14    1    6    6    0    0 -0.79396845052E+02  0.45766920933E+02 -0.30820346703E+03  0.32153980647E+03  0.00000000000E+00 0. -1.
         -5    1    3    3    0  503 -0.32702689791E+02 -0.13769706968E+02 -0.39728493042E+03  0.39889406701E+03  0.47000000000E+01 0.  1.
         13    1    4    4    0    0  0.77329960088E+02  0.42539011850E+02 -0.80504219787E+03  0.80986568677E+03  0.00000000000E+00 0. -1.
        -14    1    4    4    0    0  0.69868300616E+02 -0.37509740045E+02 -0.55164456149E+03  0.55731524495E+03  0.00000000000E+00 0.  1.
</event>
<event>
12    1  0.8271773E-002  0.2065957E+03  0.7818608E-02  0.1145832E+00
         21   -1    0    0  501  502  0.00000000000E+00  0.00000000000E+00  0.48519496140E+03  0.48519496140E+03  0.00000000000E+00 0.  1.
         21   -1    0    0  502  503 -0.00000000000E+00 -0.00000000000E+00 -0.15699195822E+03  0.15699195822E+03  0.00000000000E+00 0.  1.
         -6    2    1    2    0  503  0.10286312686E+03  0.19215732913E+01 -0.55228950847E+02  0.20663917341E+03  0.17048459069E+03 0.  0.
        -24    2    3    3    0    0  0.46991604967E+02  0.29440605161E+02 -0.90369198272E+02  0.13497432106E+03  0.83525536087E+02 0.  0.
          6    2    1    2  501    0 -0.10286312686E+03 -0.19215732913E+01  0.38343195403E+03  0.43554774620E+03  0.17915708343E+03 0.  0.
         24    2    5    5    0    0 -0.10459318896E+03  0.60826801184E+02  0.29244327783E+03  0.32490697248E+03  0.73497177502E+02 0.  0.
          5    1    5    5  501    0  0.17300620979E+01 -0.62748374476E+02  0.90988676199E+02  0.11064077373E+03  0.47000000000E+01 0. -1.
        -13    1    6    6    0    0  0.90821878344E+01  0.18510990049E+01  0.48646079225E+02  0.49521245212E+02  0.00000000000E+00 0.  1.
         14    1    6    6    0    0 -0.11367537679E+03  0.58975702180E+02  0.24379719860E+03  0.27538572727E+03  0.00000000000E+00 0. -1.
         -5    1    3    3    0  503  0.55871521891E+02 -0.27519031870E+02  0.35140247425E+02  0.71664852352E+02  0.47000000000E+01 0.  1.
         13    1    4    4    0    0  0.33061231583E+02  0.58960661202E+02 -0.59742426082E+02  0.90213979390E+02  0.00000000000E+00 0. -1.
        -14    1    4    4    0    0  0.13930373384E+02 -0.29520056041E+02 -0.30626772189E+02  0.44760341666E+02  0.00000000000E+00 0.  1.
</event>
<event>
12    1  0.8271773E-002  0.2332115E+03  0.7818608E-02  0.1124481E+00
         21   -1    0    0  501  502  0.00000000000E+00  0.00000000000E+00  0.17716365677E+04  0.17716365677E+04  0.00000000000E+00 0.  1.
         21   -1    0    0  502  503 -0.00000000000E+00 -0.00000000000E+00 -0.30641194765E+02  0.30641194765E+02  0.00000000000E+00 0. -1.
         -6    2    1    2    0  503  0.13205625403E+03  0.86784111689E+02  0.87999846913E+03  0.91025575882E+03  0.17087394334E+03 0.  0.
        -24    2    3    3    0    0  0.37056993135E+02  0.10122002869E+02  0.13473943260E+03  0.15505044896E+03  0.66409723262E+02 0.  0.
          6    2    1    2  501    0 -0.13205625403E+03 -0.86784111689E+02  0.86099690381E+03  0.89202200365E+03  0.17151457771E+03 0.  0.
         24    2    5    5    0    0 -0.47662288213E+02 -0.74175347741E+01  0.58502393770E+03  0.59268179082E+03  0.81804547222E+02 0.  0.
          5    1    5    5  501    0 -0.84393965820E+02 -0.79366576915E+02  0.27597296611E+03  0.29934021284E+03  0.47000000000E+01 0. -1.
        -11    1    6    6    0    0 -0.13105215637E+02 -0.23545372066E+02  0.48320125643E+03  0.48395204870E+03  0.00000000000E+00 0.  1.
         12    1    6    6    0    0 -0.34557072576E+02  0.16127837292E+02  0.10182268126E+03  0.10872974212E+03  0.00000000000E+00 0. -1.
         -5    1    3    3    0  503  0.94999260898E+02  0.76662108820E+02  0.74525903653E+03  0.75520530985E+03  0.47000000000E+01 0.  1.
         11    1    4    4    0    0  0.23619185479E+01 -0.22180226101E+02  0.77936345539E+02  0.81065498488E+02  0.00000000000E+00 0. -1.
        -12    1    4    4    0    0  0.34695074587E+02  0.32302228971E+02  0.56803087062E+02  0.73984950475E+02  0.00000000000E+00 0.  1.
</event>
<event>
12    1  0.8271773E-002  0.2149855E+03  0.7818608E-02  0.1137946E+00
         21   -1    0    0  501  502  0.00000000000E+00  0.00000000000E+00  0.20936642548E+03  0.20936642548E+03  0.00000000000E+00 0.  1.
         21   -1    0    0  502  503 -0.00000000000E+00 -0.00000000000E+00 -0.24230562570E+03  0.24230562570E+03  0.00000000000E+00 0.  1.
         -6    2    1    2    0  503  0.12471442052E+03  0.25702481355E+02 -0.86060460013E+02  0.23157105000E+03  0.17321790954E+03 0.  0.
        -24    2    3    3    0    0  0.12282946247E+03  0.29959225329E+02 -0.40093557409E+01  0.14925369673E+03  0.79220950656E+02 0.  0.
          6    2    1    2  501    0 -0.12471442052E+03 -0.25702481355E+02  0.53121259795E+02  0.22010100118E+03  0.17148842014E+03 0.  0.
         24    2    5    5    0    0 -0.98291798406E+02 -0.19078400780E+02  0.10237124763E+03  0.16362370747E+03  0.79168063603E+02 0.  0.
          5    1    5    5  501    0 -0.26422622114E+02 -0.66240805756E+01 -0.49249987834E+02  0.56477293707E+02  0.47000000000E+01 0. -1.
        -13    1    6    6    0    0 -0.34040250441E+02  0.19816198245E+02  0.36176326777E+01  0.39553857323E+02  0.00000000000E+00 0.  1.
         14    1    6    6    0    0 -0.64251547965E+02 -0.38894599025E+02  0.98753614951E+02  0.12406985015E+03  0.00000000000E+00 0. -1.
         -5    1    3    3    0  503  0.18849580518E+01 -0.42567439735E+01 -0.82051104272E+02  0.82317353264E+02  0.47000000000E+01 0.  1.
         13    1    4    4    0    0  0.76282262890E+01  0.11749048948E+02 -0.26963078267E+02  0.30384824784E+02  0.00000000000E+00 0. -1.
        -14    1    4    4    0    0  0.11520123618E+03  0.18210176381E+02  0.22953722526E+02  0.11886887195E+03  0.00000000000E+00 0.  1.
</event>
<event>
12    1  0.8271773E-002  0.2188393E+03  0.7818608E-02  0.1134769E+00
         21   -1    0    0  501  502  0.00000000000E+00  0.00000000000E+00  0.41953399656E+03  0.41953399656E+03  0.00000000000E+00 0.  1.
         21   -1    0    0  502  503 -0.00000000000E+00 -0.00000000000E+00 -0.25228504705E+03  0.25228504705E+03  0.00000000000E+00 0.  1.
         -6    2    1    2    0  503 -0.13235248776E+03 -0.21310912394E+02 -0.16498342696E+03  0.27398869793E+03  0.17285525569E+03 0.  0.
        -24    2    3    3    0    0 -0.97505102880E+01 -0.50166348056E+02 -0.61742731875E+02  0.11106352441E+03  0.76884371533E+02 0.  0.
          6    2    1    2  501    0  0.13235248776E+03  0.21310912394E+02  0.33223237647E+03  0.39783034567E+03  0.17297195136E+03 0.  0.
         24    2    5    5    0    0  0.30317861407E+02 -0.15208220220E+02  0.60347176099E+02  0.10510459654E+03  0.79086862805E+02 0.  0.
          5    1    5    5  501    0  0.10203462635E+03  0.36519132614E+02  0.27188520037E+03  0.29272574913E+03  0.47000000000E+01 0. -1.
        -13    1    6    6    0    0  0.53742732425E+02 -0.13296149577E+02  0.59943490702E+02  0.81598351451E+02  0.00000000000E+00 0.  1.
         14    1    6    6    0    0 -0.23424871018E+02 -0.19120706432E+01  0.40368539761E+00  0.23506245090E+02  0.00000000000E+00 0. -1.
         -5    1    3    3    0  503 -0.12260197747E+03  0.28855435662E+02 -0.10324069508E+03  0.16292517353E+03  0.47000000000E+01 0.  1.
         11    1    4    4    0    0  0.24231021485E+02 -0.40928493989E+02 -0.58939436706E+02  0.75737317234E+02  0.00000000000E+00 0. -1.
        -12    1    4    4    0    0 -0.33981531773E+02 -0.92378540669E+01 -0.28032951686E+01  0.35326207173E+02  0.00000000000E+00 0.  1.
</event>
<event>
12    1  0.8271773E-002  0.1938710E+03  0.7818608E-02  0.1157087E+00
         21   -1    0    0  503  502  0.00000000000E+00  0.00000000000E+00  0.61926041578E+03  0.61926041578E+03  0.00000000000E+00 0. -1.
         21   -1    0    0  501  503 -0.00000000000E+00 -0.00000000000E+00 -0.58511934116E+02  0.58511934116E+02  0.00000000000E+00 0.  1.
          6    2    1    2  501    0 -0.84486968502E+02  0.26418350006E+02  0.23766493550E+03  0.30098467300E+03  0.16208385100E+03 0.  0.
         24    2    3    3    0    0 -0.65858810820E+02  0.31437793616E+02  0.25349383411E+03  0.27559083312E+03  0.79783867631E+02 0.  0.
         -6    2    1    2    0  502  0.84486968502E+02 -0.26418350006E+02  0.32308354617E+03  0.37678767689E+03  0.17248187902E+03 0.  0.
        -24    2    5    5    0    0 -0.20652922713E+02 -0.27454802684E+01  0.17561553755E+03  0.19407559450E+03  0.79940218121E+02 0.  0.
          5    1    3    3  501    0 -0.18628157681E+02 -0.50194436097E+01 -0.15828898618E+02  0.25393839887E+02  0.47000000000E+01 0. -1.
        -11    1    4    4    0    0 -0.36305071553E+02  0.29142834456E+02  0.44156244487E+02  0.64164919916E+02  0.00000000000E+00 0.  1.
         12    1    4    4    0    0 -0.29553739268E+02  0.22949591602E+01  0.20933758963E+03  0.21142591320E+03  0.00000000000E+00 0. -1.
         -5    1    5    5    0  502  0.10513989121E+03 -0.23672869738E+02  0.14746800862E+03  0.18271208239E+03  0.47000000000E+01 0.  1.
         11    1    6    6    0    0 -0.35551711460E+02 -0.30289448804E+02  0.71919347915E+02  0.85754110695E+02  0.00000000000E+00 0. -1.
        -12    1    6    6    0    0  0.14898788748E+02  0.27543968536E+02  0.10369618964E+03  0.10832148381E+03  0.00000000000E+00 0.  1.
</event>
<event>
12    1  0.8271773E-002  0.1954873E+03  0.7818608E-02  0.1153639E+00
         21   -1    0    0  501  502  0.00000000000E+00  0.00000000000E+00  0.16216257561E+03  0.16216257561E+03  0.00000000000E+00 0. -1.
         21   -1    0    0  502  503 -0.00000000000E+00 -0.00000000000E+00 -0.83120839458E+03  0.83120839458E+03  0.00000000000E+00 0. -1.
         -6    2    1    2    0  503 -0.70728941246E+02  0.56247167524E+02 -0.75505427791E+03  0.77995016346E+03  0.17334638126E+03 0.  0.
        -24    2    3    3    0    0 -0.44644441263E+02 -0.25324808742E+02 -0.25125159561E+03  0.26889867765E+03  0.80899088195E+02 0.  0.
          6    2    1    2  501    0  0.70728941246E+02 -0.56247167524E+02  0.86008458943E+02  0.21342080673E+03  0.17316078872E+03 0.  0.
         24    2    5    5    0    0  0.47684492130E+01  0.32312061426E+02  0.37022027201E+02  0.92527117743E+02  0.78254901433E+02 0.  0.
          5    1    5    5  501    0  0.65960492033E+02 -0.88559228950E+02  0.48986431743E+02  0.12089368898E+03  0.47000000000E+01 0. -1.
        -13    1    6    6    0    0 -0.16140454290E+02 -0.21360065856E+02  0.16119816169E+02  0.31250842410E+02  0.00000000000E+00 0.  1.
         14    1    6    6    0    0  0.20908903503E+02  0.53672127282E+02  0.20902211032E+02  0.61276275333E+02  0.00000000000E+00 0. -1.
         -5    1    3    3    0  503 -0.26084499983E+02  0.81571976266E+02 -0.50380268230E+03  0.51105148581E+03  0.47000000000E+01 0.  1.
         11    1    4    4    0    0 -0.63417926597E+02 -0.23368402720E+02 -0.23314232493E+03  0.24274113647E+03  0.00000000000E+00 0. -1.
        -12    1    4    4    0    0  0.18773485334E+02 -0.19564060215E+01 -0.18109270681E+02  0.26157541182E+02  0.00000000000E+00 0.  1.
</event>
<event>
12    1  0.8271773E-002  0.1982914E+03  0.7818608E-02  0.1151347E+00
         21   -1    0    0  501  502  0.00000000000E+00  0.00000000000E+00  0.13271214342E+03  0.13271214342E+03  0.00000000000E+00 0.  1.
         21   -1    0    0  502  503 -0.00000000000E+00 -0.00000000000E+00 -0.64276977185E+03  0.64276977185E+03  0.00000000000E+00 0.  1.
         -6    2    1    2    0  503  0.37735785040E+01 -0.96251003832E+02 -0.54038612412E+03  0.57561850020E+03  0.17332339427E+03 0.  0.
        -24    2    3    3    0    0 -0.24034054737E+02 -0.59199390418E+02 -0.50966025286E+03  0.51983090581E+03  0.79927427578E+02 0.  0.
          6    2    1    2  501    0 -0.37735785040E+01  0.96251003832E+02  0.30328495682E+02  0.19986341507E+03  0.17247339331E+03 0.  0.
         24    2    5    5    0    0  0.24503286454E+02  0.10364888113E+03  0.69353384937E+02  0.15088033981E+03  0.81311028361E+02 0.  0.
          5    1    5    5  501    0 -0.28276864958E+02 -0.73978772967E+01 -0.39024889255E+02  0.48983075258E+02  0.47000000000E+01 0. -1.
        -13    1    6    6    0    0  0.20731257364E+02  0.10888515807E+03  0.35455719896E+02  0.11637384050E+03  0.00000000000E+00 0.  1.
         14    1    6    6    0    0  0.37720290901E+01 -0.52362769372E+01  0.33897665041E+02  0.34506499313E+02  0.00000000000E+00 0. -1.
         -5    1    3    3    0  503  0.27807633241E+02 -0.37051613414E+02 -0.30725871257E+02  0.55787594388E+02  0.47000000000E+01 0.  1.
         11    1    4    4    0    0 -0.44884076731E+02 -0.20238301489E+02 -0.16040753451E+03  0.16779376127E+03  0.00000000000E+00 0. -1.
        -12    1    4    4    0    0  0.20850021994E+02 -0.38961088929E+02 -0.34925271835E+03  0.35203714455E+03  0.00000000000E+00 0.  1.
</event>
<event>
12    1  0.8271773E-002  0.2558307E+03  0.7818608E-02  0.1109702E+00
         21   -1    0    0  501  502  0.00000000000E+00  0.00000000000E+00  0.25848937512E+03  0.25848937512E+03  0.00000000000E+00 0.  1.
         21   -1    0    0  502  503 -0.00000000000E+00 -0.00000000000E+00 -0.25678645298E+03  0.25678645298E+03  0.00000000000E+00 0. -1.
         -6    2    1    2    0  503  0.29063989374E+02 -0.18649576703E+03  0.32040505191E+02  0.25782929537E+03  0.17269616376E+03 0.  0.
        -24    2    3    3    0    0  0.44586691978E+02 -0.45411820402E+02  0.50176687535E+02  0.11466279997E+03  0.81115049109E+02 0.  0.
          6    2    1    2  501    0 -0.29063989374E+02  0.18649576703E+03 -0.30337583054E+02  0.25744653273E+03  0.17243248438E+03 0.  0.
         24    2    5    5    0    0  0.32093682132E+02  0.13840959195E+03  0.21243941844E+02  0.16398378759E+03  0.79070588414E+02 0.  0.
          5    1    5    5  501    0 -0.61157671506E+02  0.48086175085E+02 -0.51581524898E+02  0.93462745140E+02  0.47000000000E+01 0. -1.
        -13    1    6    6    0    0  0.48770823444E+02  0.96421944213E+02 -0.10803238442E+02  0.10859325258E+03  0.00000000000E+00 0.  1.
         14    1    6    6    0    0 -0.16677141311E+02  0.41987647734E+02  0.32047180286E+02  0.55390535011E+02  0.00000000000E+00 0. -1.
         -5    1    3    3    0  503 -0.15522702605E+02 -0.14108394663E+03 -0.18136182343E+02  0.14316649539E+03  0.47000000000E+01 0.  1.
         11    1    4    4    0    0  0.11410907209E+02 -0.25696516954E+02 -0.20048650009E+02  0.34532132197E+02  0.00000000000E+00 0. -1.
        -12    1    4    4    0    0  0.33175784769E+02 -0.19715303447E+02  0.70225337543E+02  0.80130667776E+02  0.00000000000E+00 0.  1.
</event>
<event>
12    1  0.8271773E-002  0.1807202E+03  0.7818608E-02  0.1167395E+00
         21   -1    0    0  501  502  0.00000000000E+00  0.00000000000E+00  0.24689533973E+03  0.24689533973E+03  0.00000000000E+00 0. -1.
         21   -1    0    0  502  503 -0.00000000000E+00 -0.00000000000E+00 -0.13365977506E+03  0.13365977506E+03  0.00000000000E+00 0. -1.
         -6    2    1    2    0  503  0.57048197721E+02 -0.13478877613E+01  0.81107891899E+02  0.19700136516E+03  0.17021966421E+03 0.  0.
        -24    2    3    3    0    0 -0.11460878220E+02 -0.23575401097E+02 -0.11497454441E+02  0.79590139096E+02  0.74264712456E+02 0.  0.
          6    2    1    2  501    0 -0.57048197721E+02  0.13478877613E+01  0.32127672778E+02  0.18355374963E+03  0.17147442369E+03 0.  0.
         24    2    5    5    0    0 -0.23550023577E+02  0.66027771828E+02  0.77253737595E+01  0.10659156884E+03  0.79923781728E+02 0.  0.
          5    1    5    5  501    0 -0.33498174144E+02 -0.64679884067E+02  0.24402299018E+02  0.76962180785E+02  0.47000000000E+01 0. -1.
        -11    1    6    6    0    0 -0.18699339118E+01  0.15959589905E+02  0.40064707966E+02  0.43166954805E+02  0.00000000000E+00 0.  1.
         12    1    6    6    0    0 -0.21680089665E+02  0.50068181923E+02 -0.32339334206E+02  0.63424614038E+02  0.00000000000E+00 0. -1.
         -5    1    3    3    0  503  0.68509075941E+02  0.22227513336E+02  0.92605346340E+02  0.11741122607E+03  0.47000000000E+01 0.  1.
         13    1    4    4    0    0  0.82629934196E+01  0.12165128026E+02 -0.31028176331E+02  0.34336789695E+02  0.00000000000E+00 0. -1.
        -14    1    4    4    0    0 -0.19723871639E+02 -0.35740529123E+02  0.19530721890E+02  0.45253349400E+02  0.00000000000E+00 0.  1.
</event>
<event>
12    1  0.8271773E-002  0.1772469E+03  0.7818608E-02  0.1170547E+00
         21   -1    0    0  503  502  0.00000000000E+00  0.00000000000E+00  0.16060201246E+03  0.16060201246E+03  0.00000000000E+00 0.  1.
         21   -1    0    0  501  503 -0.00000000000E+00 -0.00000000000E+00 -0.21799015118E+03  0.21799015118E+03  0.00000000000E+00 0. -1.
          6    2    1    2  501    0  0.40176764565E+02  0.10450487863E+02 -0.89671326397E+02  0.19863886745E+03  0.17231676580E+03 0.  0.
         24    2    3    3    0    0 -0.31996492305E+02  0.39283349243E+02 -0.68800385944E+02  0.11802870023E+03  0.81426801027E+02 0.  0.
         -6    2    1    2    0  502 -0.40176764565E+02 -0.10450487863E+02  0.32283187674E+02  0.17995329619E+03  0.17209764524E+03 0.  0.
        -24    2    5    5    0    0 -0.28664044072E+02  0.55697940886E+02 -0.81931360368E+01  0.10141298718E+03  0.79332077049E+02 0.  0.
          5    1    3    3  501    0  0.72173256869E+02 -0.28832861380E+02 -0.20870940453E+02  0.80610167212E+02  0.47000000000E+01 0. -1.
        -13    1    4    4    0    0  0.20711291529E+02  0.35767585194E+02 -0.19222879578E+02  0.45582856938E+02  0.00000000000E+00 0.  1.
         14    1    4    4    0    0 -0.52707783833E+02  0.35157640495E+01 -0.49577506366E+02  0.72445843296E+02  0.00000000000E+00 0. -1.
         -5    1    5    5    0  502 -0.11512720493E+02 -0.66148428748E+02  0.40476323711E+02  0.78540309015E+02  0.47000000000E+01 0.  1.
         11    1    6    6    0    0  0.15281432055E+02  0.21262970451E+02 -0.31457998962E+02  0.40929717526E+02  0.00000000000E+00 0. -1.
        -12    1    6    6    0    0 -0.43945476127E+02  0.34434970435E+02  0.23264862926E+02  0.60483269653E+02  0.00000000000E+00 0.  1.
</event>
<event>
12    1  0.8271773E-002  0.2388250E+03  0.7818608E-02  0.1120659E+00
         21   -1    0    0  503  502  0.00000000000E+00  0.00000000000E+00  0.81994210649E+03  0.81994210649E+03  0.00000000000E+00 0. -1.
         21   -1    0    0  501  503 -0.00000000000E+00 -0.00000000000E+00 -0.12027640674E+03  0.12027640674E+03  0.00000000000E+00 0.  1.
          6    2    1    2  501    0  0.15633663152E+03  0.54495132475E+02  0.43946431789E+02  0.24236099414E+03  0.17145466104E+03 0.  0.
         24    2    3    3    0    0  0.40614613487E+02 -0.18913973465E+02  0.39063858083E+02  0.10515162194E+03  0.86738649788E+02 0.  0.
         -6    2    1    2    0  502 -0.15633663152E+03 -0.54495132475E+02  0.65571926796E+03  0.69785751910E+03  0.17212349279E+03 0.  0.
        -24    2    5    5    0    0 -0.13476985798E+03 -0.29777002308E+02  0.64332598351E+03  0.66247680148E+03  0.77185535916E+02 0.  0.
          5    1    3    3  501    0  0.11572201803E+03  0.73409105940E+02  0.48825737066E+01  0.13720937220E+03  0.47000000000E+01 0. -1.
        -11    1    4    4    0    0 -0.17572683202E+02  0.30686146355E+01  0.39070688587E+02  0.42950370165E+02  0.00000000000E+00 0.  1.
         12    1    4    4    0    0  0.58187296689E+02 -0.21982588100E+02 -0.68305040235E-02  0.62201251774E+02  0.00000000000E+00 0. -1.
         -5    1    5    5    0  502 -0.21566773539E+02 -0.24718130167E+02  0.12393284454E+02  0.35380717621E+02  0.47000000000E+01 0.  1.
         11    1    6    6    0    0 -0.54882383122E+02 -0.50741429641E+02  0.27255650497E+03  0.28261956242E+03  0.00000000000E+00 0. -1.
        -12    1    6    6    0    0 -0.79887474860E+02  0.20964427332E+02  0.37076947854E+03  0.37985723906E+03  0.00000000000E+00 0.  1.
</event>
<event>
12    1  0.8271773E-002  0.1865272E+03  0.7818608E-02  0.1162158E+00
         21   -1    0    0  503  502  0.00000000000E+00  0.00000000000E+00  0.21534505499E+03  0.21534505499E+03  0.00000000000E+00 0. -1.
         21   -1    0    0  501  503 -0.00000000000E+00 -0.00000000000E+00 -0.20204272716E+03  0.20204272716E+03  0.00000000000E+00 0.  1.
          6    2    1    2  501    0 -0.17306943630E+02 -0.70993726551E+02 -0.89017575646E+02  0.20463969736E+03  0.16915566043E+03 0.  0.
         24    2    3    3    0    0 -0.14270601249E+02 -0.98903272316E+01 -0.11066075912E+03  0.13957540474E+03  0.83270771383E+02 0.  0.
         -6    2    1    2    0  502  0.17306943630E+02  0.70993726551E+02  0.10231990349E+03  0.21274808479E+03  0.17161802185E+03 0.  0.
        -24    2    5    5    0    0  0.17174740250E+02  0.10933873159E+03  0.10467840287E+03  0.17404395829E+03  0.84165322190E+02 0.  0.
          5    1    3    3  501    0 -0.30363423803E+01 -0.61103399320E+02  0.21643183472E+02  0.65064292621E+02  0.47000000000E+01 0. -1.
        -11    1    4    4    0    0 -0.26591996717E+02 -0.27788524148E+02 -0.14684382234E+02  0.41169982333E+02  0.00000000000E+00 0.  1.
         12    1    4    4    0    0  0.12321395467E+02  0.17898196917E+02 -0.95976376884E+02  0.98405422406E+02  0.00000000000E+00 0. -1.
         -5    1    5    5    0  502  0.13220338005E+00 -0.38345005038E+02 -0.23584993885E+01  0.38704126505E+02  0.47000000000E+01 0.  1.
         13    1    6    6    0    0 -0.34024028233E+02  0.51416756856E+02  0.49467747482E+02  0.79046666113E+02  0.00000000000E+00 0. -1.
        -14    1    6    6    0    0  0.51198768483E+02  0.57921974734E+02  0.55210655392E+02  0.94997292172E+02  0.00000000000E+00 0.  1.
</event>
<event>
12    1  0.8271773E-002  0.2056907E+03  0.7818608E-02  0.1145221E+00
         21   -1    0    0  501  502  0.00000000000E+00  0.00000000000E+00  0.44485259872E+02  0.44485259872E+02  0.00000000000E+00 0. -1.
         21   -1    0    0  502  503 -0.00000000000E+00 -0.00000000000E+00 -0.94704033106E+03  0.94704033106E+03  0.00000000000E+00 0. -1.
         -6    2    1    2    0  503  0.10491204754E+03  0.35939647301E+02 -0.44182403507E+03  0.48735731958E+03  0.17323533997E+03 0.  0.
        -24    2    3    3    0    0  0.96530285149E+02  0.82848021480E+02 -0.38473118663E+03  0.41284334202E+03  0.78991445547E+02 0.  0.
          6    2    1    2  501    0 -0.10491204754E+03 -0.35939647301E+02 -0.46073103611E+03  0.50416827135E+03  0.17208823966E+03 0.  0.
         24    2    5    5    0    0 -0.73858438081E+02 -0.65249361352E+02 -0.43700645190E+03  0.45509351312E+03  0.80143113599E+02 0.  0.
          5    1    5    5  501    0 -0.31053609463E+02  0.29309714051E+02 -0.23724584218E+02  0.49074758224E+02  0.47000000000E+01 0. -1.
        -11    1    6    6    0    0 -0.46447727359E+02  0.66770104867E+01 -0.21685094891E+03  0.22187002477E+03  0.00000000000E+00 0.  1.
         12    1    6    6    0    0 -0.27410710723E+02 -0.71926371838E+02 -0.22015550298E+03  0.23322348836E+03  0.00000000000E+00 0. -1.
         -5    1    3    3    0  503  0.83817623957E+01 -0.46908374179E+02 -0.57092848444E+02  0.74513977564E+02  0.47000000000E+01 0.  1.
         13    1    4    4    0    0  0.46587763671E+02  0.37530017442E+02 -0.29268294710E+03  0.29873437943E+03  0.00000000000E+00 0. -1.
        -14    1    4    4    0    0  0.49942521477E+02  0.45318004038E+02 -0.92048239530E+02  0.11410896258E+03  0.00000000000E+00 0.  1.
</event>
<event>
12    1  0.8271773E-002  0.2407286E+03  0.7818608E-02  0.1119333E+00
         21   -1    0    0  503  502  0.00000000000E+00  0.00000000000E+00  0.14382732173E+04  0.14382732173E+04  0.00000000000E+00 0.  1.
         21   -1    0    0  501  503 -0.00000000000E+00 -0.00000000000E+00 -0.55142756780E+02  0.55142756780E+02  0.00000000000E+00 0. -1.
          6    2    1    2  501    0 -0.16747626828E+03  0.14141391088E+02  0.30388071005E+03  0.38767736146E+03  0.17234259854E+03 0.  0.
         24    2    3    3    0    0 -0.11798162805E+03 -0.55116581085E+02  0.22281057636E+03  0.27003025059E+03  0.79462451672E+02 0.  0.
         -6    2    1    2    0  502  0.16747626828E+03 -0.14141391088E+02  0.10792497505E+04  0.11057386126E+04  0.17213243788E+03 0.  0.
        -24    2    5    5    0    0  0.37560240667E+02  0.11561509463E+02  0.65798444088E+03  0.66412185072E+03  0.81054722161E+02 0.  0.
          5    1    3    3  501    0 -0.49494640225E+02  0.69257972173E+02  0.81070133683E+02  0.11764711087E+03  0.47000000000E+01 0. -1.
        -11    1    4    4    0    0 -0.67724843870E+02 -0.28863099608E+01  0.16130280439E+03  0.17496736829E+03  0.00000000000E+00 0.  1.
         12    1    4    4    0    0 -0.50256784182E+02 -0.52230271124E+02  0.61507771976E+02  0.95062882301E+02  0.00000000000E+00 0. -1.
         -5    1    5    5    0  502  0.12991602761E+03 -0.25702900550E+02  0.42126530961E+03  0.44161676192E+03  0.47000000000E+01 0.  1.
         11    1    6    6    0    0 -0.17497439871E+02  0.11415736620E+02  0.58579030713E+02  0.62193104794E+02  0.00000000000E+00 0. -1.
        -12    1    6    6    0    0  0.55057680538E+02  0.14577284272E+00  0.59940541016E+03  0.60192874592E+03  0.00000000000E+00 0.  1.
</event>
<event>
12    1  0.8271773E-002  0.2445759E+03  0.7818608E-02  0.1116979E+00
         21   -1    0    0  501  502  0.00000000000E+00  0.00000000000E+00  0.64083467376E+03  0.64083467376E+03  0.00000000000E+00 0. -1.
         21   -1    0    0  502  503 -0.00000000000E+00 -0.00000000000E+00 -0.24316540917E+03  0.24316540917E+03  0.00000000000E+00 0.  1.
         -6    2    1    2    0  503  0.11638283924E+03  0.12702243145E+03 -0.14845437913E+03  0.28610501897E+03  0.17360217694E+03 0.  0.
        -24    2    3    3    0    0 -0.10941630349E+02  0.35437938597E+02 -0.61602429078E+02  0.10676012466E+03  0.78913231991E+02 0.  0.
          6    2    1    2  501    0 -0.11638283924E+03 -0.12702243145E+03  0.54612364372E+03  0.59789506395E+03  0.17189476404E+03 0.  0.
         24    2    5    5    0    0 -0.83423435853E+02 -0.15738802718E+03  0.47920648408E+03  0.51722048350E+03  0.78407355660E+02 0.  0.
          5    1    5    5  501    0 -0.32959403387E+02  0.30365595735E+02  0.66917159641E+02  0.80674580448E+02  0.47000000000E+01 0. -1.
        -11    1    6    6    0    0 -0.71943309117E+02 -0.13845939689E+03  0.46603035035E+03  0.49145816888E+03  0.00000000000E+00 0.  1.
         12    1    6    6    0    0 -0.11480126735E+02 -0.18928630291E+02  0.13176133729E+02  0.25762314620E+02  0.00000000000E+00 0. -1.
         -5    1    3    3    0  503  0.12732446959E+03  0.91584492852E+02 -0.86851950052E+02  0.17934489431E+03  0.47000000000E+01 0.  1.
         13    1    4    4    0    0 -0.93673657381E+01  0.53278641273E+02 -0.13968164414E+02  0.55870124162E+02  0.00000000000E+00 0. -1.
        -14    1    4    4    0    0 -0.15742646112E+01 -0.17840702676E+02 -0.47634264664E+02  0.50890000502E+02  0.00000000000E+00 0.  1.
</event>
<event>
12    1  0.8271773E-002  0.2023894E+03  0.7818608E-02  0.1147843E+00
         21   -1    0    0  501  502  0.00000000000E+00  0.00000000000E+00  0.30410454479E+03  0.30410454479E+03  0.00000000000E+00 0.  1.
         21   -1    0    0  502  503 -0.00000000000E+00 -0.00000000000E+00 -0.24659849855E+03  0.24659849855E+03  0.00000000000E+00 0.  1.
         -6    2    1    2    0  503 -0.71534332168E+02  0.80409679812E+02 -0.15703088754E+03  0.25576651285E+03  0.17080670997E+03 0.  0.
        -24    2    3    3    0    0 -0.17088988759E+02 -0.14135250554E+02 -0.30205106449E+02  0.88404904274E+02  0.80070217928E+02 0.  0.
          6    2    1    2  501    0  0.71534332168E+02 -0.80409679812E+02  0.21453693378E+03  0.29493653049E+03  0.17140181963E+03 0.  0.
         24    2    5    5    0    0 -0.27006043310E+02 -0.55135243197E+02  0.10668470275E+03  0.14660178579E+03  0.79631880417E+02 0.  0.
          5    1    5    5  501    0  0.98540375478E+02 -0.25274436615E+02  0.10785223103E+03  0.14833474469E+03  0.47000000000E+01 0. -1.
        -13    1    6    6    0    0  0.23601623881E+02  0.12400973123E+01  0.35496073508E+02  0.42644410251E+02  0.00000000000E+00 0.  1.
         14    1    6    6    0    0 -0.50607667190E+02 -0.56375340509E+02  0.71188629245E+02  0.10395737554E+03  0.00000000000E+00 0. -1.
         -5    1    3    3    0  503 -0.54445343410E+02  0.94544930366E+02 -0.12682578109E+03  0.16736160858E+03  0.47000000000E+01 0.  1.
         13    1    4    4    0    0 -0.46830500454E+02 -0.98859363079E+01 -0.31356392279E+01  0.47965193035E+02  0.00000000000E+00 0. -1.
        -14    1    4    4    0    0  0.29741511695E+02 -0.42493142461E+01 -0.27069467221E+02  0.40439711239E+02  0.00000000000E+00 0.  1.
</event>
<event>
12    1  0.8271773E-002  0.1775340E+03  0.7818608E-02  0.1170484E+00
         21   -1    0    0  501  502  0.00000000000E+00  0.00000000000E+00  0.39357114486E+03  0.39357114486E+03  0.00000000000E+00 0.  1.
         21   -1    0    0  502  503 -0.00000000000E+00 -0.00000000000E+00 -0.10020460458E+03  0.10020460458E+03  0.00000000000E+00 0.  1.
         -6    2    1    2    0  503  0.87188415176E+01 -0.35142884277E+02  0.34331114938E+02  0.17974123328E+03  0.17267670652E+03 0.  0.
        -24    2    3    3    0    0  0.22722000805E+02  0.29330024679E+02 -0.13802769501E+02  0.97937778034E+02  0.89580981531E+02 0.  0.
          6    2    1    2  501    0 -0.87188415176E+01  0.35142884277E+02  0.25903542534E+03  0.31403451617E+03  0.17380243166E+03 0.  0.
         24    2    5    5    0    0 -0.43027186594E+02  0.39423325226E+02  0.26049506149E+03  0.27911166900E+03  0.81486866135E+02 0.  0.
          5    1    5    5  501    0  0.34308345076E+02 -0.42804409492E+01 -0.14596361492E+01  0.34922847167E+02  0.47000000000E+01 0. -1.
        -11    1    6    6    0    0 -0.45689034871E+02  0.34937883503E+01  0.60483448573E+02  0.75881104472E+02  0.00000000000E+00 0.  1.
         12    1    6    6    0    0  0.26618482776E+01  0.35929536876E+02  0.20001161292E+03  0.20323056453E+03  0.00000000000E+00 0. -1.
         -5    1    3    3    0  503 -0.14003159287E+02 -0.64472908956E+02  0.48133884439E+02  0.81803455248E+02  0.47000000000E+01 0.  1.
         13    1    4    4    0    0 -0.14648820836E+02  0.37412783219E+01  0.30837520673E+02  0.34344399785E+02  0.00000000000E+00 0. -1.
        -14    1    4    4    0    0  0.37370821641E+02  0.25588746357E+02 -0.44640290174E+02  0.63593378249E+02  0.00000000000E+00 0.  1.
</event>
<event>
12    1  0.8271773E-002  0.1791944E+03  0.7818608E-02  0.1168675E+00
         21   -1    0    0  503  502  0.00000000000E+00  0.00000000000E+00  0.24968680704E+03  0.24968680704E+03  0.00000000000E+00 0. -1.
         21   -1    0    0  501  503 -0.00000000000E+00 -0.00000000000E+00 -0.28142030041E+03  0.28142030041E+03  0.00000000000E+00 0. -1.
          6    2    1    2  501    0 -0.43582133357E+02  0.21434405395E+02 -0.21172928253E+03  0.27738047084E+03  0.17248710224E+03 0.  0.
         24    2    3    3    0    0 -0.15435550935E+02  0.14154598831E+02 -0.21664419283E+02  0.85047509735E+02  0.79530641570E+02 0.  0.
         -6    2    1    2    0  502  0.43582133357E+02 -0.21434405395E+02  0.17999578916E+03  0.25372663660E+03  0.17210428793E+03 0.  0.
        -24    2    5    5    0    0 -0.35509955418E+02  0.19293323948E+02  0.10126994231E+03  0.13483948252E+03  0.79327772864E+02 0.  0.
          5    1    3    3  501    0 -0.28146582421E+02  0.72798065634E+01 -0.19006486325E+03  0.19233296111E+03  0.47000000000E+01 0. -1.
        -13    1    4    4    0    0  0.32622085756E+02  0.38514391904E+01 -0.11896980149E+02  0.34936688446E+02  0.00000000000E+00 0.  1.
         14    1    4    4    0    0 -0.48057636692E+02  0.10303159641E+02 -0.97674391337E+01  0.50110821289E+02  0.00000000000E+00 0. -1.
         -5    1    5    5    0  502  0.79092088774E+02 -0.40727729343E+02  0.78725846848E+02  0.11888715408E+03  0.47000000000E+01 0.  1.
         13    1    6    6    0    0  0.12396319199E+02  0.52378328685E+01  0.79058926345E+02  0.80196118720E+02  0.00000000000E+00 0. -1.
        -14    1    6    6    0    0 -0.47906274617E+02  0.14055491080E+02  0.22211015968E+02  0.54643363801E+02  0.00000000000E+00 0.  1.
</event>
<event>
12    1  0.8271773E-002  0.1835191E+03  0.7818608E-02  0.1166695E+00
         21   -1    0    0  503  502  0.00000000000E+00  0.00000000000E+00  0.95971584390E+03  0.95971584390E+03  0.00000000000E+00 0. -1.
         21   -1    0    0  501  503 -0.00000000000E+00 -0.00000000000E+00 -0.53120156619E+02  0.53120156619E+02  0.00000000000E+00 0. -1.
          6    2    1    2  501    0  0.15608221027E+02 -0.15611688061E+02  0.13692924796E+03  0.22159286410E+03  0.17281908780E+03 0.  0.
         24    2    3    3    0    0  0.22374607356E+02  0.49762390707E+02  0.11765271654E+03  0.15293990479E+03  0.81064999756E+02 0.  0.
         -6    2    1    2    0  502 -0.15608221027E+02  0.15611688061E+02  0.76966643932E+03  0.79124313641E+03  0.18218653008E+03 0.  0.
        -24    2    5    5    0    0 -0.22160571411E+02  0.63020131397E+02  0.26622394734E+03  0.28550908918E+03  0.78597849746E+02 0.  0.
          5    1    3    3  501    0 -0.67663863291E+01 -0.65374078768E+02  0.19276531422E+02  0.68652959313E+02  0.47000000000E+01 0. -1.
        -11    1    4    4    0    0  0.16177489919E+02  0.49573724503E+02  0.21205035975E+02  0.56293151376E+02  0.00000000000E+00 0.  1.
         12    1    4    4    0    0  0.61971174369E+01  0.18866620388E+00  0.96447680565E+02  0.96646753416E+02  0.00000000000E+00 0. -1.
         -5    1    5    5    0  502  0.65523503843E+01 -0.47408443335E+02  0.50344249198E+03  0.50573404723E+03  0.47000000000E+01 0.  1.
         11    1    6    6    0    0 -0.15130050125E+02  0.68824214952E+02  0.26720401482E+03  0.27633978453E+03  0.00000000000E+00 0. -1.
        -12    1    6    6    0    0 -0.70305212859E+01 -0.58040835559E+01 -0.98006748400E+00  0.91693046491E+01  0.00000000000E+00 0.  1.
</event>
<event>
12    1  0.8271773E-002  0.2047325E+03  0.7818608E-02  0.1146259E+00
         21   -1    0    0  501  502  0.00000000000E+00  0.00000000000E+00  0.33569094487E+03  0.33569094487E+03  0.00000000000E+00 0. -1.
         21   -1    0    0  502  503 -0.00000000000E+00 -0.00000000000E+00 -0.14564210047E+03  0.14564210047E+03  0.00000000000E+00 0.  1.
         -6    2    1    2    0  503 -0.58082770201E+02  0.94052220136E+02  0.80331029054E+00  0.20253334432E+03  0.16970469041E+03 0.  0.
        -24    2    3    3    0    0 -0.30016737193E+02  0.12229155091E+03  0.29843672934E+02  0.15302986289E+03  0.81677819423E+02 0.  0.
          6    2    1    2  501    0  0.58082770201E+02 -0.94052220136E+02  0.18924553411E+03  0.27879970102E+03  0.17232519491E+03 0.  0.
         24    2    5    5    0    0  0.10464055125E+03 -0.59670714590E+02  0.15394415700E+03  0.21084389093E+03  0.79032295428E+02 0.  0.
          5    1    5    5  501    0 -0.46557781049E+02 -0.34381505546E+02  0.35301377109E+02  0.67955810095E+02  0.47000000000E+01 0. -1.
        -13    1    6    6    0    0  0.76119445780E+02 -0.68144924141E+02  0.75763076415E+02  0.12719254876E+03  0.00000000000E+00 0.  1.
         14    1    6    6    0    0  0.28521105470E+02  0.84742095509E+01  0.78181080586E+02  0.83651342167E+02  0.00000000000E+00 0. -1.
         -5    1    3    3    0  503 -0.28066033008E+02 -0.28239330774E+02 -0.29040362644E+02  0.49503481432E+02  0.47000000000E+01 0.  1.
         13    1    4    4    0    0 -0.32933815122E+02  0.21161445991E+02  0.33888098187E+02  0.51776888412E+02  0.00000000000E+00 0. -1.
        -14    1    4    4    0    0  0.29170779296E+01  0.10113010492E+03 -0.40444252527E+01  0.10125297448E+03  0.00000000000E+00 0.  1.
</event>
<event>
12    1  0.8271773E-002  0.2274553E+03  0.7818608E-02  0.1128553E+00
         21   -1    0    0  501  502  0.00000000000E+00  0.00000000000E+00  0.12306056228E+04  0.12306056228E+04  0.00000000000E+00 0. -1.
         21   -1    0    0  502  503 -0.00000000000E+00 -0.00000000000E+00 -0.78529717761E+02  0.78529717761E+02  0.00000000000E+00 0.  1.
         -6    2    1    2    0  503  0.14731937490E+03  0.14169067038E+02  0.12957545859E+03  0.26177417584E+03  0.17271988591E+03 0.  0.
        -24    2    3    3    0    0  0.15343183810E+03 -0.11644041361E+02  0.53897148116E+02  0.18144376163E+03  0.79624264005E+02 0.  0.
          6    2    1    2  501    0 -0.14731937490E+03 -0.14169067038E+02  0.10225004465E+04  0.10473611647E+04  0.17191418116E+03 0.  0.
         24    2    5    5    0    0 -0.60609100795E+02  0.54922447416E+02  0.58291795204E+03  0.59398806407E+03  0.79614967866E+02 0.  0.
          5    1    5    5  501    0 -0.86710274104E+02 -0.69091514454E+02  0.43958249444E+03  0.45337310068E+03  0.47000000000E+01 0. -1.
        -13    1    6    6    0    0  0.14021855251E+02  0.10234523741E+02  0.22430735404E+03  0.22497810332E+03  0.00000000000E+00 0.  1.
         14    1    6    6    0    0 -0.74630956046E+02  0.44687923675E+02  0.35861059801E+03  0.36900996074E+03  0.00000000000E+00 0. -1.
         -5    1    3    3    0  503 -0.61124632005E+01  0.25813108399E+02  0.75678310470E+02  0.80330414211E+02  0.47000000000E+01 0.  1.
         13    1    4    4    0    0  0.24251966946E+02 -0.31319256618E+02 -0.12088241525E+01  0.39629723588E+02  0.00000000000E+00 0. -1.
        -14    1    4    4    0    0  0.12917987115E+03  0.19675215257E+02  0.55105972269E+02  0.14181403804E+03  0.00000000000E+00 0.  1.
</event>
<event>
12    1  0.8271773E-002  0.1902586E+03  0.7818608E-02  0.1159228E+00
         21   -1    0    0  503  502  0.00000000000E+00  0.00000000000E+00  0.34608183999E+03  0.34608183999E+03  0.00000000000E+00 0.  1.
         21   -1    0    0  501  503 -0.00000000000E+00 -0.00000000000E+00 -0.10900471488E+03  0.10900471488E+03  0.00000000000E+00 0.  1.
          6    2    1    2  501    0 -0.62040166018E+02 -0.50358133063E+02  0.60383706935E+02  0.19543503147E+03  0.16782054611E+03 0.  0.
         24    2    3    3    0    0 -0.91203915645E+01  0.30880099495E+02  0.41339056391E+02  0.96516167385E+02  0.81053629754E+02 0.  0.
         -6    2    1    2    0  502  0.62040166018E+02  0.50358133063E+02  0.17669341817E+03  0.25965152340E+03  0.17266564745E+03 0.  0.
        -24    2    5    5    0    0  0.11608293255E+02  0.75439120510E+02  0.51851592849E+02  0.12261137938E+03  0.80741249039E+02 0.  0.
          5    1    3    3  501    0 -0.52919774454E+02 -0.81238232558E+02  0.19044650543E+02  0.98918864084E+02  0.47000000000E+01 0. -1.
        -13    1    4    4    0    0 -0.22240523773E+02 -0.20464958576E+02  0.15796965502E+01  0.30264680213E+02  0.00000000000E+00 0.  1.
         14    1    4    4    0    0  0.13120132209E+02  0.51345058071E+02  0.39759359841E+02  0.66251487172E+02  0.00000000000E+00 0. -1.
         -5    1    5    5    0  502  0.50431872763E+02 -0.25080987447E+02  0.12484182532E+03  0.13704014402E+03  0.47000000000E+01 0.  1.
         11    1    6    6    0    0  0.28720836866E+02  0.62064538530E+02  0.22066778182E+01  0.68423408569E+02  0.00000000000E+00 0. -1.
        -12    1    6    6    0    0 -0.17112543610E+02  0.13374581980E+02  0.49644915031E+02  0.54187970809E+02  0.00000000000E+00 0.  1.
</event>
<event>
12    1  0.8271773E-002  0.2178326E+03  0.7818608E-02  0.1135747E+00
         21   -1    0    0  503  502  0.00000000000E+00  0.00000000000E+00  0.59196437318E+03  0.59196437318E+03  0.00000000000E+00 0.  1.
         21   -1    0    0  501  503 -0.00000000000E+00 -0.00000000000E+00 -0.91610779257E+02  0.91610779257E+02  0.00000000000E+00 0.  1.
          6    2    1    2  501    0  0.11389762540E+03 -0.69677360529E+02  0.12755228786E+03  0.25242941860E+03  0.17211455950E+03 0.  0.
         24    2    3    3    0    0  0.14220491310E+03 -0.25454474935E+02  0.94933393270E+02  0.19043709301E+03  0.79898495798E+02 0.  0.
         -6    2    1    2    0  502 -0.11389762540E+03  0.69677360529E+02  0.37280130606E+03  0.43114573384E+03  0.17052338950E+03 0.  0.
        -24    2    5    5    0    0 -0.13654468529E+03  0.85786489909E+02  0.35354512397E+03  0.39700947863E+03  0.81354769435E+02 0.  0.
          5    1    3    3  501    0 -0.28307287704E+02 -0.44222885595E+02  0.32618894593E+02  0.61992325589E+02  0.47000000000E+01 0. -1.
        -11    1    4    4    0    0  0.10791800258E+03 -0.71433749964E+01  0.25899009931E+02  0.11121187797E+03  0.00000000000E+00 0.  1.
         12    1    4    4    0    0  0.34286910523E+02 -0.18311099938E+02  0.69034383339E+02  0.79225215034E+02  0.00000000000E+00 0. -1.
         -5    1    5    5    0  502  0.22647059890E+02 -0.16109129380E+02  0.19256182093E+02  0.34136255211E+02  0.47000000000E+01 0.  1.
         11    1    6    6    0    0  0.59760292672E+01  0.56876596561E+01  0.88500373776E+00  0.82973266648E+01  0.00000000000E+00 0. -1.
        -12    1    6    6    0    0 -0.14252071456E+03  0.80098830253E+02  0.35266012023E+03  0.38871215197E+03  0.00000000000E+00 0.  1.
</event>
<event>
12    1  0.8271773E-002  0.1760423E+03  0.7818608E-02  0.1172348E+00
         21   -1    0    0  501  502  0.00000000000E+00  0.00000000000E+00  0.10636125723E+03  0.10636125723E+03  0.00000000000E+00 0. -1.
         21   -1    0    0  502  503 -0.00000000000E+00 -0.00000000000E+00 -0.30191899887E+03  0.30191899887E+03  0.00000000000E+00 0. -1.
         -6    2    1    2    0  503 -0.13389798853E+02 -0.16885661315E+02 -0.14377678501E+03  0.22729416861E+03  0.17471823862E+03 0.  0.
        -24    2    3    3    0    0  0.56147318920E+01  0.43129242863E+02 -0.28232429995E+02  0.95629636986E+02  0.80351108035E+02 0.  0.
          6    2    1    2  501    0  0.13389798853E+02  0.16885661315E+02 -0.51780956639E+02  0.18098608749E+03  0.17207639037E+03 0.  0.
         24    2    5    5    0    0  0.19210868130E+02  0.29387063941E+02 -0.99037126699E+02  0.13153504580E+03  0.79123061291E+02 0.  0.
          5    1    5    5  501    0 -0.58210692771E+01 -0.12501402626E+02  0.47256170060E+02  0.49451041687E+02  0.47000000000E+01 0. -1.
        -11    1    6    6    0    0  0.26251536448E+01 -0.24694729310E+02 -0.11635214535E+02  0.27424428975E+02  0.00000000000E+00 0.  1.
         12    1    6    6    0    0  0.16585714486E+02  0.54081793251E+02 -0.87401912164E+02  0.10411061683E+03  0.00000000000E+00 0. -1.
         -5    1    3    3    0  503 -0.19004530745E+02 -0.60014904178E+02 -0.11554435501E+03  0.13166453162E+03  0.47000000000E+01 0.  1.
         13    1    4    4    0    0 -0.29601181130E+02  0.38026671392E+02 -0.34804467884E+02  0.59444164105E+02  0.00000000000E+00 0. -1.
        -14    1    4    4    0    0  0.35215913022E+02  0.51025714705E+01  0.65720378889E+01  0.36185472881E+02  0.00000000000E+00 0.  1.
</event>
<event>
12    1  0.8271773E-002  0.1769830E+03  0.7818608E-02  0.1171093E+00
         21   -1    0    0  503  502  0.00000000000E+00  0.00000000000E+00  0.17241422200E+02  0.17241422200E+02  0.00000000000E+00 0. -1.
         21   -1    0    0  501  503 -0.00000000000E+00 -0.00000000000E+00 -0.25551101041E+04  0.25551101041E+04  0.00000000000E+00 0. -1.
          6    2    1    2  501    0  0.82072734838E+01  0.41341795375E+02 -0.19633819333E+04  0.19712209275E+04  0.17048995801E+03 0.  0.
         24    2    3    3    0    0  0.46343191864E+01  0.92331509116E+02 -0.15193956635E+04  0.15242772905E+04  0.79444896738E+02 0.  0.
         -6    2    1    2    0  502 -0.82072734838E+01 -0.41341795375E+02 -0.57448674868E+03  0.60113059884E+03  0.17189086383E+03 0.  0.
        -24    2    5    5    0    0 -0.26075132616E+02 -0.13947673239E+02 -0.13653447995E+03  0.16193362936E+03  0.81892526957E+02 0.  0.
          5    1    3    3  501    0  0.35729542974E+01 -0.50989713741E+02 -0.44398626981E+03  0.44694363704E+03  0.47000000000E+01 0. -1.
        -11    1    4    4    0    0 -0.29114964877E+01  0.22669098187E+02 -0.80638336533E+02  0.83814713167E+02  0.00000000000E+00 0.  1.
         12    1    4    4    0    0  0.75458156741E+01  0.69662410928E+02 -0.14387573269E+04  0.14404625773E+04  0.00000000000E+00 0. -1.
         -5    1    5    5    0  502  0.17867859132E+02 -0.27394122136E+02 -0.43795226873E+03  0.43919696948E+03  0.47000000000E+01 0.  1.
         11    1    6    6    0    0  0.12483743121E+02  0.27650251800E+02 -0.46409544660E+02  0.55445704093E+02  0.00000000000E+00 0. -1.
        -12    1    6    6    0    0 -0.38558875736E+02 -0.41597925039E+02 -0.90124935291E+02  0.10648792526E+03  0.00000000000E+00 0.  1.
</event>
<event>
12    1  0.8271773E-002  0.1928997E+03  0.7818608E-02  0.1156108E+00
         21   -1    0    0  501  502  0.00000000000E+00  0.00000000000E+00  0.12517280656E+04  0.12517280656E+04  0.00000000000E+00 0. -1.
         21   -1    0    0  502  503 -0.00000000000E+00 -0.00000000000E+00 -0.18589488597E+03  0.18589488597E+03  0.00000000000E+00 0.  1.
         -6    2    1    2    0  503 -0.54591881393E+02  0.64939972614E+02 -0.12602953355E+03  0.23042076315E+03  0.17324205958E+03 0.  0.
        -24    2    3    3    0    0 -0.10139854672E+03  0.56760850922E+02 -0.11457815679E+03  0.18131897113E+03  0.79025032755E+02 0.  0.
          6    2    1    2  501    0  0.54591881393E+02 -0.64939972614E+02  0.11918627132E+04  0.12072021884E+04  0.17205500012E+03 0.  0.
         24    2    5    5    0    0 -0.21504757382E+02 -0.39492156617E+02  0.36182258664E+03  0.37327953526E+03  0.79999638828E+02 0.  0.
          5    1    5    5  501    0  0.76096638775E+02 -0.25447815997E+02  0.83004012654E+03  0.83392265315E+03  0.47000000000E+01 0. -1.
        -11    1    6    6    0    0  0.89553220518E+01 -0.89835348160E+01  0.46432303014E+01  0.13507822862E+02  0.00000000000E+00 0.  1.
         12    1    6    6    0    0 -0.30460079434E+02 -0.30508621801E+02  0.35717935634E+03  0.35977171239E+03  0.00000000000E+00 0. -1.
         -5    1    3    3    0  503  0.46806665326E+02  0.81791216920E+01 -0.11451376760E+02  0.49101792027E+02  0.47000000000E+01 0.  1.
         11    1    4    4    0    0 -0.36513943511E+02 -0.87474953836E+01 -0.46370516698E+01  0.37832380237E+02  0.00000000000E+00 0. -1.
        -12    1    4    4    0    0 -0.64884603208E+02  0.65508346305E+02 -0.10994110512E+03  0.14348659089E+03  0.00000000000E+00 0.  1.
</event>
<event>
12    1  0.8271773E-002  0.1765993E+03  0.7818608E-02  0.1171949E+00
         21   -1    0    0  503  502  0.00000000000E+00  0.00000000000E+00  0.20560186472E+04  0.20560186472E+04  0.00000000000E+00 0. -1.
         21   -1    0    0  501  503 -0.00000000000E+00 -0.00000000000E+00 -0.28315940211E+02  0.28315940211E+02  0.00000000000E+00 0. -1.
          6    2    1    2  501    0 -0.48376575500E+02 -0.80326857456E+01  0.29133596244E+03  0.33901032052E+03  0.16627247911E+03 0.  0.
         24    2    3    3    0    0  0.18321344309E+02  0.38998844404E+02  0.15157952671E+03  0.17710130699E+03  0.80820408912E+02 0.  0.
         -6    2    1    2    0  502  0.48376575500E+02  0.80326857456E+01  0.17363667445E+04  0.17453242669E+04  0.16965408314E+03 0.  0.
        -24    2    5    5    0    0  0.73882541668E+02 -0.43059208305E+02  0.13368775378E+04  0.13417469480E+04  0.75700701655E+02 0.  0.
          5    1    3    3  501    0 -0.66697919810E+02 -0.47031530149E+02  0.13975643573E+03  0.16190901353E+03  0.47000000000E+01 0. -1.
        -11    1    4    4    0    0  0.12549388250E+02  0.10735470267E+01 -0.66811657124E+01  0.14257546210E+02  0.00000000000E+00 0.  1.
         12    1    4    4    0    0  0.57719560597E+01  0.37925297377E+02  0.15826069242E+03  0.16284376078E+03  0.00000000000E+00 0. -1.
         -5    1    5    5    0  502 -0.25505966168E+02  0.51091894050E+02  0.39948920679E+03  0.40357731884E+03  0.47000000000E+01 0.  1.
         13    1    6    6    0    0  0.61691792297E+01 -0.45199191401E+02  0.61964566621E+03  0.62132260326E+03  0.00000000000E+00 0. -1.
        -14    1    6    6    0    0  0.67713362438E+02  0.21399830967E+01  0.71723187154E+03  0.72042434477E+03  0.00000000000E+00 0.  1.
</event>
<event>
12    1  0.8271773E-002  0.1867954E+03  0.7818608E-02  0.1162931E+00
         21   -1    0    0  501  502  0.00000000000E+00  0.00000000000E+00  0.26175395632E+03  0.26175395632E+03  0.00000000000E+00 0.  1.
         21   -1    0    0  502  503 -0.00000000000E+00 -0.00000000000E+00 -0.17541606623E+03  0.17541606623E+03  0.00000000000E+00 0.  1.
         -6    2    1    2    0  503  0.43840685947E+02 -0.28861634709E+02 -0.69116158816E+02  0.19917216577E+03  0.17926937414E+03 0.  0.
        -24    2    3    3    0    0  0.29468684075E+02 -0.89757834357E+02 -0.53219694352E+02  0.13444435759E+03  0.79486333738E+02 0.  0.
          6    2    1    2  501    0 -0.43840685947E+02  0.28861634709E+02  0.15545404890E+03  0.23799785679E+03  0.17240075061E+03 0.  0.
         24    2    5    5    0    0 -0.45341475515E+02 -0.46953798006E+02  0.77991900394E+02  0.12949575239E+03  0.80161741560E+02 0.  0.
          5    1    5    5  501    0  0.15007895676E+01  0.75815432716E+02  0.77462148511E+02  0.10850210440E+03  0.47000000000E+01 0. -1.
        -13    1    6    6    0    0  0.16068193581E+02 -0.37480879187E+02  0.36939980378E+02  0.55023315966E+02  0.00000000000E+00 0.  1.
         14    1    6    6    0    0 -0.61409669095E+02 -0.94729188197E+01  0.41051920016E+02  0.74472436420E+02  0.00000000000E+00 0. -1.
         -5    1    3    3    0  503  0.14372001873E+02  0.60896199648E+02 -0.15896464464E+02  0.64727808181E+02  0.47000000000E+01 0.  1.
         13    1    4    4    0    0 -0.24709731154E+02 -0.10683730964E+02 -0.59572552943E+01  0.27571757500E+02  0.00000000000E+00 0. -1.
        -14    1    4    4    0    0  0.54178415228E+02 -0.79074103393E+02 -0.47262439057E+02  0.10687260009E+03  0.00000000000E+00 0.  1.
</event>
<event>
12    1  0.8271773E-002  0.1731089E+03  0.7818608E-02  0.1175638E+00
         21   -1    0    0  503  502  0.00000000000E+00  0.00000000000E+00  0.28886837279E+02  0.28886837279E+02  0.00000000000E+00 0.  1.
         21   -1    0    0  501  503 -0.00000000000E+00 -0.00000000000E+00 -0.12317033301E+04  0.12317033301E+04  0.00000000000E+00 0.  1.
          6    2    1    2  501    0 -0.80461907879E+01 -0.18290869114E+02 -0.87171726599E+03  0.88873937565E+03  0.17195170524E+03 0.  0.
         24    2    3    3    0    0 -0.69947461763E+02 -0.18644107648E+02 -0.45315263089E+03  0.46559597693E+03  0.78689622546E+02 0.  0.
         -6    2    1    2    0  502  0.80461907879E+01  0.18290869114E+02 -0.33109922688E+03  0.37185079177E+03  0.16806848670E+03 0.  0.
        -24    2    5    5    0    0  0.25197775666E+02  0.47129896447E+01 -0.33763969197E+03  0.34853977810E+03  0.82597065039E+02 0.  0.
          5    1    3    3  501    0  0.61901270976E+02  0.35323853374E+00 -0.41856463510E+03  0.42314339872E+03  0.47000000000E+01 0. -1.
        -11    1    4    4    0    0 -0.19697380163E+02 -0.16492062757E+02 -0.34890392503E+03  0.34984842978E+03  0.00000000000E+00 0.  1.
         12    1    4    4    0    0 -0.50250081600E+02 -0.21520448903E+01 -0.10424870586E+03  0.11574754715E+03  0.00000000000E+00 0. -1.
         -5    1    5    5    0  502 -0.17151584879E+02  0.13577879469E+02  0.65404650933E+01  0.23311013671E+02  0.47000000000E+01 0.  1.
         11    1    6    6    0    0 -0.15735594296E+02 -0.57700527314E+01 -0.13130405401E+02  0.21291077529E+02  0.00000000000E+00 0. -1.
        -12    1    6    6    0    0  0.40933369963E+02  0.10483042376E+02 -0.32450928657E+03  0.32724870057E+03  0.00000000000E+00 0.  1.
</event>
<event>
12    1  0.8271773E-002  0.1739056E+03  0.7818608E-02  0.1173898E+00
         21   -1    0    0  503  502  0.00000000000E+00  0.00000000000E+00  0.31953766780E+03  0.31953766780E+03  0.00000000000E+00 0. -1.
         21   -1    0    0  501  503 -0.00000000000E+00 -0.00000000000E+00 -0.12204612627E+03  0.12204612627E+03  0.00000000000E+00 0. -1.
          6    2    1    2  501    0  0.65212899081E+01 -0.20458121675E+02 -0.60718242836E+01  0.17401152170E+03  0.17257485526E+03 0.  0.
         24    2    3    3    0    0  0.11324836325E+02 -0.95723443085E+01 -0.71886553430E+02  0.10696494998E+03  0.77807083649E+02 0.  0.
         -6    2    1    2    0  502 -0.65212899081E+01  0.20458121675E+02  0.20356336582E+03  0.26757227237E+03  0.17232473727E+03 0.  0.
        -24    2    5    5    0    0 -0.68105058923E+02  0.27276505662E+02  0.98615907686E+02  0.14560871251E+03  0.78067234476E+02 0.  0.
          5    1    3    3  501    0 -0.48035464173E+01 -0.10885777367E+02  0.65814729147E+02  0.67046571722E+02  0.47000000000E+01 0. -1.
        -13    1    4    4    0    0  0.15071285066E+01  0.53499442415E+00  0.16946258927E+02  0.17021555364E+02  0.00000000000E+00 0.  1.
         14    1    4    4    0    0  0.98177078188E+01 -0.10107338733E+02 -0.88832812357E+02  0.89943394612E+02  0.00000000000E+00 0. -1.
         -5    1    5    5    0  502  0.61583769015E+02 -0.68183839871E+01  0.10494745813E+03  0.12196355986E+03  0.47000000000E+01 0.  1.
         11    1    6    6    0    0 -0.25241744766E+01  0.14548393926E+02  0.72324967198E+02  0.73816855141E+02  0.00000000000E+00 0. -1.
        -12    1    6    6    0    0 -0.65580884446E+02  0.12728111737E+02  0.26290940488E+02  0.71791857372E+02  0.00000000000E+00 0.  1.
</event>
<event>
12    1  0.8271773E-002  0.1739789E+03  0.7818608E-02  0.1174181E+00
         21   -1    0    0  501  502  0.00000000000E+00  0.00000000000E+00  0.11953297872E+04  0.11953297872E+04  0.00000000000E+00 0.  1.
         21   -1    0    0  502  503 -0.00000000000E+00 -0.00000000000E+00 -0.25815823579E+02  0.25815823579E+02  0.00000000000E+00 0.  1.
         -6    2    1    2    0  503  0.44308210564E+01 -0.24256240556E+02  0.68496453009E+03  0.70630894278E+03  0.17055180382E+03 0.  0.
        -24    2    3    3    0    0  0.24088246943E+02  0.23163833864E+02  0.60455951197E+03  0.61079907528E+03  0.80414550989E+02 0.  0.
          6    2    1    2  501    0 -0.44308210564E+01  0.24256240556E+02  0.48454943354E+03  0.51483666801E+03  0.17222265763E+03 0.  0.
         24    2    5    5    0    0  0.49154359016E+02 -0.23059251901E+02  0.20693659901E+03  0.22812932027E+03  0.79198173276E+02 0.  0.
          5    1    5    5  501    0 -0.53585180072E+02  0.47315492457E+02  0.27761283454E+03  0.28670734774E+03  0.47000000000E+01 0. -1.
        -11    1    6    6    0    0 -0.11102985612E+02  0.19101840702E+02  0.39634418780E+02  0.45376687403E+02  0.00000000000E+00 0.  1.
         12    1    6    6    0    0  0.60257344628E+02 -0.42161092604E+02  0.16730218023E+03  0.18275263287E+03  0.00000000000E+00 0. -1.
         -5    1    3    3    0  503 -0.19657425887E+02 -0.47420074420E+02  0.80405018120E+02  0.95509867498E+02  0.47000000000E+01 0.  1.
         13    1    4    4    0    0  0.44553864269E+00  0.43795426306E+02  0.18692883788E+03  0.19199121933E+03  0.00000000000E+00 0. -1.
        -14    1    4    4    0    0  0.23642708301E+02 -0.20631592442E+02  0.41763067409E+03  0.41880785595E+03  0.00000000000E+00 0.  1.
</event>
<event>
12    1  0.8271773E-002  0.1808464E+03  0.7818608E-02  0.1167092E+00
         21   -1    0    0  503  502  0.00000000000E+00  0.00000000000E+00  0.32197856610E+03  0.32197856610E+03  0.00000000000E+00 0. -1.
         21   -1    0    0  501  503 -0.00000000000E+00 -0.00000000000E+00 -0.20996777434E+03  0.20996777434E+03  0.00000000000E+00 0. -1.
          6    2    1    2  501    0  0.21131694267E+02 -0.50401075157E+02 -0.13534287367E+03  0.22553282732E+03  0.17193180585E+03 0.  0.
         24    2    3    3    0    0  0.71424354578E+02 -0.22071700689E+02 -0.38787020829E+02  0.11294051915E+03  0.75249780621E+02 0.  0.
         -6    2    1    2    0  502 -0.21131694267E+02  0.50401075157E+02  0.24735366543E+03  0.30641351313E+03  0.17239080123E+03 0.  0.
        -24    2    5    5    0    0 -0.65418720587E+02 -0.55624635328E+01  0.18104701329E+03  0.20888443807E+03  0.80895843190E+02 0.  0.
          5    1    3    3  501    0 -0.50292660312E+02 -0.28329374468E+02 -0.96555852844E+02  0.11259230816E+03  0.47000000000E+01 0. -1.
        -11    1    4    4    0    0  0.42321710761E+02 -0.46513195341E+02 -0.40667206566E+02  0.74889426706E+02  0.00000000000E+00 0.  1.
         12    1    4    4    0    0  0.29102643818E+02  0.24441494651E+02  0.18801857372E+01  0.38051092447E+02  0.00000000000E+00 0. -1.
         -5    1    5    5    0  502  0.44287026320E+02  0.55963538690E+02  0.66306652144E+02  0.97529075057E+02  0.47000000000E+01 0.  1.
         13    1    6    6    0    0 -0.43278226385E+02 -0.33346646305E+02  0.15633815505E+03  0.16560985002E+03  0.00000000000E+00 0. -1.
        -14    1    6    6    0    0 -0.22140494202E+02  0.27784182772E+02  0.24708858233E+02  0.43274588051E+02  0.00000000000E+00 0.  1.
</event>
<event>
12    1  0.8271773E-002  0.2005729E+03  0.7818608E-02  0.1151393E+00
         21   -1    0    0  501  502  0.00000000000E+00  0.00000000000E+00  0.13472997993E+03  0.13472997993E+03  0.00000000000E+00 0. -1.
         21   -1    0    0  502  503 -0.00000000000E+00 -0.00000000000E+00 -0.48485583606E+03  0.48485583606E+03  0.00000000000E+00 0. -1.
         -6    2    1    2    0  503 -0.79443628238E+02 -0.64396698924E+01 -0.37180073684E+03  0.41784514490E+03  0.17322245174E+03 0.  0.
        -24    2    3    3    0    0 -0.54367731457E+02 -0.59854733467E+02 -0.14849029156E+03  0.18682217074E+03  0.79465196485E+02 0.  0.
          6    2    1    2  501    0  0.79443628238E+02  0.64396698924E+01  0.21674880712E+02  0.20174067109E+03  0.18405634600E+03 0.  0.
         24    2    5    5    0    0  0.21237369746E+02  0.71935416500E+02  0.29663699946E+02  0.11362953341E+03  0.80037527120E+02 0.  0.
          5    1    5    5  501    0  0.58206258492E+02 -0.65495746607E+02 -0.79888192333E+01  0.88111137684E+02  0.47000000000E+01 0. -1.
        -13    1    6    6    0    0 -0.28432647854E+02  0.39430818643E+02  0.34390607224E+01  0.48734300667E+02  0.00000000000E+00 0.  1.
         14    1    6    6    0    0  0.49670017600E+02  0.32504597857E+02  0.26224639223E+02  0.64895232742E+02  0.00000000000E+00 0. -1.
         -5    1    3    3    0  503 -0.25075896780E+02  0.53415063575E+02 -0.22331044528E+03  0.23102297415E+03  0.47000000000E+01 0.  1.
         11    1    4    4    0    0  0.67527873816E+01  0.13933308397E+02 -0.35150489441E+02  0.38409557772E+02  0.00000000000E+00 0. -1.
        -12    1    4    4    0    0 -0.61120518839E+02 -0.73788041864E+02 -0.11333980212E+03  0.14841261297E+03  0.00000000000E+00 0.  1.
</event>
<event>
12    1  0.8271773E-002  0.1900112E+03  0.7818608E-02  0.1158523E+00
         21   -1    0    0  503  502  0.00000000000E+00  0.00000000000E+00  0.93453378801E+02  0.93453378801E+02  0.00000000000E+00 0.  1.
         21   -1    0    0  501  503 -0.00000000000E+00 -0.00000000000E+00 -0.46736001027E+03  0.46736001027E+03  0.00000000000E+00 0. -1.
          6    2    1    2  501    0  0.82233320085E+02 -0.45781117798E+01 -0.30404293894E+03  0.35836537139E+03  0.17088110679E+03 0.  0.
         24    2    3    3    0    0  0.41481002307E+02  0.13457454960E+02 -0.52028483317E+02  0.10239777791E+03  0.76658758132E+02 0.  0.
         -6    2    1    2    0  502 -0.82233320085E+02  0.45781117798E+01 -0.69863692533E+02  0.20244801768E+03  0.17123371832E+03 0.  0.
        -24    2    5    5    0    0 -0.90235480502E+02  0.25995932032E+02 -0.10429848142E+03  0.16084750949E+03  0.78584461950E+02 0.  0.
          5    1    3    3  501    0  0.40752317778E+02 -0.18035566740E+02 -0.25201445562E+03  0.25596759348E+03  0.47000000000E+01 0. -1.
        -11    1    4    4    0    0 -0.21884493317E+02 -0.31230800090E+01 -0.81541748397E+01  0.23562157028E+02  0.00000000000E+00 0.  1.
         12    1    4    4    0    0  0.63365495624E+02  0.16580534969E+02 -0.43874308477E+02  0.78835620882E+02  0.00000000000E+00 0. -1.
         -5    1    5    5    0  502  0.80021604166E+01 -0.21417820253E+02  0.34434788887E+02  0.41600508186E+02  0.47000000000E+01 0.  1.
         11    1    6    6    0    0 -0.25057429145E+02 -0.10304631881E+02 -0.76627370932E+02  0.81276159909E+02  0.00000000000E+00 0. -1.
        -12    1    6    6    0    0 -0.65178051356E+02  0.36300563913E+02 -0.27671110487E+02  0.79571349584E+02  0.00000000000E+00 0.  1.
</event>
<event>
12    1  0.8271773E-002  0.2947653E+03  0.7818608E-02  0.1088823E+00
         21   -1    0    0  501  502  0.00000000000E+00  0.00000000000E+00  0.20049601787E+03  0.20049601787E+03  0.00000000000E+00 0.  1.
         21   -1    0    0  502  503 -0.00000000000E+00 -0.00000000000E+00 -0.46153058863E+03  0.46153058863E+03  0.00000000000E+00 0. -1.
         -6    2    1    2    0  503 -0.14581494553E+03 -0.18700575890E+03 -0.22491953496E+03  0.36505707963E+03  0.16261833224E+03 0.  0.
        -24    2    3    3    0    0 -0.14310142037E+03 -0.20125433818E+03 -0.23331730594E+03  0.34765024799E+03  0.73772654327E+02 0.  0.
          6    2    1    2  501    0  0.14581494553E+03  0.18700575890E+03 -0.36115035802E+02  0.29696952687E+03  0.17508127220E+03 0.  0.
         24    2    5    5    0    0  0.16341401403E+03  0.13329212594E+03 -0.63686543708E+02  0.23390480118E+03  0.78641905804E+02 0.  0.
          5    1    5    5  501    0 -0.17599068497E+02  0.53713632959E+02  0.27571507906E+02  0.63064725686E+02  0.47000000000E+01 0. -1.
        -13    1    6    6    0    0  0.25987782910E+02  0.16733518888E+02  0.18311496391E+02  0.35926124408E+02  0.00000000000E+00 0.  1.
         14    1    6    6    0    0  0.13742623112E+03  0.11655860705E+03 -0.81998040099E+02  0.19797867677E+03  0.00000000000E+00 0. -1.
         -5    1    3    3    0  503 -0.27135251553E+01  0.14248579282E+02  0.83977709812E+01  0.17406831641E+02  0.47000000000E+01 0.  1.
         11    1    4    4    0    0 -0.13044342474E+03 -0.18371030480E+03 -0.23548127419E+03  0.32590856638E+03  0.00000000000E+00 0. -1.
        -12    1    4    4    0    0 -0.12657995632E+02 -0.17544033382E+02  0.21639682434E+01  0.21741681611E+02  0.00000000000E+00 0.  1.
</event>
<event>
12    1  0.8271773E-002  0.2395853E+03  0.7818608E-02  0.1120071E+00
         21   -1    0    0  501  502  0.00000000000E+00  0.00000000000E+00  0.10040417187E+03  0.10040417187E+03  0.00000000000E+00 0.  1.
         21   -1    0    0  502  503 -0.00000000000E+00 -0.00000000000E+00 -0.81879563794E+03  0.81879563794E+03  0.00000000000E+00 0.  1.
         -6    2    1    2    0  503 -0.39140337295E+02 -0.16115619174E+03 -0.61168686623E+03  0.65693373795E+03  0.17290988869E+03 0.  0.
        -24    2    3    3    0    0  0.46813076305E+02 -0.81205911655E+02 -0.26638451220E+03  0.29219295014E+03  0.75034309301E+02 0.  0.
          6    2    1    2  501    0  0.39140337295E+02  0.16115619174E+03 -0.10670459984E+03  0.26226607185E+03  0.17289978797E+03 0.  0.
         24    2    5    5    0    0 -0.25427039036E+02  0.40096715627E+02 -0.84598073051E+01  0.93451166993E+02  0.80045433065E+02 0.  0.
          5    1    5    5  501    0  0.64567376330E+02  0.12105947612E+03 -0.98244792533E+02  0.16881490486E+03  0.47000000000E+01 0. -1.
        -11    1    6    6    0    0  0.28941284268E+02  0.15917760471E+02  0.17633748604E+01  0.33076918303E+02  0.00000000000E+00 0.  1.
         12    1    6    6    0    0 -0.54368323304E+02  0.24178955156E+02 -0.10223182166E+02  0.60374248690E+02  0.00000000000E+00 0. -1.
         -5    1    3    3    0  503 -0.85953413600E+02 -0.79950280088E+02 -0.34530235403E+03  0.36474078781E+03  0.47000000000E+01 0.  1.
         13    1    4    4    0    0 -0.33129836849E+01  0.12707507107E+02 -0.21864772921E+02  0.25505389483E+02  0.00000000000E+00 0. -1.
        -14    1    4    4    0    0  0.50126059990E+02 -0.93913418762E+02 -0.24451973928E+03  0.26668756066E+03  0.00000000000E+00 0.  1.
</event>
<event>
12    1  0.8271773E-002  0.2863240E+03  0.7818608E-02  0.1092349E+00
         21   -1    0    0  503  502  0.00000000000E+00  0.00000000000E+00  0.15999545422E+04  0.15999545422E+04  0.00000000000E+00 0.  1.
         21   -1    0    0  501  503 -0.00000000000E+00 -0.00000000000E+00 -0.51357683126E+02  0.51357683126E+02  0.00000000000E+00 0. -1.
          6    2    1    2  501    0  0.17265682783E+03 -0.15015321692E+03  0.72148162957E+03  0.77604023194E+03  0.17130770864E+03 0.  0.
         24    2    3    3    0    0  0.15163783533E+03 -0.17499596772E+03  0.55885874277E+03  0.61012684001E+03  0.79460963378E+02 0.  0.
         -6    2    1    2    0  502 -0.17265682783E+03  0.15015321692E+03  0.82711522946E+03  0.87527199334E+03  0.17211940847E+03 0.  0.
        -24    2    5    5    0    0 -0.10511490438E+03  0.75646828416E+02  0.27703565609E+03  0.31605580940E+03  0.79818131605E+02 0.  0.
          5    1    3    3  501    0  0.21018992498E+02  0.24842750805E+02  0.16262288679E+03  0.16591339193E+03  0.47000000000E+01 0. -1.
        -13    1    4    4    0    0  0.44039499438E+02 -0.37520734969E+02  0.23712637327E+03  0.24408236308E+03  0.00000000000E+00 0.  1.
         14    1    4    4    0    0  0.10759833589E+03 -0.13747523276E+03  0.32173236950E+03  0.36604447693E+03  0.00000000000E+00 0. -1.
         -5    1    5    5    0  502 -0.67541923452E+02  0.74506388504E+02  0.55007957337E+03  0.55921618395E+03  0.47000000000E+01 0.  1.
         11    1    6    6    0    0 -0.77160809316E+02  0.37906716828E+02  0.24381851589E+03  0.25853080738E+03  0.00000000000E+00 0. -1.
        -12    1    6    6    0    0 -0.27954095061E+02  0.37740111587E+02  0.33217140208E+02  0.57525002016E+02  0.00000000000E+00 0.  1.
</event>
<event>
12    1  0.8271773E-002  0.1771784E+03  0.7818608E-02  0.1171047E+00
         21   -1    0    0  503  502  0.00000000000E+00  0.00000000000E+00  0.61137724176E+02  0.61137724176E+02  0.00000000000E+00 0.  1.
         21   -1    0    0  501  503 -0.00000000000E+00 -0.00000000000E+00 -0.50999285754E+03  0.50999285754E+03  0.00000000000E+00 0.  1.
          6    2    1    2  501    0 -0.10987518480E+02  0.29265024233E+02 -0.24427212095E+03  0.30176322196E+03  0.17439898465E+03 0.  0.
         24    2    3    3    0    0 -0.46577681772E+02  0.14858737160E+02 -0.57769535807E+02  0.11129142590E+03  0.81597792260E+02 0.  0.
         -6    2    1    2    0  502  0.10987518480E+02 -0.29265024233E+02 -0.20458301241E+03  0.26936735976E+03  0.17241635168E+03 0.  0.
        -24    2    5    5    0    0 -0.21930665576E+02 -0.51884502765E+02 -0.20761809178E+03  0.22903685818E+03  0.78610779498E+02 0.  0.
          5    1    3    3  501    0  0.35590163293E+02  0.14406287073E+02 -0.18650258514E+03  0.19047179606E+03  0.47000000000E+01 0. -1.
        -11    1    4    4    0    0 -0.26243901540E+02 -0.83340577486E+01 -0.72174908344E+02  0.77249053593E+02  0.00000000000E+00 0.  1.
         12    1    4    4    0    0 -0.20333780233E+02  0.23192794908E+02  0.14405372536E+02  0.34042372305E+02  0.00000000000E+00 0. -1.
         -5    1    5    5    0  502  0.32918184055E+02  0.22619478533E+02  0.30350793612E+01  0.40330501575E+02  0.47000000000E+01 0.  1.
         11    1    6    6    0    0 -0.36169971447E+01 -0.44155677554E+02 -0.38322605072E+02  0.58578396940E+02  0.00000000000E+00 0. -1.
        -12    1    6    6    0    0 -0.18313668431E+02 -0.77288252113E+01 -0.16929548670E+03  0.17045846124E+03  0.00000000000E+00 0.  1.
</event>
<event>
12    1  0.8271773E-002  0.4597635E+03  0.7818608E-02  0.1024857E+00
         21   -1    0    0  503  502  0.00000000000E+00  0.00000000000E+00  0.26284999967E+03  0.26284999967E+03  0.00000000000E+00 0.  1.
         21   -1    0    0  501  503 -0.00000000000E+00 -0.00000000000E+00 -0.12579219614E+04  0.12579219614E+04  0.00000000000E+00 0. -1.
          6    2    1    2  501    0  0.91378305232E+02  0.41641296560E+03 -0.95432393707E+03  0.10593000840E+04  0.17214162366E+03 0.  0.
         24    2    3    3    0    0  0.47278636801E+02  0.40105568828E+03 -0.87909373436E+03  0.97063047187E+03  0.78973315334E+02 0.  0.
         -6    2    1    2    0  502 -0.91378305232E+02 -0.41641296560E+03 -0.40748024642E+02  0.46147187702E+03  0.17188990424E+03 0.  0.
        -24    2    5    5    0    0  0.11958985449E+02 -0.20019374993E+03  0.88721178024E+01  0.21669934300E+03  0.81604754402E+02 0.  0.
          5    1    3    3  501    0  0.44099668431E+02  0.15357277320E+02 -0.75230202710E+02  0.88669612169E+02  0.47000000000E+01 0. -1.
        -13    1    4    4    0    0 -0.98755244756E+01  0.55161020079E+02 -0.76698356594E+02  0.94988957379E+02  0.00000000000E+00 0.  1.
         14    1    4    4    0    0  0.57154161277E+02  0.34589466820E+03 -0.80239537777E+03  0.87564151449E+03  0.00000000000E+00 0. -1.
         -5    1    5    5    0  502 -0.10333729068E+03 -0.21621921567E+03 -0.49620142444E+02  0.24477253401E+03  0.47000000000E+01 0.  1.
         13    1    6    6    0    0 -0.20383592325E+02 -0.98270428948E+01 -0.47605114414E+01  0.23124101654E+02  0.00000000000E+00 0. -1.
        -14    1    6    6    0    0  0.32342577774E+02 -0.19036670703E+03  0.13632629244E+02  0.19357524135E+03  0.00000000000E+00 0.  1.
</event>
<event>
12    1  0.8271773E-002  0.2223670E+03  0.7818608E-02  0.1132229E+00
         21   -1    0    0  503  502  0.00000000000E+00  0.00000000000E+00  0.90712236301E+03  0.90712236301E+03  0.00000000000E+00 0. -1.
         21   -1    0    0  501  503 -0.00000000000E+00 -0.00000000000E+00 -0.73681002103E+02  0.73681002103E+02  0.00000000000E+00 0. -1.
          6    2    1    2  501    0  0.25430209838E+02  0.13722439805E+03  0.16534476461E+03  0.27667258428E+03  0.17242852640E+03 0.  0.
         24    2    3    3    0    0  0.48034030252E+02  0.24932660650E+02  0.14325139947E+01  0.76648378528E+02  0.54258789199E+02 0.  0.
         -6    2    1    2    0  502 -0.25430209838E+02 -0.13722439805E+03  0.66809659630E+03  0.70413078083E+03  0.17311806243E+03 0.  0.
        -24    2    5    5    0    0 -0.30047603199E+02 -0.16691125252E+03  0.59384137083E+03  0.62389015421E+03  0.88482349335E+02 0.  0.
          5    1    3    3  501    0 -0.22603820414E+02  0.11229173740E+03  0.16391225062E+03  0.20002420575E+03  0.47000000000E+01 0. -1.
        -11    1    4    4    0    0  0.29528765126E+02 -0.12016495318E+02 -0.10619979151E+02  0.33602501198E+02  0.00000000000E+00 0.  1.
         12    1    4    4    0    0  0.18505265126E+02  0.36949155968E+02  0.12052493146E+02  0.43045877331E+02  0.00000000000E+00 0. -1.
         -5    1    5    5    0  502  0.46173933614E+01  0.29686854477E+02  0.74255225473E+02  0.80240626619E+02  0.47000000000E+01 0.  1.
         13    1    6    6    0    0  0.23109462659E+02 -0.84478998195E+02  0.20614873652E+03  0.22398225369E+03  0.00000000000E+00 0. -1.
        -14    1    6    6    0    0 -0.53157065858E+02 -0.82432254330E+02  0.38769263431E+03  0.39990790053E+03  0.00000000000E+00 0.  1.
</event>
<event>
12    1  0.8271773E-002  0.2286823E+03  0.7818608E-02  0.1127850E+00
         21   -1    0    0  501  502  0.00000000000E+00  0.00000000000E+00  0.25950170334E+03  0.25950170334E+03  0.00000000000E+00 0. -1.
         21   -1    0    0  502  503 -0.00000000000E+00 -0.00000000000E+00 -0.42427067830E+03  0.42427067830E+03  0.00000000000E+00 0. -1.
         -6    2    1    2    0  503  0.88992043049E+02  0.12169111659E+03 -0.33074022574E+03  0.40120902747E+03  0.16985663137E+03 0.  0.
        -24    2    3    3    0    0  0.11508102538E+03  0.68996153001E+02 -0.29314548110E+03  0.33126012461E+03  0.76124145580E+02 0.  0.
          6    2    1    2  501    0 -0.88992043049E+02 -0.12169111659E+03  0.16597125077E+03  0.28256335417E+03  0.17195139270E+03 0.  0.
         24    2    5    5    0    0  0.16851868339E+02 -0.47044468697E+02  0.85105737372E+02  0.12980086899E+03  0.84309617219E+02 0.  0.
          5    1    5    5  501    0 -0.10584391139E+03 -0.74646647897E+02  0.80865513399E+02  0.15276248518E+03  0.47000000000E+01 0. -1.
        -13    1    6    6    0    0  0.14096228256E+02 -0.13937121598E+02 -0.14656268145E+02  0.24652651083E+02  0.00000000000E+00 0.  1.
         14    1    6    6    0    0  0.27556400835E+01 -0.33107347099E+02  0.99762005517E+02  0.10514821791E+03  0.00000000000E+00 0. -1.
         -5    1    3    3    0  503 -0.26088982326E+02  0.52694963593E+02 -0.37594744640E+02  0.69948902861E+02  0.47000000000E+01 0.  1.
         13    1    4    4    0    0  0.32708690802E+02 -0.22220091547E+01 -0.13718116488E+03  0.14104420505E+03  0.00000000000E+00 0. -1.
        -14    1    4    4    0    0  0.82372334574E+02  0.71218162156E+02 -0.15596431621E+03  0.19021591956E+03  0.00000000000E+00 0.  1.
</event>
<event>
12    1  0.8271773E-002  0.1754999E+03  0.7818608E-02  0.1172775E+00
         21   -1    0    0  503  502  0.00000000000E+00  0.00000000000E+00  0.21638238125E+03  0.21638238125E+03  0.00000000000E+00 0. -1.
         21   -1    0    0  501  503 -0.00000000000E+00 -0.00000000000E+00 -0.25661133983E+03  0.25661133983E+03  0.00000000000E+00 0. -1.
          6    2    1    2  501    0  0.13211787209E+02 -0.18343388564E+02 -0.17920043184E+03  0.25082465821E+03  0.17403787855E+03 0.  0.
         24    2    3    3    0    0 -0.18540587503E+02  0.18039454867E+02 -0.21862822367E+02  0.86176129669E+02  0.79241195132E+02 0.  0.
         -6    2    1    2    0  502 -0.13211787209E+02  0.18343388564E+02  0.13897147326E+03  0.22216906288E+03  0.17185747262E+03 0.  0.
        -24    2    5    5    0    0  0.37725945280E+02 -0.28728950725E+02  0.11693127972E+03  0.14924226500E+03  0.79697741054E+02 0.  0.
          5    1    3    3  501    0  0.31752374712E+02 -0.36382843432E+02 -0.15733760947E+03  0.16464852854E+03  0.47000000000E+01 0. -1.
        -13    1    4    4    0    0 -0.39077078185E+02 -0.14104599242E+02 -0.23987916033E+02  0.47972678421E+02  0.00000000000E+00 0.  1.
         14    1    4    4    0    0  0.20536490682E+02  0.32144054110E+02  0.21250936659E+01  0.38203451248E+02  0.00000000000E+00 0. -1.
         -5    1    5    5    0  502 -0.50937732490E+02  0.47072339289E+02  0.22040193537E+02  0.72926797876E+02  0.47000000000E+01 0.  1.
         11    1    6    6    0    0 -0.18830452821E+02 -0.18333067862E+02  0.70802638188E+02  0.75522850218E+02  0.00000000000E+00 0. -1.
        -12    1    6    6    0    0  0.56556398101E+02 -0.10395882863E+02  0.46128641533E+02  0.73719414785E+02  0.00000000000E+00 0.  1.
</event>
<event>
12    1  0.8271773E-002  0.1959203E+03  0.7818608E-02  0.1153783E+00
         21   -1    0    0  503  502  0.00000000000E+00  0.00000000000E+00  0.12345158098E+03  0.12345158098E+03  0.00000000000E+00 0. -1.
         21   -1    0    0  501  503 -0.00000000000E+00 -0.00000000000E+00 -0.38109460977E+03  0.38109460977E+03  0.00000000000E+00 0. -1.
          6    2    1    2  501    0 -0.52106348187E+01 -0.94119674699E+02 -0.24080576223E+03  0.31043870513E+03  0.17175305133E+03 0.  0.
         24    2    3    3    0    0  0.50770582117E+02 -0.40985424696E+02 -0.73560646839E+02  0.12618300293E+03  0.79079228739E+02 0.  0.
         -6    2    1    2    0  502  0.52106348187E+01  0.94119674699E+02 -0.16837266561E+02  0.19410748561E+03  0.16884477648E+03 0.  0.
        -24    2    5    5    0    0  0.59705648170E+02  0.71094119094E+02 -0.36616673738E+02  0.13155192919E+03  0.85708757336E+02 0.  0.
          5    1    3    3  501    0 -0.55981216936E+02 -0.53134250004E+02 -0.16724511539E+03  0.18425570221E+03  0.47000000000E+01 0. -1.
        -13    1    4    4    0    0  0.47730603673E+02 -0.12191313984E+02 -0.23590285090E+01  0.49319404692E+02  0.00000000000E+00 0.  1.
         14    1    4    4    0    0  0.30399784440E+01 -0.28794110712E+02 -0.71201618330E+02  0.76863598234E+02  0.00000000000E+00 0. -1.
         -5    1    5    5    0  502 -0.54495013351E+02  0.23025555605E+02  0.19779407177E+02  0.62555556423E+02  0.47000000000E+01 0.  1.
         13    1    6    6    0    0  0.10465332905E+02  0.32959177161E+02 -0.56440988577E+02  0.66192263471E+02  0.00000000000E+00 0. -1.
        -14    1    6    6    0    0  0.49240315265E+02  0.38134941934E+02  0.19824314839E+02  0.65359665716E+02  0.00000000000E+00 0.  1.
</event>
<event>
12    1  0.8271773E-002  0.2074419E+03  0.7818608E-02  0.1143650E+00
         21   -1    0    0  501  502  0.00000000000E+00  0.00000000000E+00  0.16320923193E+04  0.16320923193E+04  0.00000000000E+00 0.  1.
         21   -1    0    0  502  503 -0.00000000000E+00 -0.00000000000E+00 -0.29309106682E+02  0.29309106682E+02  0.00000000000E+00 0.  1.
         -6    2    1    2    0  503  0.68643220122E+02 -0.93213984414E+02  0.53734057998E+03  0.57599222919E+03  0.17213776642E+03 0.  0.
        -24    2    3    3    0    0  0.28296487079E+02 -0.44046587512E+02  0.48325668769E+03  0.49237136343E+03  0.78433030489E+02 0.  0.
          6    2    1    2  501    0 -0.68643220122E+02  0.93213984414E+02  0.10654426327E+04  0.10854091968E+04  0.17188479424E+03 0.  0.
         24    2    5    5    0    0 -0.71740819083E+02 -0.57256592723E+00  0.69932868664E+03  0.70743165303E+03  0.79068696632E+02 0.  0.
          5    1    5    5  501    0  0.30975989613E+01  0.93786550341E+02  0.36611394604E+03  0.37797754382E+03  0.47000000000E+01 0. -1.
        -13    1    6    6    0    0 -0.58847712926E+02  0.33575407756E+02  0.37665973307E+03  0.38270473715E+03  0.00000000000E+00 0.  1.
         14    1    6    6    0    0 -0.12893106157E+02 -0.34147973683E+02  0.32266895357E+03  0.32472691587E+03  0.00000000000E+00 0. -1.
         -5    1    3    3    0  503  0.40346733043E+02 -0.49167396902E+02  0.54083892294E+02  0.83620865763E+02  0.47000000000E+01 0.  1.
         13    1    4    4    0    0  0.46271004596E+02 -0.38470059749E+02  0.45122896713E+03  0.45522360675E+03  0.00000000000E+00 0. -1.
        -14    1    4    4    0    0 -0.17974517517E+02 -0.55765277624E+01  0.32027720558E+02  0.37147756675E+02  0.00000000000E+00 0.  1.
</event>
<event>
12    1  0.8271773E-002  0.1820923E+03  0.7818608E-02  0.1165837E+00
         21   -1    0    0  503  502  0.00000000000E+00  0.00000000000E+00  0.11757132037E+04  0.11757132037E+04  0.00000000000E+00 0. -1.
         21   -1    0    0  501  503 -0.00000000000E+00 -0.00000000000E+00 -0.40691027475E+02  0.40691027475E+02  0.00000000000E+00 0. -1.
          6    2    1    2  501    0 -0.26877284834E+02  0.52261453781E+02  0.90464366823E+03  0.92275159197E+03  0.17215308894E+03 0.  0.
         24    2    3    3    0    0 -0.16462466735E+02 -0.25022600043E+02  0.66426491581E+03  0.66999612116E+03  0.82157048808E+02 0.  0.
         -6    2    1    2    0  502  0.26877284834E+02 -0.52261453781E+02  0.23037850796E+03  0.29365263916E+03  0.17234839009E+03 0.  0.
        -24    2    5    5    0    0 -0.25561791046E+01 -0.34173151927E+01  0.22258778650E+03  0.23590435768E+03  0.78021350769E+02 0.  0.
          5    1    3    3  501    0 -0.10414818098E+02  0.77284053825E+02  0.24037875242E+03  0.25275547081E+03  0.47000000000E+01 0. -1.
        -13    1    4    4    0    0 -0.29219133006E+02 -0.31853216872E+02  0.16644845605E+03  0.17196939751E+03  0.00000000000E+00 0.  1.
         14    1    4    4    0    0  0.12756666270E+02  0.68306168286E+01  0.49781645976E+03  0.49802672365E+03  0.00000000000E+00 0. -1.
         -5    1    5    5    0  502  0.29433463938E+02 -0.48844138588E+02  0.77907214533E+01  0.57748281486E+02  0.47000000000E+01 0.  1.
         11    1    6    6    0    0 -0.11943581185E+02 -0.37058317467E+02  0.78256693076E+02  0.87407539928E+02  0.00000000000E+00 0. -1.
        -12    1    6    6    0    0  0.93874020803E+01  0.33641002274E+02  0.14433109343E+03  0.14849681775E+03  0.00000000000E+00 0.  1.
</event>
<event>
12    1  0.8271773E-002  0.1779207E+03  0.7818608E-02  0.1170006E+00
         21   -1    0    0  501  502  0.00000000000E+00  0.00000000000E+00  0.57924868000E+03  0.57924868000E+03  0.00000000000E+00 0.  1.
         21   -1    0    0  502  503 -0.00000000000E+00 -0.00000000000E+00 -0.58492882651E+02  0.58492882651E+02  0.00000000000E+00 0.  1.
         -6    2    1    2    0  503 -0.27434043611E+02  0.30654704795E+02  0.17683408868E+03  0.25085071728E+03  0.17309953716E+03 0.  0.
        -24    2    3    3    0    0 -0.30847392344E+02 -0.44836215488E+02  0.51308700092E+02  0.10425861935E+03  0.72632149701E+02 0.  0.
          6    2    1    2  501    0  0.27434043611E+02 -0.30654704795E+02  0.34392170867E+03  0.38689084538E+03  0.17236602584E+03 0.  0.
         24    2    5    5    0    0  0.12113304320E+02  0.24411312557E+02  0.30837490154E+03  0.31941746680E+03  0.78675243066E+02 0.  0.
          5    1    5    5  501    0  0.15320739291E+02 -0.55066017352E+02  0.35546807129E+02  0.67473378576E+02  0.47000000000E+01 0. -1.
        -13    1    6    6    0    0 -0.33437961304E+02  0.76582713747E+01  0.11212322243E+03  0.11725341524E+03  0.00000000000E+00 0.  1.
         14    1    6    6    0    0  0.45551265624E+02  0.16753041183E+02  0.19625167912E+03  0.20216405156E+03  0.00000000000E+00 0. -1.
         -5    1    3    3    0  503  0.34133487327E+01  0.75490920283E+02  0.12552538859E+03  0.14659209793E+03  0.47000000000E+01 0.  1.
         13    1    4    4    0    0 -0.14453546897E+02 -0.44279322672E+02  0.66972687249E+02  0.81577596627E+02  0.00000000000E+00 0. -1.
        -14    1    4    4    0    0 -0.16393845446E+02 -0.55689281646E+00 -0.15663987157E+02  0.22681022724E+02  0.00000000000E+00 0.  1.
</event>
<event>
12    1  0.8271773E-002  0.2862146E+03  0.7818608E-02  0.1092554E+00
         21   -1    0    0  503  502  0.00000000000E+00  0.00000000000E+00  0.75071991173E+02  0.75071991173E+02  0.00000000000E+00 0.  1.
         21   -1    0    0  501  503 -0.00000000000E+00 -0.00000000000E+00 -0.11318491791E+04  0.11318491791E+04  0.00000000000E+00 0.  1.
          6    2    1    2  501    0 -0.21130337102E+03 -0.85365110531E+02 -0.65235787242E+03  0.71238303955E+03  0.17315451086E+03 0.  0.
         24    2    3    3    0    0 -0.16291654848E+03 -0.33630168064E+02 -0.28883806394E+03  0.34199603920E+03  0.76557649383E+02 0.  0.
         -6    2    1    2    0  502  0.21130337102E+03  0.85365110531E+02 -0.40441931546E+03  0.49453813067E+03  0.17051880622E+03 0.  0.
        -24    2    5    5    0    0  0.14499947505E+03  0.10757732773E+03 -0.36323345133E+03  0.41324880409E+03  0.78982939358E+02 0.  0.
          5    1    3    3  501    0 -0.48386822536E+02 -0.51734942467E+02 -0.36351980849E+03  0.37038700035E+03  0.47000000000E+01 0. -1.
        -11    1    4    4    0    0 -0.11396765540E+03 -0.50878781916E+02 -0.24105819081E+03  0.27145225784E+03  0.00000000000E+00 0.  1.
         12    1    4    4    0    0 -0.48948893082E+02  0.17248613853E+02 -0.47779873124E+02  0.70543781367E+02  0.00000000000E+00 0. -1.
         -5    1    5    5    0  502  0.66303895964E+02 -0.22212217197E+02 -0.41185864132E+02  0.81289326588E+02  0.47000000000E+01 0.  1.
         13    1    6    6    0    0  0.53208480245E+01  0.39093822640E+02 -0.51703240839E+02  0.65037400821E+02  0.00000000000E+00 0. -1.
        -14    1    6    6    0    0  0.13967862703E+03  0.68483505088E+02 -0.31153021049E+03  0.34821140327E+03  0.00000000000E+00 0.  1.
</event>
<event>
12    1  0.8271773E-002  0.1789127E+03  0.7818608E-02  0.1168998E+00
         21   -1    0    0  501  502  0.00000000000E+00  0.00000000000E+00  0.70038853544E+02  0.70038853544E+02  0.00000000000E+00 0. -1.
         21   -1    0    0  502  503 -0.00000000000E+00 -0.00000000000E+00 -0.61694601229E+03  0.61694601229E+03  0.00000000000E+00 0. -1.
         -6    2    1    2    0  503 -0.32940659952E+02 -0.34123433908E+02 -0.44880452736E+03  0.48294103356E+03  0.17192161673E+03 0.  0.
        -24    2    3    3    0    0 -0.82862651923E+02 -0.52387146957E+02 -0.32155785439E+03  0.34495706971E+03  0.77364681710E+02 0.  0.
          6    2    1    2  501    0  0.32940659952E+02  0.34123433908E+02 -0.98102631386E+02  0.20404383227E+03  0.17251163261E+03 0.  0.
         24    2    5    5    0    0 -0.18951582234E+02  0.74873012530E+02 -0.32749091168E+02  0.11105723014E+03  0.72774136340E+02 0.  0.
          5    1    5    5  501    0  0.51892242186E+02 -0.40749578622E+02 -0.65353540218E+02  0.92986602132E+02  0.47000000000E+01 0. -1.
        -11    1    6    6    0    0 -0.95439595303E+01 -0.13154113763E+02  0.10750944531E+01  0.16287225070E+02  0.00000000000E+00 0.  1.
         12    1    6    6    0    0 -0.94076227041E+01  0.88027126293E+02 -0.33824185621E+02  0.94770005072E+02  0.00000000000E+00 0. -1.
         -5    1    3    3    0  503  0.49921991970E+02  0.18263713049E+02 -0.12724667297E+03  0.13798396385E+03  0.47000000000E+01 0.  1.
         13    1    4    4    0    0 -0.10495107718E+02 -0.48025868498E+02 -0.16976802013E+03  0.17674221904E+03  0.00000000000E+00 0. -1.
        -14    1    4    4    0    0 -0.72367544205E+02 -0.43612784589E+01 -0.15178983426E+03  0.16821485068E+03  0.00000000000E+00 0.  1.
</event>
<event>
12    1  0.8271773E-002  0.1908871E+03  0.7818608E-02  0.1157987E+00
         21   -1    0    0  501  502  0.00000000000E+00  0.00000000000E+00  0.32391539855E+03  0.32391539855E+03  0.00000000000E+00 0. -1.
         21   -1    0    0  502  503 -0.00000000000E+00 -0.00000000000E+00 -0.15989132711E+03  0.15989132711E+03  0.00000000000E+00 0.  1.
         -6    2    1    2    0  503  0.74184790761E+02 -0.34802667541E+02 -0.50648274272E+02  0.19749212427E+03  0.17240441588E+03 0.  0.
        -24    2    3    3    0    0  0.11630506090E+03 -0.47163822541E+01 -0.39120317407E+02  0.14425411616E+03  0.75695041731E+02 0.  0.
          6    2    1    2  501    0 -0.74184790761E+02  0.34802667541E+02  0.21467234570E+03  0.28631460139E+03  0.17081342485E+03 0.  0.
         24    2    5    5    0    0 -0.20193571081E+02 -0.34616717429E+02  0.15451825627E+03  0.17966232861E+03  0.82441272214E+02 0.  0.
          5    1    5    5  501    0 -0.53991219681E+02  0.69419384970E+02  0.60154089440E+02  0.10665227278E+03  0.47000000000E+01 0. -1.
        -13    1    6    6    0    0 -0.94090496343E+01 -0.16499170136E+02 -0.42805775067E+01  0.19469878633E+02  0.00000000000E+00 0.  1.
         14    1    6    6    0    0 -0.10784521446E+02 -0.18117547293E+02  0.15879883377E+03  0.16019244998E+03  0.00000000000E+00 0. -1.
         -5    1    3    3    0  503 -0.42120270136E+02 -0.30086285287E+02 -0.11527956864E+02  0.53238008116E+02  0.47000000000E+01 0.  1.
         13    1    4    4    0    0  0.92317278795E+02 -0.30538884084E+02 -0.85749746066E+01  0.97614720174E+02  0.00000000000E+00 0. -1.
        -14    1    4    4    0    0  0.23987782102E+02  0.25822501830E+02 -0.30545342801E+02  0.46639395984E+02  0.00000000000E+00 0.  1.
</event>
<event>
12    1  0.8271773E-002  0.2178616E+03  0.7818608E-02  0.1135540E+00
         21   -1    0    0  503  502  0.00000000000E+00  0.00000000000E+00  0.16758854013E+03  0.16758854013E+03  0.00000000000E+00 0.  1.
         21   -1    0    0  501  503 -0.00000000000E+00 -0.00000000000E+00 -0.28291115558E+03  0.28291115558E+03  0.00000000000E+00 0.  1.
          6    2    1    2  501    0  0.86202702204E+02  0.10176242450E+03 -0.54452357232E+02  0.22456344176E+03  0.17227066860E+03 0.  0.
         24    2    3    3    0    0  0.28068394798E+02  0.54554793347E+02  0.36156980262E+02  0.10691863661E+03  0.79750908271E+02 0.  0.
         -6    2    1    2    0  502 -0.86202702204E+02 -0.10176242450E+03 -0.60870258224E+02  0.22593625395E+03  0.17191714749E+03 0.  0.
        -24    2    5    5    0    0 -0.10438154213E+03 -0.10226051358E+03 -0.41546275839E+01  0.16619120333E+03  0.79054007866E+02 0.  0.
          5    1    3    3  501    0  0.58134307406E+02  0.47207631158E+02 -0.90609337494E+02  0.11764480515E+03  0.47000000000E+01 0. -1.
        -13    1    4    4    0    0  0.54930196157E+02  0.31871883319E+02  0.13012007634E+02  0.64826350652E+02  0.00000000000E+00 0.  1.
         14    1    4    4    0    0 -0.26861801359E+02  0.22682910028E+02  0.23144972628E+02  0.42092285962E+02  0.00000000000E+00 0. -1.
         -5    1    5    5    0  502  0.18178839926E+02  0.49808907697E+00 -0.56715630640E+02  0.59745050613E+02  0.47000000000E+01 0.  1.
         11    1    6    6    0    0  0.12152415674E+02 -0.15348758231E+02  0.59620060641E+01  0.20464874841E+02  0.00000000000E+00 0. -1.
        -12    1    6    6    0    0 -0.11653395780E+03 -0.86911755351E+02 -0.10116633648E+02  0.14572632849E+03  0.00000000000E+00 0.  1.
</event>
<event>
12    1  0.8271773E-002  0.1754702E+03  0.7818608E-02  0.1172419E+00
         21   -1    0    0  501  502  0.00000000000E+00  0.00000000000E+00  0.26619346721E+03  0.26619346721E+03  0.00000000000E+00 0. -1.
         21   -1    0    0  502  503 -0.00000000000E+00 -0.00000000000E+00 -0.19192540199E+03  0.19192540199E+03  0.00000000000E+00 0. -1.
         -6    2    1    2    0  503  0.25417705741E+01  0.36333870101E+02 -0.10760591320E+03  0.20583688917E+03  0.17164842461E+03 0.  0.
        -24    2    3    3    0    0  0.33405727922E+02 -0.11111944721E+02 -0.36891770351E+01  0.87411945584E+02  0.79923840187E+02 0.  0.
          6    2    1    2  501    0 -0.25417705741E+01 -0.36333870101E+02  0.18187397842E+03  0.25228198003E+03  0.17100129446E+03 0.  0.
         24    2    5    5    0    0 -0.47069134586E+02  0.23875739454E+01  0.44662945478E+02  0.10284639546E+03  0.79758375234E+02 0.  0.
          5    1    5    5  501    0  0.44527364012E+02 -0.38721444047E+02  0.13721103295E+03  0.14943558457E+03  0.47000000000E+01 0. -1.
        -13    1    6    6    0    0 -0.30527708001E+02 -0.34999214102E+02  0.64546303760E+01  0.46888678770E+02  0.00000000000E+00 0.  1.
         14    1    6    6    0    0 -0.16541426585E+02  0.37386788047E+02  0.38208315102E+02  0.55957716688E+02  0.00000000000E+00 0. -1.
         -5    1    3    3    0  503 -0.30863957348E+02  0.47445814823E+02 -0.10391673617E+03  0.11842494359E+03  0.47000000000E+01 0.  1.
         11    1    4    4    0    0  0.20204441769E+02  0.17453201020E+02 -0.34330254524E+02  0.43490229578E+02  0.00000000000E+00 0. -1.
        -12    1    4    4    0    0  0.13201286153E+02 -0.28565145742E+02  0.30641077489E+02  0.43921716007E+02  0.00000000000E+00 0.  1.
</event>
<event>
12    1  0.8271773E-002  0.1768202E+03  0.7818608E-02  0.1170990E+00
         21   -1    0    0  501  502  0.00000000000E+00  0.00000000000E+00  0.60109318898E+03  0.60109318898E+03  0.00000000000E+00 0. -1.
         21   -1    0    0  502  503 -0.00000000000E+00 -0.00000000000E+00 -0.76349327522E+02  0.76349327522E+02  0.00000000000E+00 0. -1.
         -6    2    1    2    0  503 -0.80614027541E+01  0.40156562098E+02  0.70649708175E+02  0.19013676384E+03  0.17170635400E+03 0.  0.
        -24    2    3    3    0    0 -0.53994097789E+02  0.69817734709E+02  0.71757377249E+02  0.13524674139E+03  0.73162020139E+02 0.  0.
          6    2    1    2  501    0  0.80614027541E+01 -0.40156562098E+02  0.45409415329E+03  0.48730575267E+03  0.17201122300E+03 0.  0.
         24    2    5    5    0    0  0.28688139248E+02 -0.54475616799E+02  0.45023324900E+03  0.46146984417E+03  0.80335772928E+02 0.  0.
          5    1    5    5  501    0 -0.20626736494E+02  0.14319054701E+02  0.38609042841E+01  0.25835908495E+02  0.47000000000E+01 0. -1.
        -13    1    6    6    0    0 -0.14902677298E+01  0.11704314150E+02  0.10602420443E+02  0.15862634928E+02  0.00000000000E+00 0.  1.
         14    1    6    6    0    0  0.30178406977E+02 -0.66179930949E+02  0.43963082856E+03  0.44560720924E+03  0.00000000000E+00 0. -1.
         -5    1    3    3    0  503  0.45932695035E+02 -0.29661172610E+02 -0.11076690744E+01  0.54890022450E+02  0.47000000000E+01 0.  1.
         13    1    4    4    0    0  0.50661873893E+01  0.44247125652E+02  0.50809177584E+02  0.67565130873E+02  0.00000000000E+00 0. -1.
        -14    1    4    4    0    0 -0.59060285178E+02  0.25570609056E+02  0.20948199665E+02  0.67681610516E+02  0.00000000000E+00 0.  1.
</event>
<event>
12    1  0.8271773E-002  0.1976597E+03  0.7818608E-02  0.1151754E+00
         21   -1    0    0  503  502  0.00000000000E+00  0.00000000000E+00  0.25246508532E+03  0.25246508532E+03  0.00000000000E+00 0. -1.
         21   -1    0    0  501  503 -0.00000000000E+00 -0.00000000000E+00 -0.15514055815E+03  0.15514055815E+03  0.00000000000E+00 0. -1.
          6    2    1    2  501    0 -0.43080436791E+02  0.87158527725E+02  0.60031008757E+02  0.20657467847E+03  0.17209544672E+03 0.  0.
         24    2    3    3    0    0 -0.73343183897E+02  0.11224729914E+03  0.57271961153E+02  0.16688862730E+03  0.81197645280E+02 0.  0.
         -6    2    1    2    0  502  0.43080436791E+02 -0.87158527725E+02  0.37293518416E+02  0.20103096500E+03  0.17195961557E+03 0.  0.
        -24    2    5    5    0    0 -0.43754579295E+02 -0.53719751349E+02  0.31242892433E+02  0.10766516903E+03  0.76258739822E+02 0.  0.
          5    1    3    3  501    0  0.30262747107E+02 -0.25088771415E+02  0.27590476035E+01  0.39686051167E+02  0.47000000000E+01 0. -1.
        -11    1    4    4    0    0 -0.19863293607E+02  0.18238877638E+01 -0.14578014050E+02  0.24706183298E+02  0.00000000000E+00 0.  1.
         12    1    4    4    0    0 -0.53479890291E+02  0.11042341138E+03  0.71849975203E+02  0.14218244400E+03  0.00000000000E+00 0. -1.
         -5    1    5    5    0  502  0.86835016086E+02 -0.33438776376E+02  0.60506259827E+01  0.93365795980E+02  0.47000000000E+01 0.  1.
         11    1    6    6    0    0  0.88349274340E+01 -0.43117158590E+02 -0.28431188550E+01  0.44104746144E+02  0.00000000000E+00 0. -1.
        -12    1    6    6    0    0 -0.52589506729E+02 -0.10602592760E+02  0.34086011288E+02  0.63560422881E+02  0.00000000000E+00 0.  1.
</event>
<event>
12    1  0.8271773E-002  0.2346605E+03  0.7818608E-02  0.1123773E+00
         21   -1    0    0  503  502  0.00000000000E+00  0.00000000000E+00  0.39935213220E+03  0.39935213220E+03  0.00000000000E+00 0.  1.
         21   -1    0    0  501  503 -0.00000000000E+00 -0.00000000000E+00 -0.13858486355E+03  0.13858486355E+03  0.00000000000E+00 0. -1.
          6    2    1    2  501    0 -0.13029168402E+03 -0.89557659077E+02  0.16177983716E+03  0.28325273322E+03  0.17047843835E+03 0.  0.
         24    2    3    3    0    0 -0.10010491743E+03 -0.11123720816E+03  0.17407141768E+03  0.24382664189E+03  0.82194050095E+02 0.  0.
         -6    2    1    2    0  502  0.13029168402E+03  0.89557659077E+02  0.98987431481E+02  0.25468426253E+03  0.17340433894E+03 0.  0.
        -24    2    5    5    0    0  0.13581858985E+03  0.80805173254E+02  0.24051687686E+02  0.17889106762E+03  0.80295485684E+02 0.  0.
          5    1    3    3  501    0 -0.30186766597E+02  0.21679549081E+02 -0.12291580520E+02  0.39426091330E+02  0.47000000000E+01 0. -1.
        -13    1    4    4    0    0 -0.10324306915E+03 -0.11396853350E+03  0.13528267467E+03  0.20481542916E+03  0.00000000000E+00 0.  1.
         14    1    4    4    0    0  0.31381517236E+01  0.27313253416E+01  0.38788743018E+02  0.39011212738E+02  0.00000000000E+00 0. -1.
         -5    1    5    5    0  502 -0.55269058249E+01  0.87524858234E+01  0.74935743795E+02  0.75793194906E+02  0.47000000000E+01 0.  1.
         13    1    6    6    0    0 -0.90552819961E+01  0.19940337107E+01 -0.62842492727E+01  0.11201164734E+02  0.00000000000E+00 0. -1.
        -14    1    6    6    0    0  0.14487387184E+03  0.78811139543E+02  0.30335936959E+02  0.16768990289E+03  0.00000000000E+00 0.  1.
</event>
<event>
12    1  0.8271773E-002  0.2836737E+03  0.7818608E-02  0.1094240E+00
         21   -1    0    0  501  502  0.00000000000E+00  0.00000000000E+00  0.42395669763E+03  0.42395669763E+03  0.00000000000E+00 0.  1.
         21   -1    0    0  502  503 -0.00000000000E+00 -0.00000000000E+00 -0.33874359111E+03  0.33874359111E+03  0.00000000000E+00 0.  1.
         -6    2    1    2    0  503  0.13026210597E+03 -0.18233155509E+03 -0.21234065867E+03  0.35434351957E+03  0.17394758494E+03 0.  0.
        -24    2    3    3    0    0  0.13966035439E+03 -0.13805234595E+03 -0.10270463156E+03  0.23563747981E+03  0.80083180119E+02 0.  0.
          6    2    1    2  501    0 -0.13026210597E+03  0.18233155509E+03  0.29755376520E+03  0.40835676917E+03  0.16734394374E+03 0.  0.
         24    2    5    5    0    0 -0.12689815499E+03  0.97610723227E+02  0.25928786040E+03  0.31521545187E+03  0.80620044138E+02 0.  0.
          5    1    5    5  501    0 -0.33639509791E+01  0.84720831862E+02  0.38265904795E+02  0.93141317294E+02  0.47000000000E+01 0. -1.
        -13    1    6    6    0    0 -0.38675779428E+02  0.58248620852E+02  0.54038717437E+02  0.88367984744E+02  0.00000000000E+00 0.  1.
         14    1    6    6    0    0 -0.88222375566E+02  0.39362102374E+02  0.20524914297E+03  0.22684746713E+03  0.00000000000E+00 0. -1.
         -5    1    3    3    0  503 -0.93982484148E+01 -0.44279209139E+02 -0.10963602711E+03  0.11870603976E+03  0.47000000000E+01 0.  1.
         13    1    4    4    0    0  0.77579469424E+02 -0.53595198856E+02 -0.84449225419E+01  0.94669615682E+02  0.00000000000E+00 0. -1.
        -14    1    4    4    0    0  0.62080884963E+02 -0.84457147093E+02 -0.94259709019E+02  0.14096786413E+03  0.00000000000E+00 0.  1.
</event>
<event>
12    1  0.8271773E-002  0.2011113E+03  0.7818608E-02  0.1149027E+00
         21   -1    0    0  503  502  0.00000000000E+00  0.00000000000E+00  0.53433608193E+03  0.53433608193E+03  0.00000000000E+00 0. -1.
         21   -1    0    0  501  503 -0.00000000000E+00 -0.00000000000E+00 -0.11983410929E+03  0.11983410929E+03  0.00000000000E+00 0. -1.
          6    2    1    2  501    0 -0.10071291741E+03  0.12882889330E+02  0.81893735378E+01  0.20127792145E+03  0.17359917987E+03 0.  0.
         24    2    3    3    0    0 -0.98837739422E+02  0.68864278458E+02  0.43269360288E+01  0.14493574679E+03  0.80476460791E+02 0.  0.
         -6    2    1    2    0  502  0.10071291741E+03 -0.12882889330E+02  0.40631259911E+03  0.45289226978E+03  0.17237290755E+03 0.  0.
        -24    2    5    5    0    0  0.90956262079E+02  0.37864918999E+02  0.36569351505E+03  0.38699437631E+03  0.79536825709E+02 0.  0.
          5    1    3    3  501    0 -0.18751779839E+01 -0.55981389128E+02  0.38624375091E+01  0.56342174653E+02  0.47000000000E+01 0. -1.
        -11    1    4    4    0    0 -0.17342152858E+02  0.76020862635E+01  0.33856308502E+02  0.38791643516E+02  0.00000000000E+00 0.  1.
         12    1    4    4    0    0 -0.81495586564E+02  0.61262192195E+02 -0.29529372473E+02  0.10614410328E+03  0.00000000000E+00 0. -1.
         -5    1    5    5    0  502  0.97566553266E+01 -0.50747808330E+02  0.40619084063E+02  0.65897893468E+02  0.47000000000E+01 0.  1.
         13    1    6    6    0    0  0.41866125374E+02 -0.21315552884E+02  0.10161684958E+03  0.11195137055E+03  0.00000000000E+00 0. -1.
        -14    1    6    6    0    0  0.49090136705E+02  0.59180471883E+02  0.26407666547E+03  0.27504300576E+03  0.00000000000E+00 0.  1.
</event>
<event>
12    1  0.8271773E-002  0.1762989E+03  0.7818608E-02  0.1172446E+00
         21   -1    0    0  503  502  0.00000000000E+00  0.00000000000E+00  0.79835107843E+02  0.79835107843E+02  0.00000000000E+00 0. -1.
         21   -1    0    0  501  503 -0.00000000000E+00 -0.00000000000E+00 -0.77373727838E+03  0.77373727838E+03  0.00000000000E+00 0. -1.
          6    2    1    2  501    0 -0.35725809176E+02  0.62253443103E+01 -0.65317030246E+03  0.67654470614E+03  0.17252885856E+03 0.  0.
         24    2    3    3    0    0  0.38008403929E+01 -0.46880824023E+01 -0.13224761985E+03  0.15398945531E+03  0.78656817171E+02 0.  0.
         -6    2    1    2    0  502  0.35725809176E+02 -0.62253443103E+01 -0.40731868080E+02  0.17702768009E+03  0.16841800998E+03 0.  0.
        -24    2    5    5    0    0  0.48805687964E+02 -0.10133993400E+02 -0.88110691165E+02  0.12749785429E+03  0.77508166988E+02 0.  0.
          5    1    3    3  501    0 -0.39526649569E+02  0.10913426713E+02 -0.52092268261E+03  0.52255525083E+03  0.47000000000E+01 0. -1.
        -13    1    4    4    0    0  0.86433521274E+01 -0.37738217396E+02 -0.10132909429E+03  0.10847334206E+03  0.00000000000E+00 0.  1.
         14    1    4    4    0    0 -0.48425117346E+01  0.33050134993E+02 -0.30918525566E+02  0.45516113259E+02  0.00000000000E+00 0. -1.
         -5    1    5    5    0  502 -0.13079878788E+02  0.39086490902E+01  0.47378823085E+02  0.49529825800E+02  0.47000000000E+01 0.  1.
         11    1    6    6    0    0  0.20751000110E+02 -0.20300044827E+02  0.52360931202E+01  0.29497669344E+02  0.00000000000E+00 0. -1.
        -12    1    6    6    0    0  0.28054687854E+02  0.10166051427E+02 -0.93346784285E+02  0.98000184942E+02  0.00000000000E+00 0.  1.
</event>
<event>
12    1  0.8271773E-002  0.2060553E+03  0.7818608E-02  0.1146014E+00
         21   -1    0    0  503  502  0.00000000000E+00  0.00000000000E+00  0.69928232565E+03  0.69928232565E+03  0.00000000000E+00 0.  1.
         21   -1    0    0  501  503 -0.00000000000E+00 -0.00000000000E+00 -0.79459764465E+02  0.79459764465E+02  0.00000000000E+00 0. -1.
          6    2    1    2  501    0  0.60859438331E+02 -0.81226335600E+02  0.10831332568E+03  0.22728902357E+03  0.17212476546E+03 0.  0.
         24    2    3    3    0    0  0.29467037407E+02 -0.10748069893E+03  0.12256049109E+03  0.18370179893E+03  0.79403211626E+02 0.  0.
         -6    2    1    2    0  502 -0.60859438331E+02  0.81226335600E+02  0.51150923550E+03  0.55145306654E+03  0.17932428104E+03 0.  0.
        -24    2    5    5    0    0 -0.77042094141E+02  0.12084935807E+03  0.42203850782E+03  0.45216075380E+03  0.76110403869E+02 0.  0.
          5    1    3    3  501    0  0.31392400924E+02  0.26254363332E+02 -0.14247165409E+02  0.43587224641E+02  0.47000000000E+01 0. -1.
        -13    1    4    4    0    0  0.54727960737E+02 -0.62925716849E+02  0.91496886605E+02  0.12380014453E+03  0.00000000000E+00 0.  1.
         14    1    4    4    0    0 -0.25260923330E+02 -0.44554982084E+02  0.31063604489E+02  0.59901654400E+02  0.00000000000E+00 0. -1.
         -5    1    5    5    0  502  0.16182655811E+02 -0.39623022469E+02  0.89470727679E+02  0.99292312745E+02  0.47000000000E+01 0.  1.
         13    1    6    6    0    0 -0.29665928886E+02 -0.14544913234E+01  0.56998268930E+02  0.64272743388E+02  0.00000000000E+00 0. -1.
        -14    1    6    6    0    0 -0.47376165255E+02  0.12230384939E+03  0.36504023889E+03  0.38788801041E+03  0.00000000000E+00 0.  1.
</event>
<event>
12    1  0.8271773E-002  0.1944665E+03  0.7818608E-02  0.1154747E+00
         21   -1    0    0  503  502  0.00000000000E+00  0.00000000000E+00  0.22760798178E+03  0.22760798178E+03  0.00000000000E+00 0. -1.
         21   -1    0    0  501  503 -0.00000000000E+00 -0.00000000000E+00 -0.27660369372E+03  0.27660369372E+03  0.00000000000E+00 0. -1.
          6    2    1    2  501    0  0.48992786285E+02 -0.73626899139E+02 -0.18447323877E+03  0.26720662866E+03  0.17189471544E+03 0.  0.
         24    2    3    3    0    0  0.68787021327E+02 -0.15223169263E+01 -0.59925621690E+02  0.12186192997E+03  0.80779193423E+02 0.  0.
         -6    2    1    2    0  502 -0.48992786285E+02  0.73626899139E+02  0.13547752683E+03  0.23700504684E+03  0.17319358696E+03 0.  0.
        -24    2    5    5    0    0  0.68833505668E+01  0.93239690446E+02  0.12583637698E+03  0.17682327200E+03  0.81796426323E+02 0.  0.
          5    1    3    3  501    0 -0.19794235042E+02 -0.72104582213E+02 -0.12454761708E+03  0.14534469869E+03  0.47000000000E+01 0. -1.
        -13    1    4    4    0    0  0.69956732996E+02 -0.24190398428E+02 -0.65106648626E+02  0.98579894314E+02  0.00000000000E+00 0.  1.
         14    1    4    4    0    0 -0.11697116690E+01  0.22668081502E+02  0.51810269359E+01  0.23282035660E+02  0.00000000000E+00 0. -1.
         -5    1    5    5    0  502 -0.55876136852E+02 -0.19612791306E+02  0.96411498521E+01  0.60181774839E+02  0.47000000000E+01 0.  1.
         13    1    6    6    0    0 -0.40671626996E+01  0.23743004750E+02  0.98404958576E+02  0.10131045336E+03  0.00000000000E+00 0. -1.
        -14    1    6    6    0    0  0.10950513266E+02  0.69496685695E+02  0.27431418402E+02  0.75512818640E+02  0.00000000000E+00 0.  1.
</event>
<event>
12    1  0.8271773E-002  0.2419061E+03  0.7818608E-02  0.1119889E+00
         21   -1    0    0  503  502  0.00000000000E+00  0.00000000000E+00  0.14565207587E+03  0.14565207587E+03  0.00000000000E+00 0.  1.
         21   -1    0    0  501  503 -0.00000000000E+00 -0.00000000000E+00 -0.48361733309E+03  0.48361733309E+03  0.00000000000E+00 0. -1.
          6    2    1    2  501    0 -0.88451646759E+02  0.13128854424E+03 -0.31085953419E+03  0.39389367271E+03  0.18291582693E+03 0.  0.
         24    2    3    3    0    0 -0.39472527075E+02  0.14893891392E+03 -0.29049050917E+03  0.33779129401E+03  0.77313271318E+02 0.  0.
         -6    2    1    2    0  502  0.88451646759E+02 -0.13128854424E+03 -0.27105723021E+02  0.23537573625E+03  0.17206580524E+03 0.  0.
        -24    2    5    5    0    0  0.88281674645E+02 -0.15767520121E+03 -0.16551358280E+01  0.19841485226E+03  0.81918196807E+02 0.  0.
          5    1    3    3  501    0 -0.48979119685E+02 -0.17650369681E+02 -0.20369025024E+02  0.56102378696E+02  0.47000000000E+01 0. -1.
        -11    1    4    4    0    0 -0.59272115267E+02  0.11471061618E+03 -0.18923526858E+03  0.22908883863E+03  0.00000000000E+00 0.  1.
         12    1    4    4    0    0  0.19799588193E+02  0.34228297737E+02 -0.10125524059E+03  0.10870245538E+03  0.00000000000E+00 0. -1.
         -5    1    5    5    0  502  0.16997211442E+00  0.26386656975E+02 -0.25450587193E+02  0.36960883989E+02  0.47000000000E+01 0.  1.
         11    1    6    6    0    0 -0.89419415860E+01 -0.51482165372E+02 -0.13447739355E+02  0.53955661098E+02  0.00000000000E+00 0. -1.
        -12    1    6    6    0    0  0.97223616231E+02 -0.10619303584E+03  0.11792603527E+02  0.14445919116E+03  0.00000000000E+00 0.  1.
</event>
<event>
12    1  0.8271773E-002  0.2986723E+03  0.7818608E-02  0.1085922E+00
         21   -1    0    0  503  502  0.00000000000E+00  0.00000000000E+00  0.23714020088E+03  0.23714020088E+03  0.00000000000E+00 0. -1.
         21   -1    0    0  501  503 -0.00000000000E+00 -0.00000000000E+00 -0.75829601515E+03  0.75829601515E+03  0.00000000000E+00 0. -1.
          6    2    1    2  501    0 -0.23362961876E+03 -0.71309102397E+02 -0.61400012286E+03  0.68278936355E+03  0.17186441536E+03 0.  0.
         24    2    3    3    0    0 -0.38929566987E+02 -0.33286333463E+02 -0.25993982773E+03  0.27691423041E+03  0.80556103322E+02 0.  0.
         -6    2    1    2    0  502  0.23362961876E+03  0.71309102397E+02  0.92844308587E+02  0.31264685247E+03  0.17163974446E+03 0.  0.
        -24    2    5    5    0    0  0.79967592818E+02  0.96194495617E+01  0.94976461999E+02  0.14698373780E+03  0.78079069753E+02 0.  0.
          5    1    3    3  501    0 -0.19470005177E+03 -0.38022768934E+02 -0.35406029512E+03  0.40587513314E+03  0.47000000000E+01 0. -1.
        -11    1    4    4    0    0 -0.49098217429E+02 -0.42803425542E+02 -0.25319537207E+03  0.26143960035E+03  0.00000000000E+00 0.  1.
         12    1    4    4    0    0  0.10168650441E+02  0.95170920785E+01 -0.67444556616E+01  0.15474630063E+02  0.00000000000E+00 0. -1.
         -5    1    5    5    0  502  0.15366202594E+03  0.61689652835E+02 -0.21321534125E+01  0.16566311467E+03  0.47000000000E+01 0.  1.
         11    1    6    6    0    0  0.85208940015E+02 -0.93778529231E+01  0.53459279402E+02  0.10102673972E+03  0.00000000000E+00 0. -1.
        -12    1    6    6    0    0 -0.52413471964E+01  0.18997302485E+02  0.41517182598E+02  0.45956998085E+02  0.00000000000E+00 0.  1.
</event>
<event>
12    1  0.8271773E-002  0.1885620E+03  0.7818608E-02  0.1160909E+00
         21   -1    0    0  501  502  0.00000000000E+00  0.00000000000E+00  0.33711876126E+03  0.33711876126E+03  0.00000000000E+00 0.  1.
         21   -1    0    0  502  503 -0.00000000000E+00 -0.00000000000E+00 -0.23670611115E+03  0.23670611115E+03  0.00000000000E+00 0.  1.
         -6    2    1    2    0  503  0.28962827767E+02 -0.54982732487E+02 -0.16535862917E+03  0.25079693349E+03  0.17802718708E+03 0.  0.
        -24    2    3    3    0    0  0.39688746916E+00 -0.81874953050E+02 -0.42505734258E+02  0.12174605879E+03  0.79446207766E+02 0.  0.
          6    2    1    2  501    0 -0.28962827767E+02  0.54982732487E+02  0.26577127928E+03  0.32302793893E+03  0.17277363854E+03 0.  0.
         24    2    5    5    0    0 -0.88891410600E+01  0.59481421893E+02  0.59495703075E+02  0.11567583635E+03  0.78892991147E+02 0.  0.
          5    1    5    5  501    0 -0.20073686707E+02 -0.44986894064E+01  0.20627557621E+03  0.20735210258E+03  0.47000000000E+01 0. -1.
        -11    1    6    6    0    0 -0.50893793493E+01  0.28539968383E+02  0.75326568410E+02  0.80712598062E+02  0.00000000000E+00 0.  1.
         12    1    6    6    0    0 -0.37997617107E+01  0.30941453511E+02 -0.15830865336E+02  0.34963238290E+02  0.00000000000E+00 0. -1.
         -5    1    3    3    0  503  0.28565940298E+02  0.26892220563E+02 -0.12285289492E+03  0.12905087470E+03  0.47000000000E+01 0.  1.
         11    1    4    4    0    0 -0.15570949095E+02  0.42058179650E+01  0.10645829868E+02  0.19325554431E+02  0.00000000000E+00 0. -1.
        -12    1    4    4    0    0  0.15967836564E+02 -0.86080771015E+02 -0.53151564127E+02  0.10242050435E+03  0.00000000000E+00 0.  1.
</event>
<event>
12    1  0.8271773E-002  0.5753454E+03  0.7818608E-02  0.9958388E-01
         21   -1    0    0  503  502  0.00000000000E+00  0.00000000000E+00  0.72546516425E+03  0.72546516425E+03  0.00000000000E+00 0.  1.
         21   -1    0    0  501  503 -0.00000000000E+00 -0.00000000000E+00 -0.77221351716E+03  0.77221351716E+03  0.00000000000E+00 0. -1.
          6    2    1    2  501    0 -0.12581320568E+03  0.53418146281E+03 -0.50285091159E+03  0.76347715822E+03  0.16988094038E+03 0.  0.
         24    2    3    3    0    0 -0.11820479286E+03  0.54282307598E+03 -0.49697788572E+03  0.74972405469E+03  0.80435529624E+02 0.  0.
         -6    2    1    2    0  502  0.12581320568E+03 -0.53418146281E+03  0.45610255868E+03  0.73420152319E+03  0.17275281384E+03 0.  0.
        -24    2    5    5    0    0  0.73569497015E+02 -0.37366128509E+03  0.22476431269E+03  0.44778293683E+03  0.70394143216E+02 0.  0.
          5    1    3    3  501    0 -0.76084128138E+01 -0.86416131678E+01 -0.58730258768E+01  0.13753103527E+02  0.47000000000E+01 0. -1.
        -11    1    4    4    0    0 -0.49553894574E+02  0.13724029409E+03 -0.92123384417E+02  0.17256072770E+03  0.00000000000E+00 0.  1.
         12    1    4    4    0    0 -0.68650898290E+02  0.40558278189E+03 -0.40485450130E+03  0.57716332699E+03  0.00000000000E+00 0. -1.
         -5    1    5    5    0  502  0.52243708663E+02 -0.16052017772E+03  0.23133824599E+03  0.28641858635E+03  0.47000000000E+01 0.  1.
         13    1    6    6    0    0  0.41907654822E+02 -0.20041411047E+03  0.80064311409E+02  0.21984622164E+03  0.00000000000E+00 0. -1.
        -14    1    6    6    0    0  0.31661842192E+02 -0.17324717462E+03  0.14470000128E+03  0.22793671520E+03  0.00000000000E+00 0.  1.
</event>
<event>
12    1  0.8271773E-002  0.2087965E+03  0.7818608E-02  0.1142829E+00
         21   -1    0    0  501  502  0.00000000000E+00  0.00000000000E+00  0.12947755356E+03  0.12947755356E+03  0.00000000000E+00 0. -1.
         21   -1    0    0  502  503 -0.00000000000E+00 -0.00000000000E+00 -0.36114691762E+03  0.36114691762E+03  0.00000000000E+00 0. -1.
         -6    2    1    2    0  503 -0.10802006148E+03  0.43532256561E+02 -0.18239718955E+03  0.27609302889E+03  0.17145038583E+03 0.  0.
        -24    2    3    3    0    0  0.12256398289E+02  0.38981745648E+02 -0.84289154112E+02  0.12074049257E+03  0.76182735914E+02 0.  0.
          6    2    1    2  501    0  0.10802006148E+03 -0.43532256561E+02 -0.49272174514E+02  0.21453144229E+03  0.17329916764E+03 0.  0.
         24    2    5    5    0    0 -0.83445005094E+01 -0.43543539755E+02 -0.14375355858E+02  0.92955995065E+02  0.80426958287E+02 0.  0.
          5    1    5    5  501    0  0.11636456199E+03  0.11283193447E-01 -0.34896818656E+02  0.12157544722E+03  0.47000000000E+01 0. -1.
        -13    1    6    6    0    0  0.63686145102E+01  0.12675066776E+02  0.20688843504E+02  0.25084752622E+02  0.00000000000E+00 0.  1.
         14    1    6    6    0    0 -0.14713115020E+02 -0.56218606531E+02 -0.35064199362E+02  0.67871242443E+02  0.00000000000E+00 0. -1.
         -5    1    3    3    0  503 -0.12027645977E+03  0.45505109137E+01 -0.98108035442E+02  0.15535253633E+03  0.47000000000E+01 0.  1.
         13    1    4    4    0    0 -0.25843862647E+02  0.29497760180E+01 -0.54600245347E+02  0.60479692518E+02  0.00000000000E+00 0. -1.
        -14    1    4    4    0    0  0.38100260936E+02  0.36031969630E+02 -0.29688908764E+02  0.60260800048E+02  0.00000000000E+00 0.  1.
</event>
<event>
12    1  0.8271773E-002  0.2559354E+03  0.7818608E-02  0.1109718E+00
         21   -1    0    0  503  502  0.00000000000E+00  0.00000000000E+00  0.10138653242E+04  0.10138653242E+04  0.00000000000E+00 0. -1.
         21   -1    0    0  501  503 -0.00000000000E+00 -0.00000000000E+00 -0.72951529093E+02  0.72951529093E+02  0.00000000000E+00 0. -1.
          6    2    1    2  501    0  0.58063260897E+02 -0.18080974022E+03  0.28416068172E+03  0.38195686939E+03  0.17052933065E+03 0.  0.
         24    2    3    3    0    0  0.26801993371E+02 -0.43754193044E+02  0.17991063262E+03  0.20688073568E+03  0.88312098868E+02 0.  0.
         -6    2    1    2    0  502 -0.58063260897E+02  0.18080974022E+03  0.65675311338E+03  0.70485998390E+03  0.17157925442E+03 0.  0.
        -24    2    5    5    0    0 -0.84208580727E+02  0.18910345014E+03  0.62274041591E+03  0.66091323246E+03  0.78418590313E+02 0.  0.
          5    1    3    3  501    0  0.31261267526E+02 -0.13705554717E+03  0.10425004910E+03  0.17507613371E+03  0.47000000000E+01 0. -1.
        -13    1    4    4    0    0  0.18524937374E+02 -0.23066468162E+01  0.15832510766E+03  0.15942187315E+03  0.00000000000E+00 0.  1.
         14    1    4    4    0    0  0.82770559969E+01 -0.41447546228E+02  0.21585524964E+02  0.47458862526E+02  0.00000000000E+00 0. -1.
         -5    1    5    5    0  502  0.26145319831E+02 -0.82937099200E+01  0.34012697473E+02  0.43946751446E+02  0.47000000000E+01 0.  1.
         11    1    6    6    0    0 -0.22567907438E+02  0.94846069976E+02  0.39490552124E+03  0.40676216410E+03  0.00000000000E+00 0. -1.
        -12    1    6    6    0    0 -0.61640673290E+02  0.94257380161E+02  0.22783489467E+03  0.25415106836E+03  0.00000000000E+00 0.  1.
</event>
<event>
12    1  0.8271773E-002  0.2176670E+03  0.7818608E-02  0.1135757E+00
         21   -1    0    0  501  502  0.00000000000E+00  0.00000000000E+00  0.23844229400E+03  0.23844229400E+03  0.00000000000E+00 0. -1.
         21   -1    0    0  502  503 -0.00000000000E+00 -0.00000000000E+00 -0.42141810341E+03  0.42141810341E+03  0.00000000000E+00 0.  1.
         -6    2    1    2    0  503 -0.11222819205E+03 -0.71668301091E+02 -0.33159354027E+03  0.39629604896E+03  0.17136151844E+03 0.  0.
        -24    2    3    3    0    0 -0.12026033996E+03 -0.10561115319E+03 -0.25266396588E+03  0.30987498485E+03  0.81038025261E+02 0.  0.
          6    2    1    2  501    0  0.11222819205E+03  0.71668301091E+02  0.14861773085E+03  0.26356434845E+03  0.17218427157E+03 0.  0.
         24    2    5    5    0    0  0.13483879797E+03  0.95595441014E+02  0.12420874854E+03  0.22231345825E+03  0.81703553920E+02 0.  0.
          5    1    5    5  501    0 -0.22610605917E+02 -0.23927139923E+02  0.24408982311E+02  0.41250890200E+02  0.47000000000E+01 0. -1.
        -13    1    6    6    0    0 -0.36302241731E+01  0.26404313661E+02  0.33826096500E+02  0.43064731647E+02  0.00000000000E+00 0.  1.
         14    1    6    6    0    0  0.13846902215E+03  0.69191127353E+02  0.90382652041E+02  0.17924872660E+03  0.00000000000E+00 0. -1.
         -5    1    3    3    0  503  0.80321479056E+01  0.33942852097E+02 -0.78929574394E+02  0.86421064114E+02  0.47000000000E+01 0.  1.
         11    1    4    4    0    0 -0.10647750237E+03 -0.74766423306E+02 -0.13513688756E+03  0.18758852562E+03  0.00000000000E+00 0. -1.
        -12    1    4    4    0    0 -0.13782837591E+02 -0.30844729883E+02 -0.11752707831E+03  0.12228645923E+03  0.00000000000E+00 0.  1.
</event>
<event>
12    1  0.8271773E-002  0.2675305E+03  0.7818608E-02  0.1103118E+00
         21   -1    0    0  501  502  0.00000000000E+00  0.00000000000E+00  0.77719688186E+03  0.77719688186E+03  0.00000000000E+00 0.  1.
         21   -1    0    0  502  503 -0.00000000000E+00 -0.00000000000E+00 -0.26319768409E+03  0.26319768409E+03  0.00000000000E+00 0.  1.
         -6    2    1    2    0  503  0.14696040802E+02  0.20378204909E+03 -0.16411225896E+03  0.31141737858E+03  0.16824046182E+03 0.  0.
        -24    2    3    3    0    0  0.34905759270E+02  0.34628220039E+02 -0.55318980529E+02  0.10923053916E+03  0.80334273039E+02 0.  0.
          6    2    1    2  501    0 -0.14696040802E+02 -0.20378204909E+03  0.67811145673E+03  0.72897718737E+03  0.17271217331E+03 0.  0.
         24    2    5    5    0    0  0.46684163500E+02 -0.56678343809E+02  0.29732262881E+03  0.31614640962E+03  0.78459932039E+02 0.  0.
          5    1    5    5  501    0 -0.61380204302E+02 -0.14710370528E+03  0.38078882792E+03  0.41283077775E+03  0.47000000000E+01 0. -1.
        -13    1    6    6    0    0  0.27124580528E+02 -0.75032532859E+02  0.23864550176E+03  0.25162928956E+03  0.00000000000E+00 0.  1.
         14    1    6    6    0    0  0.19559582972E+02  0.18354189050E+02  0.58677127054E+02  0.64517120061E+02  0.00000000000E+00 0. -1.
         -5    1    3    3    0  503 -0.20209718468E+02  0.16915382905E+03 -0.10879327844E+03  0.20218683942E+03  0.47000000000E+01 0.  1.
         13    1    4    4    0    0  0.11033132544E+02  0.91495862145E+01  0.20930137258E+02  0.25367609018E+02  0.00000000000E+00 0. -1.
        -14    1    4    4    0    0  0.23872626725E+02  0.25478633825E+02 -0.76249117787E+02  0.83862930140E+02  0.00000000000E+00 0.  1.
</event>
<event>
12    1  0.8271773E-002  0.1759595E+03  0.7818608E-02  0.1172388E+00
         21   -1    0    0  501  502  0.00000000000E+00  0.00000000000E+00  0.33142104808E+03  0.33142104808E+03  0.00000000000E+00 0. -1.
         21   -1    0    0  502  503 -0.00000000000E+00 -0.00000000000E+00 -0.12295759736E+03  0.12295759736E+03  0.00000000000E+00 0. -1.
         -6    2    1    2    0  503 -0.14665077826E+02 -0.28563345599E+02 -0.10084834728E+02  0.17379869863E+03  0.17050910396E+03 0.  0.
        -24    2    3    3    0    0  0.41581613925E+02  0.22707889674E+02  0.11632658658E+02  0.94513331639E+02  0.80949195426E+02 0.  0.
          6    2    1    2  501    0  0.14665077826E+02  0.28563345599E+02  0.21854828544E+03  0.28057994681E+03  0.17300527235E+03 0.  0.
         24    2    5    5    0    0 -0.16835178786E+02 -0.38763021359E+02  0.16936925171E+03  0.19132876635E+03  0.78324698144E+02 0.  0.
          5    1    5    5  501    0  0.31500256612E+02  0.67326366958E+02  0.49179033735E+02  0.89251180460E+02  0.47000000000E+01 0. -1.
        -13    1    6    6    0    0 -0.20608564387E+02 -0.27634426233E+02  0.16873338274E+02  0.38380776227E+02  0.00000000000E+00 0.  1.
         14    1    6    6    0    0  0.37733856015E+01 -0.11128595126E+02  0.15249591343E+03  0.15294799012E+03  0.00000000000E+00 0. -1.
         -5    1    3    3    0  503 -0.56246691751E+02 -0.51271235272E+02 -0.21717493386E+02  0.79285366987E+02  0.47000000000E+01 0.  1.
         13    1    4    4    0    0  0.25116808793E+02 -0.29621761890E+02  0.26839471969E+01  0.38929505956E+02  0.00000000000E+00 0. -1.
        -14    1    4    4    0    0  0.16464805133E+02  0.52329651564E+02  0.89487114608E+01  0.55583825684E+02  0.00000000000E+00 0.  1.
</event>
<event>
12    1  0.8271773E-002  0.1903685E+03  0.7818608E-02  0.1158565E+00
         21   -1    0    0  501  502  0.00000000000E+00  0.00000000000E+00  0.23998724061E+03  0.23998724061E+03  0.00000000000E+00 0. -1.
         21   -1    0    0  502  503 -0.00000000000E+00 -0.00000000000E+00 -0.15515335740E+03  0.15515335740E+03  0.00000000000E+00 0. -1.
         -6    2    1    2    0  503  0.35230231503E+02 -0.71766982978E+02  0.44408111097E+01  0.18849300380E+03  0.17064062418E+03 0.  0.
        -24    2    3    3    0    0  0.53439120818E+02 -0.47493657610E+02  0.61980794693E+02  0.12327262596E+03  0.79013506786E+02 0.  0.
          6    2    1    2  501    0 -0.35230231503E+02  0.71766982978E+02  0.80393072102E+02  0.20664759421E+03  0.17276722227E+03 0.  0.
         24    2    5    5    0    0 -0.77890302644E+02  0.60267036630E+02  0.96929863653E+02  0.15923782822E+03  0.79134521666E+02 0.  0.
          5    1    5    5  501    0  0.42660071141E+02  0.11499946348E+02 -0.16536791551E+02  0.47409765983E+02  0.47000000000E+01 0. -1.
        -13    1    6    6    0    0 -0.19031543111E+02 -0.17613172303E+02  0.78768309131E+01  0.27101068927E+02  0.00000000000E+00 0.  1.
         14    1    6    6    0    0 -0.58858759533E+02  0.77880208933E+02  0.89053032740E+02  0.13213675930E+03  0.00000000000E+00 0. -1.
         -5    1    3    3    0  503 -0.18208889314E+02 -0.24273325367E+02 -0.57539983583E+02  0.65220377837E+02  0.47000000000E+01 0.  1.
         11    1    4    4    0    0  0.38015837295E+02  0.10410181719E+02  0.47314592874E+02  0.61581218464E+02  0.00000000000E+00 0. -1.
        -12    1    4    4    0    0  0.15423283523E+02 -0.57903839329E+02  0.14666201819E+02  0.61691407501E+02  0.00000000000E+00 0.  1.
</event>
<event>
12    1  0.8271773E-002  0.2743494E+03  0.7818608E-02  0.1100939E+00
         21   -1    0    0  503  502  0.00000000000E+00  0.00000000000E+00  0.43453904733E+02  0.43453904733E+02  0.00000000000E+00 0. -1.
         21   -1    0    0  501  503 -0.00000000000E+00 -0.00000000000E+00 -0.17411788784E+04  0.17411788784E+04  0.00000000000E+00 0.  1.
          6    2    1    2  501    0 -0.19279417895E+03  0.23243312875E+02 -0.10413127801E+04  0.10731944228E+04  0.17234882100E+03 0.  0.
         24    2    3    3    0    0 -0.53882524377E+02  0.50865984063E+02 -0.27975514465E+03  0.29856445833E+03  0.73397003027E+02 0.  0.
         -6    2    1    2    0  502  0.19279417895E+03 -0.23243312875E+02 -0.65641219366E+03  0.71143836042E+03  0.19379815703E+03 0.  0.
        -24    2    5    5    0    0  0.68424897588E+02  0.44424588650E+02 -0.42591883997E+03  0.44089088005E+03  0.79513515717E+02 0.  0.
          5    1    3    3  501    0 -0.13891165457E+03 -0.27622671188E+02 -0.76155763541E+03  0.77462996443E+03  0.47000000000E+01 0. -1.
        -11    1    4    4    0    0 -0.64207603624E+02  0.60588882752E+02 -0.21790184081E+03  0.23510602141E+03  0.00000000000E+00 0.  1.
         12    1    4    4    0    0  0.10325079246E+02 -0.97228986896E+01 -0.61853303839E+02  0.63458436919E+02  0.00000000000E+00 0. -1.
         -5    1    5    5    0  502  0.12436928136E+03 -0.67667901525E+02 -0.23049335368E+03  0.27054748037E+03  0.47000000000E+01 0.  1.
         13    1    6    6    0    0 -0.16463317147E+02  0.12015167556E+02 -0.12160076442E+03  0.12329700309E+03  0.00000000000E+00 0. -1.
        -14    1    6    6    0    0  0.84888214735E+02  0.32409421094E+02 -0.30431807556E+03  0.31759387697E+03  0.00000000000E+00 0.  1.
</event>
<event>
12    1  0.8271773E-002  0.2028443E+03  0.7818608E-02  0.1147463E+00
         21   -1    0    0  501  502  0.00000000000E+00  0.00000000000E+00  0.21269760606E+03  0.21269760606E+03  0.00000000000E+00 0.  1.
         21   -1    0    0  502  503 -0.00000000000E+00 -0.00000000000E+00 -0.24059800219E+03  0.24059800219E+03  0.00000000000E+00 0.  1.
         -6    2    1    2    0  503 -0.80311957897E+02  0.69659577762E+02  0.86866899406E+02  0.22066193257E+03  0.17275231668E+03 0.  0.
        -24    2    3    3    0    0 -0.71784196863E+02  0.21841343748E+02 -0.12078144474E+02  0.11033733005E+03  0.79990184484E+02 0.  0.
          6    2    1    2  501    0  0.80311957897E+02 -0.69659577762E+02 -0.11476729554E+03  0.23263367568E+03  0.17217557197E+03 0.  0.
         24    2    5    5    0    0  0.16712410925E+02 -0.37716151653E+02 -0.13616375665E+03  0.15816768751E+03  0.69098740745E+02 0.  0.
          5    1    5    5  501    0  0.63599546972E+02 -0.31943426109E+02  0.21396461114E+02  0.74465988175E+02  0.47000000000E+01 0. -1.
        -13    1    6    6    0    0  0.43092936543E+02 -0.22034597820E+02 -0.97068545422E+02  0.10846578811E+03  0.00000000000E+00 0.  1.
         14    1    6    6    0    0 -0.26380525618E+02 -0.15681553833E+02 -0.39095211229E+02  0.49701899396E+02  0.00000000000E+00 0. -1.
         -5    1    3    3    0  503 -0.85277610345E+01  0.47818234014E+02  0.98945043880E+02  0.11032460252E+03  0.47000000000E+01 0.  1.
         13    1    4    4    0    0 -0.79957946709E+02 -0.64576363779E+01 -0.89285703624E+01  0.80713652366E+02  0.00000000000E+00 0. -1.
        -14    1    4    4    0    0  0.81737498464E+01  0.28298980126E+02 -0.31495741116E+01  0.29623677689E+02  0.00000000000E+00 0.  1.
</event>
<event>
12    1  0.8271773E-002  0.4085487E+03  0.7818608E-02  0.1041058E+00
         21   -1    0    0  503  502  0.00000000000E+00  0.00000000000E+00  0.24830912005E+03  0.24830912005E+03  0.00000000000E+00 0. -1.
         21   -1    0    0  501  503 -0.00000000000E+00 -0.00000000000E+00 -0.17286080842E+04  0.17286080842E+04  0.00000000000E+00 0.  1.
          6    2    1    2  501    0 -0.21806981626E+03 -0.29933796282E+03 -0.15151162537E+04  0.15692320800E+04  0.17249463169E+03 0.  0.
         24    2    3    3    0    0 -0.12385801614E+03 -0.26970810235E+03 -0.12110794094E+04  0.12495223920E+04  0.80682114580E+02 0.  0.
         -6    2    1    2    0  502  0.21806981626E+03  0.29933796282E+03  0.34817289556E+02  0.40768512422E+03  0.16684500625E+03 0.  0.
        -24    2    5    5    0    0  0.66470382551E+02  0.18790544151E+03 -0.47139062042E+01  0.21537183673E+03  0.81461895642E+02 0.  0.
          5    1    3    3  501    0 -0.94211800119E+02 -0.29629860467E+02 -0.30403684429E+03  0.31970968799E+03  0.47000000000E+01 0. -1.
        -11    1    4    4    0    0  0.18182788239E+01 -0.65757081618E+02 -0.32759359756E+03  0.33413300508E+03  0.00000000000E+00 0.  1.
         12    1    4    4    0    0 -0.12567629497E+03 -0.20395102074E+03 -0.88348581185E+03  0.91538938693E+03  0.00000000000E+00 0. -1.
         -5    1    5    5    0  502  0.15159943371E+03  0.11143252131E+03  0.39531195760E+02  0.19231328749E+03  0.47000000000E+01 0.  1.
         13    1    6    6    0    0  0.54384926466E+02  0.18061698978E+03 -0.25400346631E+02  0.19032970035E+03  0.00000000000E+00 0. -1.
        -14    1    6    6    0    0  0.12085456085E+02  0.72884517255E+01  0.20686440427E+02  0.25042136388E+02  0.00000000000E+00 0.  1.
</event>
<event>
12    1  0.8271773E-002  0.1961521E+03  0.7818608E-02  0.1155709E+00
         21   -1    0    0  503  502  0.00000000000E+00  0.00000000000E+00  0.10355738122E+03  0.10355738122E+03  0.00000000000E+00 0.  1.
         21   -1    0    0  501  503 -0.00000000000E+00 -0.00000000000E+00 -0.12354104553E+04  0.12354104553E+04  0.00000000000E+00 0.  1.
          6    2    1    2  501    0 -0.12633693108E+02 -0.65007287264E+02 -0.11379225921E+04  0.11547049284E+04  0.18463501430E+03 0.  0.
         24    2    3    3    0    0 -0.13661842859E+02 -0.85903006120E+02 -0.11219300342E+04  0.11279553477E+04  0.77396979702E+02 0.  0.
         -6    2    1    2    0  502  0.12633693108E+02  0.65007287264E+02  0.60695180419E+01  0.18426290809E+03  0.17184418130E+03 0.  0.
        -24    2    5    5    0    0  0.61869648028E+02  0.48586344199E+02  0.43634760893E+02  0.12002067822E+03  0.79451146321E+02 0.  0.
          5    1    3    3  501    0  0.10281497513E+01  0.20895718857E+02 -0.15992557928E+02  0.26749580698E+02  0.47000000000E+01 0. -1.
        -11    1    4    4    0    0  0.69697846847E+00 -0.83800145470E+02 -0.10856634712E+04  0.10888930723E+04  0.00000000000E+00 0.  1.
         12    1    4    4    0    0 -0.14358821328E+02 -0.21028606506E+01 -0.36266562947E+02  0.39062275418E+02  0.00000000000E+00 0. -1.
         -5    1    5    5    0  502 -0.49235954920E+02  0.16420943065E+02 -0.37565242851E+02  0.64242229868E+02  0.47000000000E+01 0.  1.
         13    1    6    6    0    0  0.25161838276E+02  0.12712149083E+01  0.53680982905E+02  0.59299089525E+02  0.00000000000E+00 0. -1.
        -14    1    6    6    0    0  0.36707809752E+02  0.47315129291E+02 -0.10046222013E+02  0.60721588692E+02  0.00000000000E+00 0.  1.
</event>
<event>
12    1  0.8271773E-002  0.2475503E+03  0.7818608E-02  0.1115389E+00
         21   -1    0    0  501  502  0.00000000000E+00  0.00000000000E+00  0.29479361528E+02  0.29479361528E+02  0.00000000000E+00 0. -1.
         21   -1    0    0  502  503 -0.00000000000E+00 -0.00000000000E+00 -0.21260255821E+04  0.21260255821E+04  0.00000000000E+00 0.  1.
         -6    2    1    2    0  503  0.61787640026E+02  0.16503114248E+03 -0.12434191632E+04  0.12671880431E+04  0.16917839856E+03 0.  0.
        -24    2    3    3    0    0  0.66735658216E+02  0.27193477905E+02 -0.50985587070E+03  0.52075593041E+03  0.77721276644E+02 0.  0.
          6    2    1    2  501    0 -0.61787640026E+02 -0.16503114248E+03 -0.85312705728E+03  0.88831690051E+03  0.17386244394E+03 0.  0.
         24    2    5    5    0    0 -0.55021907988E+02 -0.11606564344E+03 -0.32840384355E+03  0.36124960285E+03  0.78444548301E+02 0.  0.
          5    1    5    5  501    0 -0.67657320381E+01 -0.48965499039E+02 -0.52472321374E+03  0.52706729766E+03  0.47000000000E+01 0. -1.
        -11    1    6    6    0    0 -0.64207990057E+01 -0.47258909197E+02 -0.21356922103E+03  0.21882971309E+03  0.00000000000E+00 0.  1.
         12    1    6    6    0    0 -0.48601108982E+02 -0.68806734247E+02 -0.11483462251E+03  0.14241988976E+03  0.00000000000E+00 0. -1.
         -5    1    3    3    0  503 -0.49480181897E+01  0.13783766458E+03 -0.73356329254E+03  0.74643211267E+03  0.47000000000E+01 0.  1.
         13    1    4    4    0    0  0.36246558053E+02  0.51258613542E+02 -0.23806500816E+03  0.24620358760E+03  0.00000000000E+00 0. -1.
        -14    1    4    4    0    0  0.30489100163E+02 -0.24065135638E+02 -0.27179086254E+03  0.27455234281E+03  0.00000000000E+00 0.  1.
</event>
<event>
12    1  0.8271773E-002  0.2400213E+03  0.7818608E-02  0.1119798E+00
         21   -1    0    0  501  502  0.00000000000E+00  0.00000000000E+00  0.55135814370E+02  0.55135814370E+02  0.00000000000E+00 0.  1.
         21   -1    0    0  502  503 -0.00000000000E+00 -0.00000000000E+00 -0.13424304402E+04  0.13424304402E+04  0.00000000000E+00 0. -1.
         -6    2    1    2    0  503 -0.16755965128E+03 -0.18649032389E+02 -0.31450533003E+03  0.39563090213E+03  0.17083964691E+03 0.  0.
        -24    2    3    3    0    0 -0.76725754830E+02  0.52713136434E+02 -0.18429895129E+03  0.22150696079E+03  0.80210435883E+02 0.  0.
          6    2    1    2  501    0  0.16755965128E+03  0.18649032389E+02 -0.97278929584E+03  0.10019353525E+04  0.17067927027E+03 0.  0.
         24    2    5    5    0    0  0.33360764410E+02 -0.16850481120E+02 -0.22425147932E+03  0.24062036547E+03  0.78819762636E+02 0.  0.
          5    1    5    5  501    0  0.13419888687E+03  0.35499513509E+02 -0.74853781651E+03  0.76131498701E+03  0.47000000000E+01 0. -1.
        -11    1    6    6    0    0  0.28172927016E+02 -0.47562660517E+02 -0.12719473939E+03  0.13868821947E+03  0.00000000000E+00 0.  1.
         12    1    6    6    0    0  0.51878373943E+01  0.30712179397E+02 -0.97056739931E+02  0.10193214599E+03  0.00000000000E+00 0. -1.
         -5    1    3    3    0  503 -0.90833896451E+02 -0.71362168823E+02 -0.13020637874E+03  0.17412394134E+03  0.47000000000E+01 0.  1.
         13    1    4    4    0    0  0.13753229436E+02 -0.35139098090E+01 -0.37757225551E+02  0.40337413940E+02  0.00000000000E+00 0. -1.
        -14    1    4    4    0    0 -0.90478984266E+02  0.56227046243E+02 -0.14654172574E+03  0.18116954685E+03  0.00000000000E+00 0.  1.
</event>
<event>
12    1  0.8271773E-002  0.1820647E+03  0.7818608E-02  0.1166692E+00
         21   -1    0    0  503  502  0.00000000000E+00  0.00000000000E+00  0.51622320168E+03  0.51622320168E+03  0.00000000000E+00 0. -1.
         21   -1    0    0  501  503 -0.00000000000E+00 -0.00000000000E+00 -0.11982008429E+03  0.11982008429E+03  0.00000000000E+00 0. -1.
          6    2    1    2  501    0 -0.12357811449E+02  0.49193481775E+02 -0.19859736997E+02  0.18314465547E+03  0.17485663133E+03 0.  0.
         24    2    3    3    0    0  0.22596719471E+02 -0.33209833587E+02 -0.25961505645E+02  0.93303422205E+02  0.80112571061E+02 0.  0.
         -6    2    1    2    0  502  0.12357811449E+02 -0.49193481775E+02  0.41626285438E+03  0.45289863050E+03  0.17108387247E+03 0.  0.
        -24    2    5    5    0    0 -0.30937592673E+02  0.29053787440E+02  0.19078117450E+03  0.21028534744E+03  0.77596479284E+02 0.  0.
          5    1    3    3  501    0 -0.34954530920E+02  0.82403315362E+02  0.61017686477E+01  0.89841233268E+02  0.47000000000E+01 0. -1.
        -13    1    4    4    0    0  0.10358844695E+02 -0.33432807684E+02  0.23625435265E+02  0.42228183534E+02  0.00000000000E+00 0.  1.
         14    1    4    4    0    0  0.12237874776E+02  0.22297409733E+00 -0.49586940910E+02  0.51075238671E+02  0.00000000000E+00 0. -1.
         -5    1    5    5    0  502  0.43295404123E+02 -0.78247269215E+02  0.22548167988E+03  0.24261328306E+03  0.47000000000E+01 0.  1.
         13    1    6    6    0    0 -0.13283315430E+02  0.22950127093E+02  0.18973224337E+03  0.19157630067E+03  0.00000000000E+00 0. -1.
        -14    1    6    6    0    0 -0.17654277243E+02  0.61036603472E+01  0.10489311335E+01  0.18709046773E+02  0.00000000000E+00 0.  1.
</event>
<event>
12    1  0.8271773E-002  0.1822407E+03  0.7818608E-02  0.1165691E+00
         21   -1    0    0  501  502  0.00000000000E+00  0.00000000000E+00  0.42971682272E+03  0.42971682272E+03  0.00000000000E+00 0. -1.
         21   -1    0    0  502  503 -0.00000000000E+00 -0.00000000000E+00 -0.18813249878E+03  0.18813249878E+03  0.00000000000E+00 0. -1.
         -6    2    1    2    0  503 -0.85741253689E+01  0.63198113207E+02 -0.11638612988E+03  0.21623458904E+03  0.17071657544E+03 0.  0.
        -24    2    3    3    0    0  0.63191221898E+01  0.21652468285E+02 -0.14564927818E+03  0.16307190209E+03  0.69785187030E+02 0.  0.
          6    2    1    2  501    0  0.85741253689E+01 -0.63198113207E+02  0.35797045381E+03  0.40161473246E+03  0.17054040692E+03 0.  0.
         24    2    5    5    0    0 -0.16367795568E+02 -0.10365021505E+03  0.22916019517E+03  0.26423698793E+03  0.79344306203E+02 0.  0.
          5    1    5    5  501    0  0.24941920937E+02  0.40452101841E+02  0.12881025864E+03  0.13737774453E+03  0.47000000000E+01 0. -1.
        -13    1    6    6    0    0 -0.66897622938E+01  0.10404708454E+02  0.67294282653E+01  0.14081764177E+02  0.00000000000E+00 0.  1.
         14    1    6    6    0    0 -0.96780332742E+01 -0.11405492350E+03  0.22243076691E+03  0.25015522375E+03  0.00000000000E+00 0. -1.
         -5    1    3    3    0  503 -0.14893247559E+02  0.41545644922E+02  0.29263148303E+02  0.53162686947E+02  0.47000000000E+01 0.  1.
         11    1    4    4    0    0 -0.14645860228E+02 -0.19633234425E+02 -0.72236344714E+02  0.76276173301E+02  0.00000000000E+00 0. -1.
        -12    1    4    4    0    0  0.20964982418E+02  0.41285702709E+02 -0.73412933467E+02  0.86795728790E+02  0.00000000000E+00 0.  1.
</event>
<event>
12    1  0.8271773E-002  0.1758758E+03  0.7818608E-02  0.1172128E+00
         21   -1    0    0  503  502  0.00000000000E+00  0.00000000000E+00  0.15874948466E+03  0.15874948466E+03  0.00000000000E+00 0. -1.
         21   -1    0    0  501  503 -0.00000000000E+00 -0.00000000000E+00 -0.19511393511E+03  0.19511393511E+03  0.00000000000E+00 0. -1.
          6    2    1    2  501    0 -0.35738406254E+02  0.45165367369E+01 -0.33479964746E+02  0.17796400281E+03  0.17103404770E+03 0.  0.
         24    2    3    3    0    0  0.12219235293E+02 -0.52104045106E+02 -0.39319781232E+02  0.10338505721E+03  0.79235620968E+02 0.  0.
         -6    2    1    2    0  502  0.35738406254E+02 -0.45165367369E+01 -0.28844856975E+01  0.17589941696E+03  0.17214718076E+03 0.  0.
        -24    2    5    5    0    0 -0.45141357488E+02 -0.20721914701E+02 -0.24533717170E+01  0.93277226734E+02  0.78914397227E+02 0.  0.
          5    1    3    3  501    0 -0.47957641547E+02  0.56620581843E+02  0.58398164869E+01  0.74578945605E+02  0.47000000000E+01 0. -1.
        -13    1    4    4    0    0 -0.31163406710E+02 -0.36042089104E+02 -0.29668293241E+02  0.56128403938E+02  0.00000000000E+00 0.  1.
         14    1    4    4    0    0  0.43382642004E+02 -0.16061956001E+02 -0.96514879910E+01  0.47256653270E+02  0.00000000000E+00 0. -1.
         -5    1    5    5    0  502  0.80879763742E+02  0.16205377964E+02 -0.43111398049E+00  0.82622190222E+02  0.47000000000E+01 0.  1.
         13    1    6    6    0    0 -0.13422357538E+02  0.97492200573E+01 -0.34885457382E+02  0.38629031962E+02  0.00000000000E+00 0. -1.
        -14    1    6    6    0    0 -0.31718999950E+02 -0.30471134758E+02  0.32432085665E+02  0.54648194772E+02  0.00000000000E+00 0.  1.
</event>
<event>
12    1  0.8271773E-002  0.1971610E+03  0.7818608E-02  0.1153146E+00
         21   -1    0    0  503  502  0.00000000000E+00  0.00000000000E+00  0.11318489246E+04  0.11318489246E+04  0.00000000000E+00 0. -1.
         21   -1    0    0  501  503 -0.00000000000E+00 -0.00000000000E+00 -0.34024524196E+02  0.34024524196E+02  0.00000000000E+00 0. -1.
          6    2    1    2  501    0 -0.11239055256E+01  0.55471451435E+02  0.48687818840E+03  0.52528357905E+03  0.18919334817E+03 0.  0.
         24    2    3    3    0    0 -0.35382542761E+02  0.93232518087E+02  0.42911489891E+03  0.44809394249E+03  0.81880144518E+02 0.  0.
         -6    2    1    2    0  502  0.11239055256E+01 -0.55471451435E+02  0.61094621200E+03  0.64058986974E+03  0.18444989067E+03 0.  0.
        -24    2    5    5    0    0 -0.55111817676E+02 -0.84398460003E+02  0.37739071942E+03  0.39857853425E+03  0.79250743639E+02 0.  0.
          5    1    3    3  501    0  0.34258637236E+02 -0.37761066652E+02  0.57763289489E+02  0.77189636562E+02  0.47000000000E+01 0. -1.
        -11    1    4    4    0    0  0.16553968578E+02  0.47134872309E+01  0.14486091981E+03  0.14587987155E+03  0.00000000000E+00 0.  1.
         12    1    4    4    0    0 -0.51936511339E+02  0.88519030856E+02  0.28425397911E+03  0.30221407094E+03  0.00000000000E+00 0. -1.
         -5    1    5    5    0  502  0.56235723202E+02  0.28927008568E+02  0.23355549258E+03  0.24201133549E+03  0.47000000000E+01 0.  1.
         13    1    6    6    0    0 -0.72555999270E+02 -0.45846184689E+02  0.25934065463E+03  0.27317360932E+03  0.00000000000E+00 0. -1.
        -14    1    6    6    0    0  0.17444181594E+02 -0.38552275314E+02  0.11805006478E+03  0.12540492494E+03  0.00000000000E+00 0.  1.
</event>
<event>
12    1  0.8271773E-002  0.2932936E+03  0.7818608E-02  0.1088732E+00
         21   -1    0    0  501  502  0.00000000000E+00  0.00000000000E+00  0.17192643013E+03  0.17192643013E+03  0.00000000000E+00 0.  1.
         21   -1    0    0  502  503 -0.00000000000E+00 -0.00000000000E+00 -0.57196675271E+03  0.57196675271E+03  0.00000000000E+00 0. -1.
         -6    2    1    2    0  503  0.22848265145E+03  0.62965022933E+02 -0.33295028062E+03  0.44370826685E+03  0.17277795166E+03 0.  0.
        -24    2    3    3    0    0  0.97900683286E+02 -0.22112002627E+02 -0.20467164403E+03  0.24179925444E+03  0.80640641913E+02 0.  0.
          6    2    1    2  501    0 -0.22848265145E+03 -0.62965022933E+02 -0.67090041959E+02  0.30018491598E+03  0.17158378106E+03 0.  0.
         24    2    5    5    0    0 -0.18051921287E+03 -0.10223597386E+03 -0.21669864533E+02  0.22319282843E+03  0.79410799459E+02 0.  0.
          5    1    5    5  501    0 -0.47963438588E+02  0.39270950924E+02 -0.45420177427E+02  0.76992087549E+02  0.47000000000E+01 0. -1.
        -13    1    6    6    0    0 -0.76772603925E+02 -0.67401446024E+02 -0.44443015709E+02  0.11140991556E+03  0.00000000000E+00 0.  1.
         14    1    6    6    0    0 -0.10374660894E+03 -0.34834527833E+02  0.22773151176E+02  0.11178291287E+03  0.00000000000E+00 0. -1.
         -5    1    3    3    0  503  0.13058196817E+03  0.85077025560E+02 -0.12827863659E+03  0.20190901242E+03  0.47000000000E+01 0.  1.
         11    1    4    4    0    0  0.10267238733E+03 -0.14150385409E+01 -0.13924248916E+03  0.17300893688E+03  0.00000000000E+00 0. -1.
        -12    1    4    4    0    0 -0.47717040452E+01 -0.20696964086E+02 -0.65429154875E+02  0.68790317557E+02  0.00000000000E+00 0.  1.
</event>
<event>
12    1  0.8271773E-002  0.2070703E+03  0.7818608E-02  0.1144075E+00
         21   -1    0    0  503  502  0.00000000000E+00  0.00000000000E+00  0.17669988536E+03  0.17669988536E+03  0.00000000000E+00 0. -1.
         21   -1    0    0  501  503 -0.00000000000E+00 -0.00000000000E+00 -0.25032264331E+03  0.25032264331E+03  0.00000000000E+00 0. -1.
          6    2    1    2  501    0 -0.43233952082E+02  0.10818410217E+03 -0.76392065644E+02  0.21993373992E+03  0.17018263039E+03 0.  0.
         24    2    3    3    0    0 -0.54506529422E+02  0.18697323277E+01 -0.58119377748E+02  0.11137132765E+03  0.77789799484E+02 0.  0.
         -6    2    1    2    0  502  0.43233952082E+02 -0.10818410217E+03  0.27693076938E+01  0.20708878876E+03  0.17118739086E+03 0.  0.
        -24    2    5    5    0    0  0.79691890613E+02 -0.12004879847E+03 -0.14033322648E+02  0.16496550913E+03  0.79083333343E+02 0.  0.
          5    1    3    3  501    0  0.11272577340E+02  0.10631436984E+03 -0.18272687896E+02  0.10856241227E+03  0.47000000000E+01 0. -1.
        -11    1    4    4    0    0 -0.43442166287E+01 -0.23034001982E+02  0.79572786585E+01  0.24753903713E+02  0.00000000000E+00 0.  1.
         12    1    4    4    0    0 -0.50162312794E+02  0.24903734309E+02 -0.66076656407E+02  0.86617423936E+02  0.00000000000E+00 0. -1.
         -5    1    5    5    0  502 -0.36457938531E+02  0.11864696303E+02  0.16802630342E+02  0.42123279629E+02  0.47000000000E+01 0.  1.
         13    1    6    6    0    0  0.72436002165E+02 -0.53357327678E+02 -0.32047322503E+02  0.95503977437E+02  0.00000000000E+00 0. -1.
        -14    1    6    6    0    0  0.72558884478E+01 -0.66691470795E+02  0.18013999855E+02  0.69461531690E+02  0.00000000000E+00 0.  1.
</event>
<event>
12    1  0.8271773E-002  0.2101317E+03  0.7818608E-02  0.1142459E+00
         21   -1    0    0  503  502  0.00000000000E+00  0.00000000000E+00  0.68727391324E+03  0.68727391324E+03  0.00000000000E+00 0.  1.
         21   -1    0    0  501  503 -0.00000000000E+00 -0.00000000000E+00 -0.10210382660E+03  0.10210382660E+03  0.00000000000E+00 0.  1.
          6    2    1    2  501    0 -0.10525822120E+02  0.11308279890E+03  0.45356758214E+02  0.21010773040E+03  0.17084937963E+03 0.  0.
         24    2    3    3    0    0 -0.48009413233E+01  0.14779943267E+03  0.34002911897E+02  0.17283818859E+03  0.82759410839E+02 0.  0.
         -6    2    1    2    0  502  0.10525822120E+02 -0.11308279890E+03  0.53981332843E+03  0.57927000944E+03  0.17679593305E+03 0.  0.
        -24    2    5    5    0    0 -0.17117500883E+02 -0.36293429319E+02  0.10662059460E+03  0.13843126882E+03  0.78645045269E+02 0.  0.
          5    1    3    3  501    0 -0.57248807967E+01 -0.34716633768E+02  0.11353846317E+02  0.37269541808E+02  0.47000000000E+01 0. -1.
        -11    1    4    4    0    0 -0.38412843603E+02  0.11168739488E+03  0.35971861814E+02  0.12346495686E+03  0.00000000000E+00 0.  1.
         12    1    4    4    0    0  0.33611902280E+02  0.36112037790E+02 -0.19689499172E+01  0.49373231736E+02  0.00000000000E+00 0. -1.
         -5    1    5    5    0  502  0.27643323003E+02 -0.76789369585E+02  0.43319273384E+03  0.44083874062E+03  0.47000000000E+01 0.  1.
         11    1    6    6    0    0 -0.29406908728E+02 -0.53605975334E+02  0.53570918848E+02  0.81290898744E+02  0.00000000000E+00 0. -1.
        -12    1    6    6    0    0  0.12289407845E+02  0.17312546016E+02  0.53049675750E+02  0.57140370071E+02  0.00000000000E+00 0.  1.
</event>
<event>
12    1  0.8271773E-002  0.1875498E+03  0.7818608E-02  0.1160835E+00
         21   -1    0    0  503  502  0.00000000000E+00  0.00000000000E+00  0.60565922804E+02  0.60565922804E+02  0.00000000000E+00 0.  1.
         21   -1    0    0  501  503 -0.00000000000E+00 -0.00000000000E+00 -0.77410871516E+03  0.77410871516E+03  0.00000000000E+00 0.  1.
          6    2    1    2  501    0 -0.51480843932E+02  0.53427949508E+02 -0.56593735522E+03  0.59600691127E+03  0.17156434703E+03 0.  0.
         24    2    3    3    0    0  0.20073630612E+01  0.20800636802E+02 -0.49338583714E+03  0.50003117165E+03  0.78516828297E+02 0.  0.
         -6    2    1    2    0  502  0.51480843932E+02 -0.53427949508E+02 -0.14760543713E+03  0.23866772669E+03  0.17225009611E+03 0.  0.
        -24    2    5    5    0    0 -0.19871451624E+02 -0.66754397834E+02 -0.12726399163E+03  0.16313886657E+03  0.74613283000E+02 0.  0.
          5    1    3    3  501    0 -0.53488206993E+02  0.32627312706E+02 -0.72551518076E+02  0.95975739626E+02  0.47000000000E+01 0. -1.
        -11    1    4    4    0    0 -0.36761997385E+02  0.47087636959E+01 -0.29000761196E+03  0.29236626328E+03  0.00000000000E+00 0.  1.
         12    1    4    4    0    0  0.38769360446E+02  0.16091873106E+02 -0.20337822518E+03  0.20766490837E+03  0.00000000000E+00 0. -1.
         -5    1    5    5    0  502  0.71352295556E+02  0.13326448325E+02 -0.20341445507E+02  0.75528860122E+02  0.47000000000E+01 0.  1.
         13    1    6    6    0    0 -0.62832150695E+01  0.12792107331E+02 -0.23785050729E+01  0.14449016851E+02  0.00000000000E+00 0. -1.
        -14    1    6    6    0    0 -0.13588236554E+02 -0.79546505165E+02 -0.12488548655E+03  0.14868984972E+03  0.00000000000E+00 0.  1.
</event>
<event>
12    1  0.8271773E-002  0.2366237E+03  0.7818608E-02  0.1122572E+00
         21   -1    0    0  503  502  0.00000000000E+00  0.00000000000E+00  0.39289214312E+03  0.39289214312E+03  0.00000000000E+00 0.  1.
         21   -1    0    0  501  503 -0.00000000000E+00 -0.00000000000E+00 -0.26890777065E+03  0.26890777065E+03  0.00000000000E+00 0.  1.
          6    2    1    2  501    0  0.15676176395E+03  0.33492853168E+02 -0.16667706176E+03  0.28700015654E+03  0.16997595443E+03 0.  0.
         24    2    3    3    0    0  0.17216273338E+03  0.20072874277E+02 -0.17424456825E+03  0.26471467141E+03  0.98334941126E+02 0.  0.
         -6    2    1    2    0  502 -0.15676176395E+03 -0.33492853168E+02  0.29066143423E+03  0.37479975724E+03  0.17405391930E+03 0.  0.
        -24    2    5    5    0    0 -0.56814875402E+02  0.38247026745E+02  0.18336333908E+03  0.21148728948E+03  0.80087417063E+02 0.  0.
          5    1    3    3  501    0 -0.15400969430E+02  0.13419978891E+02  0.75675064936E+01  0.22285485127E+02  0.47000000000E+01 0. -1.
        -11    1    4    4    0    0  0.11317351318E+03  0.56991692792E+02 -0.13355980122E+03  0.18410463773E+03  0.00000000000E+00 0.  1.
         12    1    4    4    0    0  0.58989220208E+02 -0.36918818515E+02 -0.40684767030E+02  0.80610033679E+02  0.00000000000E+00 0. -1.
         -5    1    5    5    0  502 -0.99946888553E+02 -0.71739879913E+02  0.10729809515E+03  0.16331246775E+03  0.47000000000E+01 0.  1.
         13    1    6    6    0    0 -0.10022643160E+02  0.33417967779E+02  0.17401454250E+02  0.38987492307E+02  0.00000000000E+00 0. -1.
        -14    1    6    6    0    0 -0.46792232242E+02  0.48290589659E+01  0.16596188483E+03  0.17249979718E+03  0.00000000000E+00 0.  1.
</event>
<event>
12    1  0.8271773E-002  0.1975646E+03  0.7818608E-02  0.1152181E+00
         21   -1    0    0  503  502  0.00000000000E+00  0.00000000000E+00  0.12845404640E+04  0.12845404640E+04  0.00000000000E+00 0.  1.
         21   -1    0    0  501  503 -0.00000000000E+00 -0.00000000000E+00 -0.37375525462E+02  0.37375525462E+02  0.00000000000E+00 0. -1.
          6    2    1    2  501    0  0.74660038723E+02 -0.61975536918E+02  0.33019260129E+03  0.38390210832E+03  0.17011345116E+03 0.  0.
         24    2    3    3    0    0  0.97857230735E+02 -0.15226317216E+02  0.29451343189E+03  0.32050895104E+03  0.78612643976E+02 0.  0.
         -6    2    1    2    0  502 -0.74660038723E+02  0.61975536918E+02  0.91697233722E+03  0.93801388111E+03  0.17209498941E+03 0.  0.
        -24    2    5    5    0    0 -0.10614310807E+03  0.46534023447E+02  0.49558018015E+03  0.51513911947E+03  0.79604162733E+02 0.  0.
          5    1    3    3  501    0 -0.23197192013E+02 -0.46749219702E+02  0.35679169397E+02  0.63393157272E+02  0.47000000000E+01 0. -1.
        -11    1    4    4    0    0  0.66835472763E+02 -0.28217623783E+02  0.26810630389E+03  0.27774845615E+03  0.00000000000E+00 0.  1.
         12    1    4    4    0    0  0.31021757972E+02  0.12991306567E+02  0.26407128003E+02  0.42760494892E+02  0.00000000000E+00 0. -1.
         -5    1    5    5    0  502  0.31483069349E+02  0.15441513472E+02  0.42139215707E+03  0.42287476164E+03  0.47000000000E+01 0.  1.
         13    1    6    6    0    0 -0.89655663711E+02  0.66285156601E+02  0.43976550735E+03  0.45368002102E+03  0.00000000000E+00 0. -1.
        -14    1    6    6    0    0 -0.16487444361E+02 -0.19751133155E+02  0.55814672803E+02  0.61459098452E+02  0.00000000000E+00 0.  1.
</event>
<event>
12    1  0.8271773E-002  0.2003400E+03  0.7818608E-02  0.1149633E+00
         21   -1    0    0  501  502  0.00000000000E+00  0.00000000000E+00  0.88468918141E+02  0.88468918141E+02  0.00000000000E+00 0. -1.
         21   -1    0    0  502  503 -0.00000000000E+00 -0.00000000000E+00 -0.45848637388E+03  0.45848637388E+03  0.00000000000E+00 0. -1.
         -6    2    1    2    0  503 -0.10385327478E+02  0.10258228596E+03 -0.21780545226E+03  0.29535120210E+03  0.17076925111E+03 0.  0.
        -24    2    3    3    0    0 -0.14725853659E+02  0.30002091986E+02 -0.25270415722E+02  0.89490678878E+02  0.79075985013E+02 0.  0.
          6    2    1    2  501    0  0.10385327478E+02 -0.10258228596E+03 -0.15221200349E+03  0.25160408993E+03  0.17177061345E+03 0.  0.
         24    2    5    5    0    0 -0.25969987305E+02 -0.54160947324E+02 -0.16156467243E+03  0.19015575908E+03  0.80300814910E+02 0.  0.
          5    1    5    5  501    0  0.36355314783E+02 -0.48421338638E+02  0.93526689479E+01  0.61448330856E+02  0.47000000000E+01 0. -1.
        -13    1    6    6    0    0  0.84184765055E+00 -0.23297187165E+02  0.19131934448E+00  0.23313177397E+02  0.00000000000E+00 0.  1.
         14    1    6    6    0    0 -0.26811834956E+02 -0.30863760159E+02 -0.16175599178E+03  0.16684258168E+03  0.00000000000E+00 0. -1.
         -5    1    3    3    0  503  0.43405261816E+01  0.72580193977E+02 -0.19253503654E+03  0.20586052322E+03  0.47000000000E+01 0.  1.
         13    1    4    4    0    0 -0.28451958302E+02  0.48640807521E+02 -0.15860756231E+01  0.56373377789E+02  0.00000000000E+00 0. -1.
        -14    1    4    4    0    0  0.13726104643E+02 -0.18638715535E+02 -0.23684340099E+02  0.33117301089E+02  0.00000000000E+00 0.  1.
</event>
<event>
12    1  0.8271773E-002  0.2203145E+03  0.7818608E-02  0.1133687E+00
         21   -1    0    0  503  502  0.00000000000E+00  0.00000000000E+00  0.22057966792E+04  0.22057966792E+04  0.00000000000E+00 0. -1.
         21   -1    0    0  501  503 -0.00000000000E+00 -0.00000000000E+00 -0.27406962326E+02  0.27406962326E+02  0.00000000000E+00 0.  1.
          6    2    1    2  501    0 -0.10450818645E+03  0.88388509402E+02  0.15862855307E+04  0.16015118663E+04  0.17263830232E+03 0.  0.
         24    2    3    3    0    0 -0.56630382734E+02  0.43796063972E+02  0.44569379650E+03  0.45903544888E+03  0.83339592177E+02 0.  0.
         -6    2    1    2    0  502  0.10450818645E+03 -0.88388509402E+02  0.59210418623E+03  0.63169177526E+03  0.17237355351E+03 0.  0.
        -24    2    5    5    0    0 -0.81783491957E+01 -0.56306485290E+02  0.33337353062E+03  0.34762989162E+03  0.80444545775E+02 0.  0.
          5    1    3    3  501    0 -0.47877803718E+02  0.44592445430E+02  0.11405917342E+04  0.11424764174E+04  0.47000000000E+01 0. -1.
        -11    1    4    4    0    0 -0.49299667294E+01 -0.22435206940E+02  0.58889350939E+02  0.63210748583E+02  0.00000000000E+00 0.  1.
         12    1    4    4    0    0 -0.51700416005E+02  0.66231270912E+02  0.38680444556E+03  0.39582470030E+03  0.00000000000E+00 0. -1.
         -5    1    5    5    0  502  0.11268653565E+03 -0.32082024112E+02  0.25873065561E+03  0.28406188364E+03  0.47000000000E+01 0.  1.
         13    1    6    6    0    0 -0.14550349772E+02  0.50350462593E+01  0.20106979683E+03  0.20165844284E+03  0.00000000000E+00 0. -1.
        -14    1    6    6    0    0  0.63720005765E+01 -0.61341531549E+02  0.13230373379E+03  0.14597144878E+03  0.00000000000E+00 0.  1.
</event>
<event>
12    1  0.8271773E-002  0.1777023E+03  0.7818608E-02  0.1170175E+00
         21   -1    0    0  503  502  0.00000000000E+00  0.00000000000E+00  0.19082860611E+04  0.19082860611E+04  0.00000000000E+00 0. -1.
         21   -1    0    0  501  503 -0.00000000000E+00 -0.00000000000E+00 -0.19323787701E+03  0.19323787701E+03  0.00000000000E+00 0. -1.
          6    2    1    2  501    0 -0.38374617241E+02  0.10998221577E+02 -0.14727071765E+03  0.23079592979E+03  0.17316040195E+03 0.  0.
         24    2    3    3    0    0 -0.19747461171E+02 -0.45785608024E+02 -0.28659211500E+02  0.97896894279E+02  0.79222265689E+02 0.  0.
         -6    2    1    2    0  502  0.38374617241E+02 -0.10998221577E+02  0.18623189018E+04  0.18707280083E+04  0.17262102179E+03 0.  0.
        -24    2    5    5    0    0 -0.15602561768E+02  0.16448904996E+02  0.15857819456E+04  0.15875996651E+04  0.72486628159E+02 0.  0.
          5    1    3    3  501    0 -0.18627156070E+02  0.56783829601E+02 -0.11861150615E+03  0.13289903551E+03  0.47000000000E+01 0. -1.
        -11    1    4    4    0    0 -0.28403414562E+02 -0.45746895340E+02 -0.50859335359E+02  0.74068916457E+02  0.00000000000E+00 0.  1.
         12    1    4    4    0    0  0.86559533906E+01 -0.38712684056E-01  0.22200123859E+02  0.23827977822E+02  0.00000000000E+00 0. -1.
         -5    1    5    5    0  502  0.53977179009E+02 -0.27447126573E+02  0.27653695620E+03  0.28312834325E+03  0.47000000000E+01 0.  1.
         13    1    6    6    0    0 -0.25647397521E+02  0.33142175332E+02  0.53557908762E+03  0.53721611283E+03  0.00000000000E+00 0. -1.
        -14    1    6    6    0    0  0.10044835753E+02 -0.16693270336E+02  0.10502028580E+04  0.10503835523E+04  0.00000000000E+00 0.  1.
</event>
<event>
12    1  0.8271773E-002  0.1787022E+03  0.7818608E-02  0.1169418E+00
         21   -1    0    0  503  502  0.00000000000E+00  0.00000000000E+00  0.37801158652E+02  0.37801158652E+02  0.00000000000E+00 0. -1.
         21   -1    0    0  501  503 -0.00000000000E+00 -0.00000000000E+00 -0.10944727900E+04  0.10944727900E+04  0.00000000000E+00 0. -1.
          6    2    1    2  501    0  0.49709270962E+02 -0.95050329883E+01 -0.80402405143E+03  0.82364382818E+03  0.17138588956E+03 0.  0.
         24    2    3    3    0    0  0.72342088493E+02  0.45596361333E+02 -0.62110193006E+03  0.63120942228E+03  0.73111704370E+02 0.  0.
         -6    2    1    2    0  502 -0.49709270962E+02  0.95050329883E+01 -0.25264757996E+03  0.30863012052E+03  0.16988347289E+03 0.  0.
        -24    2    5    5    0    0 -0.16684783986E+02  0.58526703824E+02 -0.21663282356E+03  0.23925509886E+03  0.81298616296E+02 0.  0.
          5    1    3    3  501    0 -0.22632817531E+02 -0.55101394322E+02 -0.18292212137E+03  0.19243440589E+03  0.47000000000E+01 0. -1.
        -13    1    4    4    0    0  0.25785649061E+02  0.55157454135E+02 -0.42982540891E+03  0.43411648965E+03  0.00000000000E+00 0.  1.
         14    1    4    4    0    0  0.46556439431E+02 -0.95610928013E+01 -0.19127652116E+03  0.19709293263E+03  0.00000000000E+00 0. -1.
         -5    1    5    5    0  502 -0.33024486976E+02 -0.49021670836E+02 -0.36014756406E+02  0.69375021662E+02  0.47000000000E+01 0.  1.
         11    1    6    6    0    0  0.81300485107E+01  0.72530109561E+02 -0.15156559947E+03  0.16822260676E+03  0.00000000000E+00 0. -1.
        -12    1    6    6    0    0 -0.24814832496E+02 -0.14003405736E+02 -0.65067224088E+02  0.71032492104E+02  0.00000000000E+00 0.  1.
</event>
<event>
12    1  0.8271773E-002  0.2930050E+03  0.7818608E-02  0.1088807E+00
         21   -1    0    0  503  502  0.00000000000E+00  0.00000000000E+00  0.69592098505E+02  0.69592098505E+02  0.00000000000E+00 0.  1.
         21   -1    0    0  501  503 -0.00000000000E+00 -0.00000000000E+00 -0.14753392210E+04  0.14753392210E+04  0.00000000000E+00 0. -1.
          6    2    1    2  501    0  0.20028241879E+03 -0.12716707618E+03 -0.10157515463E+04  0.10571317024E+04  0.17173153431E+03 0.  0.
         24    2    3    3    0    0  0.13244096871E+03 -0.21669168914E+02 -0.69210137332E+03  0.70999513668E+03  0.84134535686E+02 0.  0.
         -6    2    1    2    0  502 -0.20028241879E+03  0.12716707618E+03 -0.38999557615E+03  0.48779961705E+03  0.17195175032E+03 0.  0.
        -24    2    5    5    0    0 -0.92858442249E+02  0.57946810534E+02 -0.90980808566E+02  0.16258695256E+03  0.78590625827E+02 0.  0.
          5    1    3    3  501    0  0.67841450089E+02 -0.10549790727E+03 -0.32365017299E+03  0.34713656573E+03  0.47000000000E+01 0. -1.
        -11    1    4    4    0    0  0.11711053888E+01 -0.12417498507E+02 -0.12099943780E+02  0.17377410523E+02  0.00000000000E+00 0.  1.
         12    1    4    4    0    0  0.13126986332E+03 -0.92516704068E+01 -0.68000142954E+03  0.69261772616E+03  0.00000000000E+00 0. -1.
         -5    1    5    5    0  502 -0.10742397655E+03  0.69220265650E+02 -0.29901476758E+03  0.32521266449E+03  0.47000000000E+01 0.  1.
         13    1    6    6    0    0 -0.63736034289E+02  0.76303021990E+02 -0.75514641744E+02  0.12484748435E+03  0.00000000000E+00 0. -1.
        -14    1    6    6    0    0 -0.29122407960E+02 -0.18356211457E+02 -0.15466166822E+02  0.37739468208E+02  0.00000000000E+00 0.  1.
</event>
<event>
12    1  0.8271773E-002  0.1907391E+03  0.7818608E-02  0.1157933E+00
         21   -1    0    0  503  502  0.00000000000E+00  0.00000000000E+00  0.24447356366E+03  0.24447356366E+03  0.00000000000E+00 0. -1.
         21   -1    0    0  501  503 -0.00000000000E+00 -0.00000000000E+00 -0.23842982090E+03  0.23842982090E+03  0.00000000000E+00 0.  1.
          6    2    1    2  501    0 -0.70657578219E+02 -0.41669359879E+02 -0.14539774083E+03  0.23935480707E+03  0.17152665017E+03 0.  0.
         24    2    3    3    0    0  0.24193641924E+02 -0.43983083803E+02 -0.85809773467E+02  0.12721684234E+03  0.79378610357E+02 0.  0.
         -6    2    1    2    0  502  0.70657578219E+02  0.41669359879E+02  0.15144148359E+03  0.24354857749E+03  0.17219918041E+03 0.  0.
        -24    2    5    5    0    0  0.70162075163E+02  0.84510951969E+02  0.14763322372E+03  0.20027918439E+03  0.79065575057E+02 0.  0.
          5    1    3    3  501    0 -0.94851220142E+02  0.23137239240E+01 -0.59587967360E+02  0.11213796474E+03  0.47000000000E+01 0. -1.
        -13    1    4    4    0    0  0.27716646640E+02 -0.32552048611E+02 -0.22577375320E+01  0.42812915674E+02  0.00000000000E+00 0.  1.
         14    1    4    4    0    0 -0.35230047159E+01 -0.11431035191E+02 -0.83552035935E+02  0.84403926666E+02  0.00000000000E+00 0. -1.
         -5    1    5    5    0  502  0.49550305580E+00 -0.42841592090E+02  0.38082598695E+01  0.43269393101E+02  0.47000000000E+01 0.  1.
         11    1    6    6    0    0  0.81473792168E+02  0.44470638429E+02  0.11228977638E+03  0.14568668563E+03  0.00000000000E+00 0. -1.
        -12    1    6    6    0    0 -0.11311717005E+02  0.40040313540E+02  0.35343447344E+02  0.54592498753E+02  0.00000000000E+00 0.  1.
</event>
<event>
12    1  0.8271773E-002  0.1808440E+03  0.7818608E-02  0.1167028E+00
         21   -1    0    0  501  502  0.00000000000E+00  0.00000000000E+00  0.16104466700E+03  0.16104466700E+03  0.00000000000E+00 0.  1.
         21   -1    0    0  502  503 -0.00000000000E+00 -0.00000000000E+00 -0.23855939975E+03  0.23855939975E+03  0.00000000000E+00 0.  1.
         -6    2    1    2    0  503 -0.42247720942E+02  0.34661687846E+02 -0.11599738244E+03  0.21471090463E+03  0.17221810969E+03 0.  0.
        -24    2    3    3    0    0 -0.92253962817E+02  0.37521062433E+02 -0.91194458015E+02  0.15862101865E+03  0.83220037271E+02 0.  0.
          6    2    1    2  501    0  0.42247720942E+02 -0.34661687846E+02  0.38482649695E+02  0.18489316211E+03  0.17238986205E+03 0.  0.
         24    2    5    5    0    0 -0.26995364116E+02 -0.30508560145E+02 -0.21980522415E+02  0.92753385251E+02  0.80377392244E+02 0.  0.
          5    1    5    5  501    0  0.69243085058E+02 -0.41531277007E+01  0.60463172110E+02  0.92139776859E+02  0.47000000000E+01 0. -1.
        -13    1    6    6    0    0 -0.55066025857E+02 -0.14873752728E+02 -0.75730030784E+01  0.57539952203E+02  0.00000000000E+00 0.  1.
         14    1    6    6    0    0  0.28070661741E+02 -0.15634807418E+02 -0.14407519337E+02  0.35213433048E+02  0.00000000000E+00 0. -1.
         -5    1    3    3    0  503  0.50006241875E+02 -0.28593745872E+01 -0.24802924430E+02  0.56089885984E+02  0.47000000000E+01 0.  1.
         13    1    4    4    0    0 -0.89561199613E+02  0.39761178473E+01 -0.41957247188E+02  0.98981960886E+02  0.00000000000E+00 0. -1.
        -14    1    4    4    0    0 -0.26927632038E+01  0.33544944586E+02 -0.49237210827E+02  0.59639057764E+02  0.00000000000E+00 0.  1.
</event>
<event>
12    1  0.8271773E-002  0.1768838E+03  0.7818608E-02  0.1170878E+00
         21   -1    0    0  503  502  0.00000000000E+00  0.00000000000E+00  0.29277721235E+03  0.29277721235E+03  0.00000000000E+00 0.  1.
         21   -1    0    0  501  503 -0.00000000000E+00 -0.00000000000E+00 -0.19303148621E+03  0.19303148621E+03  0.00000000000E+00 0.  1.
          6    2    1    2  501    0 -0.42905524664E+02 -0.30390131925E+01 -0.11247889162E+03  0.20953498589E+03  0.17147387441E+03 0.  0.
         24    2    3    3    0    0  0.82885540043E+01 -0.53239476953E+02 -0.34690061079E+02  0.10363827957E+03  0.81451523140E+02 0.  0.
         -6    2    1    2    0  502  0.42905524664E+02  0.30390131925E+01  0.21222461775E+03  0.27627371266E+03  0.17157434622E+03 0.  0.
        -24    2    5    5    0    0  0.42082487188E+02 -0.30709269778E+02  0.43524978727E+02  0.10416536829E+03  0.79006361771E+02 0.  0.
          5    1    3    3  501    0 -0.51194078668E+02  0.50200463760E+02 -0.77788830540E+02  0.10589670632E+03  0.47000000000E+01 0. -1.
        -13    1    4    4    0    0  0.16404317567E+02 -0.93868518558E+00 -0.46579440901E+02  0.49392581218E+02  0.00000000000E+00 0.  1.
         14    1    4    4    0    0 -0.81157635629E+01 -0.52300791767E+02  0.11889379821E+02  0.54245698357E+02  0.00000000000E+00 0. -1.
         -5    1    5    5    0  502  0.82303747508E+00  0.33748282971E+02  0.16869963903E+03  0.17210834437E+03  0.47000000000E+01 0.  1.
         11    1    6    6    0    0  0.50167130073E+02  0.88964215824E+01  0.10623743143E+02  0.52045664325E+02  0.00000000000E+00 0. -1.
        -12    1    6    6    0    0 -0.80846428843E+01 -0.39605691360E+02  0.32901235585E+02  0.52119703968E+02  0.00000000000E+00 0.  1.
</event>
<event>
12    1  0.8271773E-002  0.2670667E+03  0.7818608E-02  0.1103247E+00
         21   -1    0    0  501  502  0.00000000000E+00  0.00000000000E+00  0.33709564270E+03  0.33709564270E+03  0.00000000000E+00 0.  1.
         21   -1    0    0  502  503 -0.00000000000E+00 -0.00000000000E+00 -0.27221477452E+03  0.27221477452E+03  0.00000000000E+00 0. -1.
         -6    2    1    2    0  503  0.17965848302E+03 -0.94071642514E+02 -0.11319992874E+03  0.28831603581E+03  0.17083696378E+03 0.  0.
        -24    2    3    3    0    0  0.57984554978E+02 -0.38293123572E+01 -0.92780459636E+02  0.13538707310E+03  0.79652831862E+02 0.  0.
          6    2    1    2  501    0 -0.17965848302E+03  0.94071642514E+02  0.17808079692E+03  0.32099438141E+03  0.17377565486E+03 0.  0.
         24    2    5    5    0    0 -0.17915905037E+03  0.91451463478E+02  0.20229529916E+03  0.29618416397E+03  0.79626223217E+02 0.  0.
          5    1    5    5  501    0 -0.49943265023E+00  0.26201790365E+01 -0.24214502237E+02  0.24810217446E+02  0.47000000000E+01 0. -1.
        -13    1    6    6    0    0 -0.64110592645E+02  0.77250229154E+02  0.96229790942E+02  0.13906091708E+03  0.00000000000E+00 0.  1.
         14    1    6    6    0    0 -0.11504845772E+03  0.14201234323E+02  0.10606550822E+03  0.15712324689E+03  0.00000000000E+00 0. -1.
         -5    1    3    3    0  503  0.12167392804E+03 -0.90242330157E+02 -0.20419469108E+02  0.15292896271E+03  0.47000000000E+01 0.  1.
         11    1    4    4    0    0  0.12997496132E+02 -0.11229629455E+02 -0.87868427106E+02  0.89531558489E+02  0.00000000000E+00 0. -1.
        -12    1    4    4    0    0  0.44987058846E+02  0.74003170979E+01 -0.49120325296E+01  0.45855514612E+02  0.00000000000E+00 0.  1.
</event>
<event>
12    1  0.8271773E-002  0.2139640E+03  0.7818608E-02  0.1138695E+00
         21   -1    0    0  501  502  0.00000000000E+00  0.00000000000E+00  0.42132085942E+02  0.42132085942E+02  0.00000000000E+00 0.  1.
         21   -1    0    0  502  503 -0.00000000000E+00 -0.00000000000E+00 -0.11319435103E+04  0.11319435103E+04  0.00000000000E+00 0.  1.
         -6    2    1    2    0  503  0.11380295450E+03 -0.55097920559E+02 -0.66852726583E+03  0.70157061581E+03  0.17113074096E+03 0.  0.
        -24    2    3    3    0    0  0.21538617204E+02 -0.56848120307E+02 -0.49443290540E+03  0.50447493480E+03  0.79595484113E+02 0.  0.
          6    2    1    2  501    0 -0.11380295450E+03  0.55097920559E+02 -0.42128415850E+03  0.47250498040E+03  0.17260857744E+03 0.  0.
         24    2    5    5    0    0 -0.61507086845E+02 -0.26535868130E+02 -0.14517700700E+03  0.17983420575E+03  0.82320739593E+02 0.  0.
          5    1    5    5  501    0 -0.52295867651E+02  0.81633788689E+02 -0.27610715150E+03  0.29267077466E+03  0.47000000000E+01 0. -1.
        -11    1    6    6    0    0 -0.66132467088E+02  0.11358485811E+02 -0.81249966020E+02  0.10537587666E+03  0.00000000000E+00 0.  1.
         12    1    6    6    0    0  0.46253802428E+01 -0.37894353942E+02 -0.63927040977E+02  0.74458329092E+02  0.00000000000E+00 0. -1.
         -5    1    3    3    0  503  0.92264337292E+02  0.17501997484E+01 -0.17409436044E+03  0.19709568101E+03  0.47000000000E+01 0.  1.
         11    1    4    4    0    0 -0.12164470209E+02 -0.28414726519E+02 -0.57137808124E+02  0.64962297802E+02  0.00000000000E+00 0. -1.
        -12    1    4    4    0    0  0.33703087413E+02 -0.28433393789E+02 -0.43729509727E+03  0.43951263700E+03  0.00000000000E+00 0.  1.
</event>
<event>
12    1  0.8271773E-002  0.1789203E+03  0.7818608E-02  0.1168960E+00
         21   -1    0    0  501  502  0.00000000000E+00  0.00000000000E+00  0.24734159787E+03  0.24734159787E+03  0.00000000000E+00 0.  1.
         21   -1    0    0  502  503 -0.00000000000E+00 -0.00000000000E+00 -0.13305777887E+03  0.13305777887E+03  0.00000000000E+00 0.  1.
         -6    2    1    2    0  503 -0.44144479677E+02 -0.15174100670E+02  0.24298847475E+02  0.18012517350E+03  0.17226623500E+03 0.  0.
        -24    2    3    3    0    0 -0.88885931599E+02  0.20237398952E+02  0.21215188454E+02  0.12278957567E+03  0.79479145184E+02 0.  0.
          6    2    1    2  501    0  0.44144479677E+02  0.15174100670E+02  0.89984971528E+02  0.20027420324E+03  0.17272368965E+03 0.  0.
         24    2    5    5    0    0  0.95942477553E+02  0.61449713908E+00  0.66824234431E+02  0.14150750875E+03  0.79709222291E+02 0.  0.
          5    1    5    5  501    0 -0.51797997876E+02  0.14559603531E+02  0.23160737097E+02  0.58766694494E+02  0.47000000000E+01 0. -1.
        -13    1    6    6    0    0  0.60092073298E+02  0.15253708748E+02  0.79449928279E+02  0.10077710061E+03  0.00000000000E+00 0.  1.
         14    1    6    6    0    0  0.35850404255E+02 -0.14639211609E+02 -0.12625693847E+02  0.40730408136E+02  0.00000000000E+00 0. -1.
         -5    1    3    3    0  503  0.44741451921E+02 -0.35411499622E+02  0.30836590207E+01  0.57335597830E+02  0.47000000000E+01 0.  1.
         13    1    4    4    0    0  0.19504746024E+01  0.10341730009E+02  0.29228122407E+02  0.31065074766E+02  0.00000000000E+00 0. -1.
        -14    1    4    4    0    0 -0.90836406201E+02  0.98956689427E+01 -0.80129339525E+01  0.91724500903E+02  0.00000000000E+00 0.  1.
</event>
<event>
12    1  0.8271773E-002  0.2286719E+03  0.7818608E-02  0.1128345E+00
         21   -1    0    0  503  502  0.00000000000E+00  0.00000000000E+00  0.84901666332E+03  0.84901666332E+03  0.00000000000E+00 0.  1.
         21   -1    0    0  501  503 -0.00000000000E+00 -0.00000000000E+00 -0.70676615658E+02  0.70676615658E+02  0.00000000000E+00 0. -1.
          6    2    1    2  501    0 -0.21980674232E+02 -0.14706132546E+03  0.56101070840E+03  0.60422080896E+03  0.16804638516E+03 0.  0.
         24    2    3    3    0    0 -0.46017295979E+02 -0.14968493870E+03  0.54945845074E+03  0.57701442757E+03  0.80733438777E+02 0.  0.
         -6    2    1    2    0  502  0.21980674232E+02  0.14706132546E+03  0.21732933927E+03  0.31547247002E+03  0.17372580162E+03 0.  0.
        -24    2    5    5    0    0 -0.28478785324E+02  0.14170711382E+03  0.11618317905E+03  0.20221409122E+03  0.80622951283E+02 0.  0.
          5    1    3    3  501    0  0.24036621747E+02  0.26236132428E+01  0.11552257658E+02  0.27206381392E+02  0.47000000000E+01 0. -1.
        -13    1    4    4    0    0 -0.29434988641E+02 -0.11895180856E+02  0.55595802355E+02  0.64021926896E+02  0.00000000000E+00 0.  1.
         14    1    4    4    0    0 -0.16582307338E+02 -0.13778975784E+03  0.49386264838E+03  0.51299250068E+03  0.00000000000E+00 0. -1.
         -5    1    5    5    0  502  0.50459459556E+02  0.53542116373E+01  0.10114616021E+03  0.11325837879E+03  0.47000000000E+01 0.  1.
         11    1    6    6    0    0  0.84513023007E+01  0.10842753556E+02 -0.97713090863E+01  0.16866187966E+02  0.00000000000E+00 0. -1.
        -12    1    6    6    0    0 -0.36930087624E+02  0.13086436026E+03  0.12595448814E+03  0.18534790326E+03  0.00000000000E+00 0.  1.
</event>
<event>
12    1  0.8271773E-002  0.2164051E+03  0.7818608E-02  0.1137035E+00
         21   -1    0    0  501  502  0.00000000000E+00  0.00000000000E+00  0.10340945320E+03  0.10340945320E+03  0.00000000000E+00 0. -1.
         21   -1    0    0  502  503 -0.00000000000E+00 -0.00000000000E+00 -0.50883092333E+03  0.50883092333E+03  0.00000000000E+00 0. -1.
         -6    2    1    2    0  503 -0.71282825082E+02  0.10605000110E+03 -0.95945234163E+02  0.23460734480E+03  0.17177681564E+03 0.  0.
        -24    2    3    3    0    0 -0.27131270904E+02  0.48016231483E+02 -0.12298296795E+03  0.15669452685E+03  0.79916831725E+02 0.  0.
          6    2    1    2  501    0  0.71282825082E+02 -0.10605000110E+03 -0.30947623597E+03  0.37763303172E+03  0.17465200295E+03 0.  0.
         24    2    5    5    0    0  0.62648782211E+01 -0.55950561856E+02 -0.26695674379E+03  0.28507340531E+03  0.82651250977E+02 0.  0.
          5    1    5    5  501    0  0.65017946861E+02 -0.50099439243E+02 -0.42519492175E+02  0.92559626411E+02  0.47000000000E+01 0. -1.
        -13    1    6    6    0    0  0.22798927303E+01 -0.65482403321E+02 -0.11189150145E+03  0.12966437889E+03  0.00000000000E+00 0.  1.
         14    1    6    6    0    0  0.39849854908E+01  0.95318414655E+01 -0.15506524234E+03  0.15540902642E+03  0.00000000000E+00 0. -1.
         -5    1    3    3    0  503 -0.44151554178E+02  0.58033769616E+02  0.27037733789E+02  0.77912817948E+02  0.47000000000E+01 0.  1.
         13    1    4    4    0    0 -0.17193395730E+02 -0.87839783432E+01 -0.86114862652E+02  0.88252709317E+02  0.00000000000E+00 0. -1.
        -14    1    4    4    0    0 -0.99378751739E+01  0.56800209826E+02 -0.36868105300E+02  0.68441817537E+02  0.00000000000E+00 0.  1.
</event>
<event>
12    1  0.8271773E-002  0.1778951E+03  0.7818608E-02  0.1169952E+00
         21   -1    0    0  501  502  0.00000000000E+00  0.00000000000E+00  0.31387410776E+03  0.31387410776E+03  0.00000000000E+00 0.  1.
         21   -1    0    0  502  503 -0.00000000000E+00 -0.00000000000E+00 -0.10882944585E+03  0.10882944585E+03  0.00000000000E+00 0.  1.
         -6    2    1    2    0  503 -0.23984058760E+02 -0.36268616033E+02  0.44521532469E+02  0.18338166192E+03  0.17249933186E+03 0.  0.
        -24    2    3    3    0    0  0.14660867746E+02 -0.69821481818E+02 -0.68599783388E+01  0.11070859401E+03  0.84376259212E+02 0.  0.
          6    2    1    2  501    0  0.23984058760E+02  0.36268616033E+02  0.16052312944E+03  0.23932189168E+03  0.17209487258E+03 0.  0.
         24    2    5    5    0    0 -0.67955035160E+01  0.44204856730E+02  0.20282631671E+02  0.95447458287E+02  0.81844877173E+02 0.  0.
          5    1    5    5  501    0  0.30779562276E+02 -0.79362406973E+01  0.14024049777E+03  0.14387443339E+03  0.47000000000E+01 0. -1.
        -13    1    6    6    0    0 -0.37796936097E+02  0.32380244088E+02  0.33215499511E+02  0.59836092731E+02  0.00000000000E+00 0.  1.
         14    1    6    6    0    0  0.31001432581E+02  0.11824612642E+02 -0.12932867840E+02  0.35611365556E+02  0.00000000000E+00 0. -1.
         -5    1    3    3    0  503 -0.38644926506E+02  0.33552865785E+02  0.51381510807E+02  0.72673067913E+02  0.47000000000E+01 0.  1.
         13    1    4    4    0    0 -0.31600574594E+02 -0.11010860432E+02 -0.12378898285E+02  0.35680141324E+02  0.00000000000E+00 0. -1.
        -14    1    4    4    0    0  0.46261442340E+02 -0.58810621385E+02  0.55189199464E+01  0.75028452686E+02  0.00000000000E+00 0.  1.
</event>
<event>
12    1  0.8271773E-002  0.1909209E+03  0.7818608E-02  0.1157636E+00
         21   -1    0    0  503  502  0.00000000000E+00  0.00000000000E+00  0.49113666341E+03  0.49113666341E+03  0.00000000000E+00 0.  1.
         21   -1    0    0  501  503 -0.00000000000E+00 -0.00000000000E+00 -0.15389574395E+03  0.15389574395E+03  0.00000000000E+00 0.  1.
          6    2    1    2  501    0  0.36986602108E+02 -0.74912983213E+02 -0.63448709523E+02  0.20118784113E+03  0.17167074558E+03 0.  0.
         24    2    3    3    0    0  0.42870300519E+02  0.16295719752E+02 -0.62050764877E+02  0.10965812108E+03  0.77917860260E+02 0.  0.
         -6    2    1    2    0  502 -0.36986602108E+02  0.74912983213E+02  0.40068962899E+03  0.44384456623E+03  0.17165621575E+03 0.  0.
        -24    2    5    5    0    0  0.32006509873E+02  0.87688809620E+02  0.21953197948E+03  0.24951635105E+03  0.73146260459E+02 0.  0.
          5    1    3    3  501    0 -0.58836984111E+01 -0.91208702965E+02 -0.13979446463E+01  0.91529720052E+02  0.47000000000E+01 0. -1.
        -13    1    4    4    0    0  0.19767379597E+02 -0.33566574100E+01 -0.74292068452E+02  0.76950164912E+02  0.00000000000E+00 0.  1.
         14    1    4    4    0    0  0.23102920922E+02  0.19652377162E+02  0.12241303576E+02  0.32707956164E+02  0.00000000000E+00 0. -1.
         -5    1    5    5    0  502 -0.68993111982E+02 -0.12775826406E+02  0.18115764951E+03  0.19432821519E+03  0.47000000000E+01 0.  1.
         11    1    6    6    0    0 -0.17318105291E+02  0.39212088475E+02  0.46855816756E+02  0.63505686496E+02  0.00000000000E+00 0. -1.
        -12    1    6    6    0    0  0.49324615164E+02  0.48476721145E+02  0.17267616272E+03  0.18601066455E+03  0.00000000000E+00 0.  1.
</event>
<event>
12    1  0.8271773E-002  0.2367475E+03  0.7818608E-02  0.1123024E+00
         21   -1    0    0  501  502  0.00000000000E+00  0.00000000000E+00  0.12424022290E+04  0.12424022290E+04  0.00000000000E+00 0. -1.
         21   -1    0    0  502  503 -0.00000000000E+00 -0.00000000000E+00 -0.45774941777E+02  0.45774941777E+02  0.00000000000E+00 0. -1.
         -6    2    1    2    0  503  0.15196183913E+03 -0.57450816881E+02  0.73394049700E+03  0.77117963401E+03  0.17221027223E+03 0.  0.
        -24    2    3    3    0    0  0.16749954774E+03 -0.62161721564E+02  0.50146755131E+03  0.53809301172E+03  0.78448748400E+02 0.  0.
          6    2    1    2  501    0 -0.15196183913E+03  0.57450816881E+02  0.46268679020E+03  0.51699753674E+03  0.16375100079E+03 0.  0.
         24    2    5    5    0    0 -0.14141338455E+03  0.65079518151E+02  0.25719213987E+03  0.31103732628E+03  0.79770499054E+02 0.  0.
          5    1    5    5  501    0 -0.10548454581E+02 -0.76287012698E+01  0.20549465033E+03  0.20596021046E+03  0.47000000000E+01 0. -1.
        -11    1    6    6    0    0 -0.11999682408E+02  0.14655425208E+02  0.97821403389E+02  0.99638350182E+02  0.00000000000E+00 0.  1.
         12    1    6    6    0    0 -0.12941370214E+03  0.50424092943E+02  0.15937073648E+03  0.21139897610E+03  0.00000000000E+00 0. -1.
         -5    1    3    3    0  503 -0.15537708610E+02  0.47109046834E+01  0.23247294569E+03  0.23308662229E+03  0.47000000000E+01 0.  1.
         13    1    4    4    0    0  0.99117097171E+02 -0.21518359868E+01  0.20045091339E+03  0.22362781139E+03  0.00000000000E+00 0. -1.
        -14    1    4    4    0    0  0.68382450571E+02 -0.60009885577E+02  0.30101663792E+03  0.31446520032E+03  0.00000000000E+00 0.  1.
</event>
<event>
12    1  0.8271773E-002  0.1833491E+03  0.7818608E-02  0.1166095E+00
         21   -1    0    0  503  502  0.00000000000E+00  0.00000000000E+00  0.46503100358E+03  0.46503100358E+03  0.00000000000E+00 0.  1.
         21   -1    0    0  501  503 -0.00000000000E+00 -0.00000000000E+00 -0.16472669009E+03  0.16472669009E+03  0.00000000000E+00 0.  1.
          6    2    1    2  501    0  0.35678868072E+02 -0.35711912520E+02 -0.87689831877E+02  0.20323976622E+03  0.17626279709E+03 0.  0.
         24    2    3    3    0    0 -0.28812857107E+02  0.32355919594E+02 -0.32427609466E+02  0.94297508072E+02  0.77222949344E+02 0.  0.
         -6    2    1    2    0  502 -0.35678868072E+02  0.35711912520E+02  0.38799414536E+03  0.42651792745E+03  0.16979329573E+03 0.  0.
        -24    2    5    5    0    0 -0.60010364257E+02 -0.19442242625E+02  0.12183051399E+03  0.15357256441E+03  0.69011693102E+02 0.  0.
          5    1    3    3  501    0  0.64491725179E+02 -0.68067832114E+02 -0.55262222410E+02  0.10894225815E+03  0.47000000000E+01 0. -1.
        -11    1    4    4    0    0 -0.24709060095E+00 -0.25342336960E+01 -0.46877363893E+02  0.46946465679E+02  0.00000000000E+00 0.  1.
         12    1    4    4    0    0 -0.28565766506E+02  0.34890153290E+02  0.14449754427E+02  0.47351042392E+02  0.00000000000E+00 0. -1.
         -5    1    5    5    0  502  0.24331496186E+02  0.55154155146E+02  0.26616363137E+03  0.27294536303E+03  0.47000000000E+01 0.  1.
         13    1    6    6    0    0 -0.40901562623E+02  0.22196204346E+02  0.49384692980E+02  0.67856150886E+02  0.00000000000E+00 0. -1.
        -14    1    6    6    0    0 -0.19108801634E+02 -0.41638446971E+02  0.72445821010E+02  0.85716413527E+02  0.00000000000E+00 0.  1.
</event>
<event>
12    1  0.8271773E-002  0.1915538E+03  0.7818608E-02  0.1157389E+00
         21   -1    0    0  503  502  0.00000000000E+00  0.00000000000E+00  0.39904916705E+03  0.39904916705E+03  0.00000000000E+00 0.  1.
         21   -1    0    0  501  503 -0.00000000000E+00 -0.00000000000E+00 -0.13484435939E+03  0.13484435939E+03  0.00000000000E+00 0. -1.
          6    2    1    2  501    0  0.56390896993E+02  0.58710454807E+02 -0.19995143821E+02  0.19116557035E+03  0.17180692286E+03 0.  0.
         24    2    3    3    0    0  0.13665274682E+02 -0.14491068200E+02  0.20612416625E+02  0.97064530300E+02  0.92735756500E+02 0.  0.
         -6    2    1    2    0  502 -0.56390896993E+02 -0.58710454807E+02  0.28419995149E+03  0.34272795609E+03  0.17339546907E+03 0.  0.
        -24    2    5    5    0    0  0.16073822835E+02 -0.42612113689E+02  0.10797288307E+03  0.15144711061E+03  0.95937082609E+02 0.  0.
          5    1    3    3  501    0  0.42725622311E+02  0.73201523007E+02 -0.40607560446E+02  0.94101040046E+02  0.47000000000E+01 0. -1.
        -11    1    4    4    0    0 -0.37603911611E+02 -0.18349683812E+02  0.18099417504E+02  0.45588967728E+02  0.00000000000E+00 0.  1.
         12    1    4    4    0    0  0.51269186293E+02  0.38586156127E+01  0.25129991207E+01  0.51475562572E+02  0.00000000000E+00 0. -1.
         -5    1    5    5    0  502 -0.72464719828E+02 -0.16098341119E+02  0.17622706842E+03  0.19128084549E+03  0.47000000000E+01 0.  1.
         11    1    6    6    0    0  0.34260059244E+02  0.15571028911E+02  0.15522318084E+02  0.40708119085E+02  0.00000000000E+00 0. -1.
        -12    1    6    6    0    0 -0.18186236409E+02 -0.58183142600E+02  0.92450564983E+02  0.11073899152E+03  0.00000000000E+00 0.  1.
</event>
<event>
12    1  0.8271773E-002  0.2405450E+03  0.7818608E-02  0.1119437E+00
         21   -1    0    0  501  502  0.00000000000E+00  0.00000000000E+00  0.35305787850E+03  0.35305787850E+03  0.00000000000E+00 0.  1.
         21   -1    0    0  502  503 -0.00000000000E+00 -0.00000000000E+00 -0.33423241722E+03  0.33423241722E+03  0.00000000000E+00 0. -1.
         -6    2    1    2    0  503  0.16807423127E+03  0.64922708530E+01 -0.23593776646E+03  0.33691020131E+03  0.17190333710E+03 0.  0.
        -24    2    3    3    0    0  0.47256635291E+02 -0.29914750423E+02 -0.16414191384E+03  0.19165491862E+03  0.81614692799E+02 0.  0.
          6    2    1    2  501    0 -0.16807423127E+03 -0.64922708530E+01  0.25476322774E+03  0.35038009441E+03  0.17196165722E+03 0.  0.
         24    2    5    5    0    0 -0.58991363374E+02  0.57203554774E+02  0.11945548799E+03  0.16521394009E+03  0.79207352919E+02 0.  0.
          5    1    5    5  501    0 -0.10908286789E+03 -0.63695825627E+02  0.13530773975E+03  0.18516615432E+03  0.47000000000E+01 0. -1.
        -11    1    6    6    0    0 -0.68785715077E+02  0.35916442603E+02  0.11864487743E+03  0.14176767046E+03  0.00000000000E+00 0.  1.
         12    1    6    6    0    0  0.97943517027E+01  0.21287112172E+02  0.81061056164E+00  0.23446269626E+02  0.00000000000E+00 0. -1.
         -5    1    3    3    0  503  0.12081759598E+03  0.36407021276E+02 -0.71795852628E+02  0.14525528269E+03  0.47000000000E+01 0.  1.
         13    1    4    4    0    0 -0.10976939706E+02  0.11008689725E+02 -0.79773423793E+02  0.81274126254E+02  0.00000000000E+00 0. -1.
        -14    1    4    4    0    0  0.58233574998E+02 -0.40923440149E+02 -0.84368490043E+02  0.11038079236E+03  0.00000000000E+00 0.  1.
</event>
<event>
12    1  0.8271773E-002  0.1885588E+03  0.7818608E-02  0.1160041E+00
         21   -1    0    0  501  502  0.00000000000E+00  0.00000000000E+00  0.28483574739E+02  0.28483574739E+02  0.00000000000E+00 0.  1.
         21   -1    0    0  502  503 -0.00000000000E+00 -0.00000000000E+00 -0.15850656752E+04  0.15850656752E+04  0.00000000000E+00 0.  1.
         -6    2    1    2    0  503 -0.40547150205E+02 -0.66882870822E+02 -0.11564768789E+04  0.11717479151E+04  0.17157218746E+03 0.  0.
        -24    2    3    3    0    0  0.32745753023E+02 -0.13813380367E+02 -0.35034968595E+03  0.36054426523E+03  0.77357423237E+02 0.  0.
          6    2    1    2  501    0  0.40547150205E+02  0.66882870822E+02 -0.40010522160E+03  0.44180133479E+03  0.17025522392E+03 0.  0.
         24    2    5    5    0    0  0.91545171564E+02  0.58911560461E+02 -0.28331517637E+03  0.31402674954E+03  0.80586722684E+02 0.  0.
          5    1    5    5  501    0 -0.50998021359E+02  0.79713103608E+01 -0.11679004523E+03  0.12777458525E+03  0.47000000000E+01 0. -1.
        -13    1    6    6    0    0  0.33843586166E+02  0.76551518156E+01 -0.20921638910E+02  0.40517954645E+02  0.00000000000E+00 0.  1.
         14    1    6    6    0    0  0.57701585398E+02  0.51256408646E+02 -0.26239353746E+03  0.27350879490E+03  0.00000000000E+00 0. -1.
         -5    1    3    3    0  503 -0.73292903228E+02 -0.53069490455E+02 -0.80612719290E+03  0.81120364991E+03  0.47000000000E+01 0.  1.
         13    1    4    4    0    0 -0.71333051693E+01  0.22700945635E+02 -0.50087544325E+02  0.55452493829E+02  0.00000000000E+00 0. -1.
        -14    1    4    4    0    0  0.39879058192E+02 -0.36514326003E+02 -0.30026214163E+03  0.30509177141E+03  0.00000000000E+00 0.  1.
</event>
<event>
12    1  0.8271773E-002  0.1770524E+03  0.7818608E-02  0.1171560E+00
         21   -1    0    0  503  502  0.00000000000E+00  0.00000000000E+00  0.11931726019E+03  0.11931726019E+03  0.00000000000E+00 0.  1.
         21   -1    0    0  501  503 -0.00000000000E+00 -0.00000000000E+00 -0.26811239761E+03  0.26811239761E+03  0.00000000000E+00 0.  1.
          6    2    1    2  501    0  0.38697229193E+02 -0.13400598426E+02 -0.11210714113E+03  0.20661608309E+03  0.16865687982E+03 0.  0.
         24    2    3    3    0    0  0.48689950922E+02 -0.65513099117E+02 -0.10034408911E+03  0.15206311242E+03  0.79947335557E+02 0.  0.
         -6    2    1    2    0  502 -0.38697229193E+02  0.13400598426E+02 -0.36687996287E+02  0.18081357471E+03  0.17225123554E+03 0.  0.
        -24    2    5    5    0    0 -0.76869816069E+02  0.88442654365E+01 -0.68453438274E+02  0.13072325765E+03  0.80096861517E+02 0.  0.
          5    1    3    3  501    0 -0.99927217289E+01  0.52112500691E+02 -0.11763052028E+02  0.54552970669E+02  0.47000000000E+01 0. -1.
        -13    1    4    4    0    0  0.19793536069E+01  0.11806044347E+02  0.52761176547E+01  0.13081970086E+02  0.00000000000E+00 0.  1.
         14    1    4    4    0    0  0.46710597315E+02 -0.77319143464E+02 -0.10562020676E+03  0.13898114233E+03  0.00000000000E+00 0. -1.
         -5    1    5    5    0  502  0.38172586876E+02  0.45563329898E+01  0.31765441987E+02  0.50090317066E+02  0.47000000000E+01 0.  1.
         13    1    6    6    0    0  0.24132667332E+01  0.16175941482E+02  0.98151389972E+01  0.19074115777E+02  0.00000000000E+00 0. -1.
        -14    1    6    6    0    0 -0.79283082802E+02 -0.73316760455E+01 -0.78268577271E+02  0.11164914187E+03  0.00000000000E+00 0.  1.
</event>
<event>
12    1  0.8271773E-002  0.2002069E+03  0.7818608E-02  0.1149624E+00
         21   -1    0    0  501  502  0.00000000000E+00  0.00000000000E+00  0.31516867188E+03  0.31516867188E+03  0.00000000000E+00 0.  1.
         21   -1    0    0  502  503 -0.00000000000E+00 -0.00000000000E+00 -0.17818576883E+03  0.17818576883E+03  0.00000000000E+00 0.  1.
         -6    2    1    2    0  503 -0.10138006314E+03 -0.19011769364E+02 -0.63686168913E+02  0.21009223295E+03  0.17159094865E+03 0.  0.
        -24    2    3    3    0    0 -0.10553230994E+03  0.33471054054E+02 -0.66267106496E+01  0.13231331753E+03  0.72149295216E+02 0.  0.
          6    2    1    2  501    0  0.10138006314E+03  0.19011769364E+02  0.20066907197E+03  0.28326220776E+03  0.17126014517E+03 0.  0.
         24    2    5    5    0    0  0.11351770374E+03  0.13440454324E+02  0.78147730310E+02  0.15992555046E+03  0.80013742974E+02 0.  0.
          5    1    5    5  501    0 -0.12137640598E+02  0.55713150400E+01  0.12252134166E+03  0.12333665729E+03  0.47000000000E+01 0. -1.
        -13    1    6    6    0    0  0.59247180972E+02  0.47026937719E+02  0.44845592763E+02  0.87936843897E+02  0.00000000000E+00 0.  1.
         14    1    6    6    0    0  0.54270522765E+02 -0.33586483395E+02  0.33302137548E+02  0.71988706568E+02  0.00000000000E+00 0. -1.
         -5    1    3    3    0  503  0.41522468025E+01 -0.52482823418E+02 -0.57059458263E+02  0.77778915426E+02  0.47000000000E+01 0.  1.
         11    1    4    4    0    0 -0.43492056340E+02  0.30152045867E+02  0.29354181505E+02  0.60517541312E+02  0.00000000000E+00 0. -1.
        -12    1    4    4    0    0 -0.62040253601E+02  0.33190081878E+01 -0.35980892154E+02  0.71795776216E+02  0.00000000000E+00 0.  1.
</event>
<event>
12    1  0.8271773E-002  0.1940861E+03  0.7818608E-02  0.1155452E+00
         21   -1    0    0  501  502  0.00000000000E+00  0.00000000000E+00  0.10965146103E+04  0.10965146103E+04  0.00000000000E+00 0. -1.
         21   -1    0    0  502  503 -0.00000000000E+00 -0.00000000000E+00 -0.13197281880E+03  0.13197281880E+03  0.00000000000E+00 0. -1.
         -6    2    1    2    0  503  0.14801725540E+02 -0.81174713374E+02 -0.46447443670E+02  0.19956644511E+03  0.17567292284E+03 0.  0.
        -24    2    3    3    0    0  0.18629676424E+02 -0.46289771945E+02 -0.98630853198E+02  0.13650448687E+03  0.80097577386E+02 0.  0.
          6    2    1    2  501    0 -0.14801725540E+02  0.81174713374E+02  0.10109892352E+04  0.10289209840E+04  0.17254197321E+03 0.  0.
         24    2    5    5    0    0 -0.58672025925E+02  0.75046556227E+01  0.66640987941E+03  0.67380283031E+03  0.80058730173E+02 0.  0.
          5    1    5    5  501    0  0.43870300384E+02  0.73670057752E+02  0.34457935576E+03  0.35511815369E+03  0.47000000000E+01 0. -1.
        -11    1    6    6    0    0 -0.42668172963E+02 -0.23987384202E+02  0.19421262910E+03  0.20028607762E+03  0.00000000000E+00 0.  1.
         12    1    6    6    0    0 -0.16003852962E+02  0.31492039825E+02  0.47219725031E+03  0.47351675269E+03  0.00000000000E+00 0. -1.
         -5    1    3    3    0  503 -0.38279508833E+01 -0.34884941429E+02  0.52183409527E+02  0.63061958234E+02  0.47000000000E+01 0.  1.
         13    1    4    4    0    0  0.81314301224E+01  0.94848148162E+01 -0.73294896891E+02  0.74352026053E+02  0.00000000000E+00 0. -1.
        -14    1    4    4    0    0  0.10498246301E+02 -0.55774586762E+02 -0.25335956307E+02  0.62152460819E+02  0.00000000000E+00 0.  1.
</event>
<event>
12    1  0.8271773E-002  0.2701283E+03  0.7818608E-02  0.1101247E+00
         21   -1    0    0  503  502  0.00000000000E+00  0.00000000000E+00  0.24618878117E+03  0.24618878117E+03  0.00000000000E+00 0.  1.
         21   -1    0    0  501  503 -0.00000000000E+00 -0.00000000000E+00 -0.48932975682E+03  0.48932975682E+03  0.00000000000E+00 0. -1.
          6    2    1    2  501    0 -0.17833609905E+03 -0.10686172891E+03 -0.35271887424E+03  0.44427459033E+03  0.17247061789E+03 0.  0.
         24    2    3    3    0    0 -0.18566435539E+03 -0.10889209774E+03 -0.36365194283E+03  0.43015199400E+03  0.80369525382E+02 0.  0.
         -6    2    1    2    0  502  0.17833609905E+03  0.10686172891E+03  0.10957789859E+03  0.29124394767E+03  0.17202478850E+03 0.  0.
        -24    2    5    5    0    0  0.87245056663E+02  0.67205418032E+02  0.13052754527E+03  0.18960154169E+03  0.82359191433E+02 0.  0.
          5    1    3    3  501    0  0.73282563381E+01  0.20303688261E+01  0.10933068582E+02  0.14122596331E+02  0.47000000000E+01 0. -1.
        -13    1    4    4    0    0 -0.46038552910E+02 -0.27314528631E+02 -0.35252054643E+02  0.64096327390E+02  0.00000000000E+00 0.  1.
         14    1    4    4    0    0 -0.13962580248E+03 -0.81577569106E+02 -0.32839988818E+03  0.36605566661E+03  0.00000000000E+00 0. -1.
         -5    1    5    5    0  502  0.91091042391E+02  0.39656310879E+02 -0.20949646673E+02  0.10164240597E+03  0.47000000000E+01 0.  1.
         13    1    6    6    0    0  0.92263760325E+01  0.48643404082E+02  0.20826448596E+02  0.53712640379E+02  0.00000000000E+00 0. -1.
        -14    1    6    6    0    0  0.78018680630E+02  0.18562013950E+02  0.10970109667E+03  0.13588890131E+03  0.00000000000E+00 0.  1.
</event>
<event>
12    1  0.8271773E-002  0.2332717E+03  0.7818608E-02  0.1124564E+00
         21   -1    0    0  503  502  0.00000000000E+00  0.00000000000E+00  0.17831642278E+03  0.17831642278E+03  0.00000000000E+00 0.  1.
         21   -1    0    0  501  503 -0.00000000000E+00 -0.00000000000E+00 -0.42113861735E+03  0.42113861735E+03  0.00000000000E+00 0.  1.
          6    2    1    2  501    0  0.11861250682E+03  0.10130642443E+03 -0.27952370961E+03  0.36331379062E+03  0.17184728049E+03 0.  0.
         24    2    3    3    0    0  0.42493972688E+02  0.74103983944E+02 -0.25334097294E+03  0.27821602504E+03  0.76976424095E+02 0.  0.
         -6    2    1    2    0  502 -0.11861250682E+03 -0.10130642443E+03  0.36701515049E+02  0.23614124952E+03  0.17344673566E+03 0.  0.
        -24    2    5    5    0    0 -0.35218238998E+01 -0.20828261166E+01  0.17772228181E+02  0.82936825106E+02  0.80906881388E+02 0.  0.
          5    1    3    3  501    0  0.76118534132E+02  0.27202440487E+02 -0.26182736676E+02  0.85097765580E+02  0.47000000000E+01 0. -1.
        -11    1    4    4    0    0  0.44482874555E+02  0.47876139646E+02 -0.81944163145E+02  0.10481267457E+03  0.00000000000E+00 0.  1.
         12    1    4    4    0    0 -0.19889018665E+01  0.26227844298E+02 -0.17139680979E+03  0.17340335047E+03  0.00000000000E+00 0. -1.
         -5    1    5    5    0  502 -0.11509068292E+03 -0.99223598314E+02  0.18929286868E+02  0.15320442441E+03  0.47000000000E+01 0.  1.
         11    1    6    6    0    0 -0.63904459007E+01 -0.12758654545E+02 -0.30362776757E+02  0.33548759694E+02  0.00000000000E+00 0. -1.
        -12    1    6    6    0    0  0.28686220009E+01  0.10675828429E+02  0.48135004938E+02  0.49388065413E+02  0.00000000000E+00 0.  1.
</event>
<event>
12    1  0.8271773E-002  0.1765125E+03  0.7818608E-02  0.1172303E+00
         21   -1    0    0  501  502  0.00000000000E+00  0.00000000000E+00  0.24785055530E+03  0.24785055530E+03  0.00000000000E+00 0. -1.
         21   -1    0    0  502  503 -0.00000000000E+00 -0.00000000000E+00 -0.16492047412E+03  0.16492047412E+03  0.00000000000E+00 0. -1.
         -6    2    1    2    0  503 -0.91656178787E+01  0.52723899348E+00 -0.62617992538E+02  0.18729034466E+03  0.17627357624E+03 0.  0.
        -24    2    3    3    0    0  0.51767267463E+02 -0.38947086046E+02 -0.31299478466E+02  0.10808189702E+03  0.80655524421E+02 0.  0.
          6    2    1    2  501    0  0.91656178787E+01 -0.52723899348E+00  0.14554807372E+03  0.22548068476E+03  0.17196805199E+03 0.  0.
         24    2    5    5    0    0  0.47380292984E+02  0.27102155364E+02  0.30398327439E+02  0.10096040973E+03  0.79306538404E+02 0.  0.
          5    1    5    5  501    0 -0.38214675105E+02 -0.27629394358E+02  0.11514974628E+03  0.12452027503E+03  0.47000000000E+01 0. -1.
        -11    1    6    6    0    0  0.47967670048E+02 -0.17816714333E+02  0.19288012192E+02  0.54684185043E+02  0.00000000000E+00 0.  1.
         12    1    6    6    0    0 -0.58737706483E+00  0.44918869697E+02  0.11110315247E+02  0.46276224690E+02  0.00000000000E+00 0. -1.
         -5    1    3    3    0  503 -0.60932885342E+02  0.39474325040E+02 -0.31318514072E+02  0.79208447637E+02  0.47000000000E+01 0.  1.
         13    1    4    4    0    0 -0.91617100630E+01 -0.41411089215E+02 -0.14644593993E+02  0.44869581840E+02  0.00000000000E+00 0. -1.
        -14    1    4    4    0    0  0.60928977526E+02  0.24640031689E+01 -0.16654884473E+02  0.63212315183E+02  0.00000000000E+00 0.  1.
</event>
<event>
12    1  0.8271773E-002  0.1966137E+03  0.7818608E-02  0.1153658E+00
         21   -1    0    0  501  502  0.00000000000E+00  0.00000000000E+00  0.13226705543E+03  0.13226705543E+03  0.00000000000E+00 0.  1.
         21   -1    0    0  502  503 -0.00000000000E+00 -0.00000000000E+00 -0.28530607310E+03  0.28530607310E+03  0.00000000000E+00 0.  1.
         -6    2    1    2    0  503 -0.85901150038E+02 -0.38670958364E+02 -0.76531090999E+02  0.20659822332E+03  0.16718662444E+03 0.  0.
        -24    2    3    3    0    0 -0.83244807454E+01 -0.50489175802E+01 -0.90162347690E+02  0.12082828451E+03  0.79846332710E+02 0.  0.
          6    2    1    2  501    0  0.85901150038E+02  0.38670958364E+02 -0.76507926674E+02  0.21097490520E+03  0.17257606202E+03 0.  0.
         24    2    5    5    0    0  0.51107991578E+02  0.39805797539E+02 -0.11777137280E+03  0.15678437354E+03  0.80713785768E+02 0.  0.
          5    1    5    5  501    0  0.34793158461E+02 -0.11348391746E+01  0.41263446130E+02  0.54190531665E+02  0.47000000000E+01 0. -1.
        -11    1    6    6    0    0  0.56013297487E+02  0.50324359850E+02 -0.55763065950E+02  0.93699254073E+02  0.00000000000E+00 0.  1.
         12    1    6    6    0    0 -0.49053059091E+01 -0.10518562311E+02 -0.62008306854E+02  0.63085119466E+02  0.00000000000E+00 0. -1.
         -5    1    3    3    0  503 -0.77576669293E+02 -0.33622040784E+02  0.13631256692E+02  0.85769938813E+02  0.47000000000E+01 0.  1.
         13    1    4    4    0    0  0.81228466923E+00 -0.23870289795E+02  0.41336335906E+01  0.24239172180E+02  0.00000000000E+00 0. -1.
        -14    1    4    4    0    0 -0.91367654146E+01  0.18821372215E+02 -0.94295981281E+02  0.96589112326E+02  0.00000000000E+00 0.  1.
</event>
<event>
12    1  0.8271773E-002  0.2365285E+03  0.7818608E-02  0.1122195E+00
         21   -1    0    0  501  502  0.00000000000E+00  0.00000000000E+00  0.98756189683E+02  0.98756189683E+02  0.00000000000E+00 0. -1.
         21   -1    0    0  502  503 -0.00000000000E+00 -0.00000000000E+00 -0.62799049666E+03  0.62799049666E+03  0.00000000000E+00 0.  1.
         -6    2    1    2    0  503  0.15998447856E+03  0.23789369833E+02 -0.15024104524E+03  0.28021085210E+03  0.17258268296E+03 0.  0.
        -24    2    3    3    0    0  0.15863204070E+03  0.16667803628E+02 -0.17770444949E+03  0.25142067380E+03  0.78686363678E+02 0.  0.
          6    2    1    2  501    0 -0.15998447856E+03 -0.23789369833E+02 -0.37899326173E+03  0.44653583425E+03  0.17203892388E+03 0.  0.
         24    2    5    5    0    0 -0.16561750860E+02 -0.39710420951E+02 -0.13144311370E+03  0.15995822786E+03  0.80362512389E+02 0.  0.
          5    1    5    5  501    0 -0.14342272770E+03  0.15921051118E+02 -0.24755014803E+03  0.28657760639E+03  0.47000000000E+01 0. -1.
        -11    1    6    6    0    0 -0.14572724004E+02 -0.15070058848E+02 -0.13351527082E+03  0.13515102109E+03  0.00000000000E+00 0.  1.
         12    1    6    6    0    0 -0.19890268563E+01 -0.24640362103E+02  0.20721571278E+01  0.24807206767E+02  0.00000000000E+00 0. -1.
         -5    1    3    3    0  503  0.13524378631E+01  0.71215662056E+01  0.27463404250E+02  0.28790178297E+02  0.47000000000E+01 0.  1.
         13    1    4    4    0    0  0.12195643467E+03  0.35830264156E+02 -0.94151987288E+02  0.15818273135E+03  0.00000000000E+00 0. -1.
        -14    1    4    4    0    0  0.36675606026E+02 -0.19162460528E+02 -0.83552462206E+02  0.93237942446E+02  0.00000000000E+00 0.  1.
</event>
<event>
12    1  0.8271773E-002  0.2090997E+03  0.7818608E-02  0.1142658E+00
         21   -1    0    0  501  502  0.00000000000E+00  0.00000000000E+00  0.23117815033E+03  0.23117815033E+03  0.00000000000E+00 0. -1.
         21   -1    0    0  502  503 -0.00000000000E+00 -0.00000000000E+00 -0.18783357720E+03  0.18783357720E+03  0.00000000000E+00 0. -1.
         -6    2    1    2    0  503  0.10540664780E+03  0.56039254730E+02  0.11869056559E+02  0.20755631589E+03  0.16937470382E+03 0.  0.
        -24    2    3    3    0    0  0.11341210164E+03  0.46108737846E+02 -0.41601798322E+02  0.15238454070E+03  0.80635092337E+02 0.  0.
          6    2    1    2  501    0 -0.10540664780E+03 -0.56039254730E+02  0.31475516566E+02  0.21145541164E+03  0.17167330456E+03 0.  0.
         24    2    5    5    0    0 -0.88042525003E+02 -0.69115012470E+02 -0.33489782503E+02  0.14278905682E+03  0.82090060657E+02 0.  0.
          5    1    5    5  501    0 -0.17364122793E+02  0.13075757740E+02  0.64965299069E+02  0.68666354818E+02  0.47000000000E+01 0. -1.
        -13    1    6    6    0    0 -0.44291201995E+02  0.84322524680E+01 -0.29061093332E+02  0.53641034680E+02  0.00000000000E+00 0.  1.
         14    1    6    6    0    0 -0.43751323007E+02 -0.77547264938E+02 -0.44286891706E+01  0.89148022143E+02  0.00000000000E+00 0. -1.
         -5    1    3    3    0  503 -0.80054538415E+01  0.99305168839E+01  0.53470854881E+02  0.55171775198E+02  0.47000000000E+01 0.  1.
         13    1    4    4    0    0  0.10877298691E+03  0.10129270670E+02 -0.23090371281E+02  0.11165719884E+03  0.00000000000E+00 0. -1.
        -14    1    4    4    0    0  0.46391147225E+01  0.35979467176E+02 -0.18511427041E+02  0.40727341858E+02  0.00000000000E+00 0.  1.
</event>
<event>
12    1  0.8271773E-002  0.1879003E+03  0.7818608E-02  0.1160472E+00
         21   -1    0    0  501  502  0.00000000000E+00  0.00000000000E+00  0.67443984994E+02  0.67443984994E+02  0.00000000000E+00 0. -1.
         21   -1    0    0  502  503 -0.00000000000E+00 -0.00000000000E+00 -0.96749795797E+03  0.96749795797E+03  0.00000000000E+00 0. -1.
         -6    2    1    2    0  503 -0.74283073674E+02 -0.95831572880E+01 -0.80078312125E+03  0.82243024501E+03  0.17183739024E+03 0.  0.
        -24    2    3    3    0    0 -0.38737047683E+02  0.45771251050E+02 -0.60913660273E+03  0.61975289415E+03  0.97214622083E+02 0.  0.
          6    2    1    2  501    0  0.74283073674E+02  0.95831572880E+01 -0.99270851726E+02  0.21251169796E+03  0.17232732757E+03 0.  0.
         24    2    5    5    0    0  0.15673860274E+01  0.51052335720E+02 -0.86509835360E+02  0.12770487318E+03  0.78840252022E+02 0.  0.
          5    1    5    5  501    0  0.72715687646E+02 -0.41469178432E+02 -0.12761016367E+02  0.84806824775E+02  0.47000000000E+01 0. -1.
        -11    1    6    6    0    0  0.32811499022E+02  0.50874242360E+02 -0.69360064921E+02  0.92063030634E+02  0.00000000000E+00 0.  1.
         12    1    6    6    0    0 -0.31244112994E+02  0.17809336076E+00 -0.17149770439E+02  0.35641842547E+02  0.00000000000E+00 0. -1.
         -5    1    3    3    0  503 -0.35546025991E+02 -0.55354408338E+02 -0.19164651853E+03  0.20267735085E+03  0.47000000000E+01 0.  1.
         11    1    4    4    0    0 -0.67311425645E+02  0.13209150312E+02 -0.43097938347E+03  0.43640410018E+03  0.00000000000E+00 0. -1.
        -12    1    4    4    0    0  0.28574377962E+02  0.32562100738E+02 -0.17815721925E+03  0.18334879397E+03  0.00000000000E+00 0.  1.
</event>
<event>
12    1  0.8271773E-002  0.2302695E+03  0.7818608E-02  0.1126512E+00
         21   -1    0    0  501  502  0.00000000000E+00  0.00000000000E+00  0.90418353594E+03  0.90418353594E+03  0.00000000000E+00 0. -1.
         21   -1    0    0  502  503 -0.00000000000E+00 -0.00000000000E+00 -0.58555791354E+02  0.58555791354E+02  0.00000000000E+00 0. -1.
         -6    2    1    2    0  503  0.13932997784E+03  0.59744364919E+02  0.41953015202E+03  0.47840141374E+03  0.17285870632E+03 0.  0.
        -24    2    3    3    0    0  0.31974455200E+02  0.81967718310E+02  0.24382832562E+03  0.27124855357E+03  0.79890254776E+02 0.  0.
          6    2    1    2  501    0 -0.13932997784E+03 -0.59744364919E+02  0.42609759256E+03  0.48433791355E+03  0.17332577491E+03 0.  0.
         24    2    5    5    0    0 -0.34215439248E+02 -0.83308694923E+02  0.21972853722E+03  0.25149758012E+03  0.82821300408E+02 0.  0.
          5    1    5    5  501    0 -0.10511453859E+03  0.23564330004E+02  0.20636905534E+03  0.23284033343E+03  0.47000000000E+01 0. -1.
        -13    1    6    6    0    0  0.12760678818E+02 -0.54059719300E+02  0.56874256098E+02  0.79498233826E+02  0.00000000000E+00 0.  1.
         14    1    6    6    0    0 -0.46976118065E+02 -0.29248975623E+02  0.16285428113E+03  0.17199934629E+03  0.00000000000E+00 0. -1.
         -5    1    3    3    0  503  0.10735552264E+03 -0.22223353390E+02  0.17570182640E+03  0.20715286017E+03  0.47000000000E+01 0.  1.
         11    1    4    4    0    0  0.57891315820E+02  0.66508796425E+02  0.17042371532E+03  0.19188295180E+03  0.00000000000E+00 0. -1.
        -12    1    4    4    0    0 -0.25916860620E+02  0.15458921884E+02  0.73404610304E+02  0.79365601769E+02  0.00000000000E+00 0.  1.
</event>
<event>
12    1  0.8271773E-002  0.1807594E+03  0.7818608E-02  0.1167356E+00
         21   -1    0    0  503  502  0.00000000000E+00  0.00000000000E+00  0.45261419847E+03  0.45261419847E+03  0.00000000000E+00 0.  1.
         21   -1    0    0  501  503 -0.00000000000E+00 -0.00000000000E+00 -0.96785217401E+02  0.96785217401E+02  0.00000000000E+00 0.  1.
          6    2    1    2  501    0  0.51881510519E+02 -0.71124297552E+01  0.31815036414E+03  0.36591477437E+03  0.17300777470E+03 0.  0.
         24    2    3    3    0    0 -0.35515098022E+01  0.57590244983E+02  0.20425233718E+03  0.22359785195E+03  0.70340120955E+02 0.  0.
         -6    2    1    2    0  502 -0.51881510519E+02  0.71124297552E+01  0.37678616926E+02  0.18348464150E+03  0.17176919893E+03 0.  0.
        -24    2    5    5    0    0 -0.82957133746E+01 -0.54333527616E+02  0.26902642254E+02  0.10723807423E+03  0.88064188642E+02 0.  0.
          5    1    3    3  501    0  0.55433020321E+02 -0.64702674738E+02  0.11389802697E+03  0.14231692242E+03  0.47000000000E+01 0. -1.
        -13    1    4    4    0    0  0.12700223204E+01 -0.10216231485E+02  0.90484637849E+02  0.91068403022E+02  0.00000000000E+00 0.  1.
         14    1    4    4    0    0 -0.48215321226E+01  0.67806476468E+02  0.11376769933E+03  0.13252944893E+03  0.00000000000E+00 0. -1.
         -5    1    5    5    0  502 -0.43585797144E+02  0.61445957371E+02  0.10775974672E+02  0.76246567267E+02  0.47000000000E+01 0.  1.
         13    1    6    6    0    0 -0.17630682032E+02  0.19433742705E+02  0.19139838140E+02  0.32478372934E+02  0.00000000000E+00 0. -1.
        -14    1    6    6    0    0  0.93349686577E+01 -0.73767270321E+02  0.77628041147E+01  0.74759701298E+02  0.00000000000E+00 0.  1.
</event>
<event>
12    1  0.8271773E-002  0.1731684E+03  0.7818608E-02  0.1174605E+00
         21   -1    0    0  503  502  0.00000000000E+00  0.00000000000E+00  0.12775470464E+03  0.12775470464E+03  0.00000000000E+00 0.  1.
         21   -1    0    0  501  503 -0.00000000000E+00 -0.00000000000E+00 -0.14063491035E+04  0.14063491035E+04  0.00000000000E+00 0.  1.
          6    2    1    2  501    0  0.90952956359E+01 -0.19675060838E+02 -0.13394775971E+04  0.13506248675E+04  0.17180648186E+03 0.  0.
         24    2    3    3    0    0 -0.18543111514E+02  0.54914132543E+02 -0.82384426638E+03  0.82887085358E+03  0.70342787263E+02 0.  0.
         -6    2    1    2    0  502 -0.90952956359E+01  0.19675060838E+02  0.60883198185E+02  0.18347894068E+03  0.17172048634E+03 0.  0.
        -24    2    5    5    0    0  0.57896434741E+02  0.24841161762E+02  0.13903671072E+02  0.10135862343E+03  0.78174023821E+02 0.  0.
          5    1    3    3  501    0  0.27638407150E+02 -0.74589193381E+02 -0.51563333069E+03  0.52175401391E+03  0.47000000000E+01 0. -1.
        -13    1    4    4    0    0 -0.90281975503E+01  0.39798613410E+02 -0.78562325251E+03  0.78668248541E+03  0.00000000000E+00 0.  1.
         14    1    4    4    0    0 -0.95149139641E+01  0.15115519133E+02 -0.38221013876E+02  0.42188368161E+02  0.00000000000E+00 0. -1.
         -5    1    5    5    0  502 -0.66991730377E+02 -0.51661009244E+01  0.46979527112E+02  0.82120317250E+02  0.47000000000E+01 0.  1.
         13    1    6    6    0    0 -0.31595030711E+01 -0.22761593443E+02  0.30230714932E+01  0.23177824682E+02  0.00000000000E+00 0. -1.
        -14    1    6    6    0    0  0.61055937812E+02  0.47602755205E+02  0.10880599579E+02  0.78180798745E+02  0.00000000000E+00 0.  1.
</event>
<event>
12    1  0.8271773E-002  0.3591300E+03  0.7818608E-02  0.1058953E+00
         21   -1    0    0  503  502  0.00000000000E+00  0.00000000000E+00  0.62065174339E+03  0.62065174339E+03  0.00000000000E+00 0.  1.
         21   -1    0    0  501  503 -0.00000000000E+00 -0.00000000000E+00 -0.20986980151E+03  0.20986980151E+03  0.00000000000E+00 0.  1.
          6    2    1    2  501    0  0.28394207971E+03 -0.13691957852E+03  0.16274013761E+03  0.39405949249E+03  0.17154724020E+03 0.  0.
         24    2    3    3    0    0  0.12660468127E+03 -0.39903088776E+02  0.11890670129E+02  0.15542817001E+03  0.79972033753E+02 0.  0.
         -6    2    1    2    0  502 -0.28394207971E+03  0.13691957852E+03  0.24804180428E+03  0.43646205241E+03  0.17205903321E+03 0.  0.
        -24    2    5    5    0    0 -0.25992021535E+03  0.15620352134E+03  0.25614768807E+03  0.40426398151E+03  0.76548482748E+02 0.  0.
          5    1    3    3  501    0  0.15733739844E+03 -0.97016489748E+02  0.15084946748E+03  0.23863132248E+03  0.47000000000E+01 0. -1.
        -11    1    4    4    0    0  0.23998414901E+02 -0.45358415925E+02 -0.39304518463E+01  0.51466088492E+02  0.00000000000E+00 0.  1.
         12    1    4    4    0    0  0.10260626637E+03  0.54553271485E+01  0.15821121976E+02  0.10396208152E+03  0.00000000000E+00 0. -1.
         -5    1    5    5    0  502 -0.24021864357E+02 -0.19283942816E+02 -0.81058837946E+01  0.32198070902E+02  0.47000000000E+01 0.  1.
         11    1    6    6    0    0 -0.21877340044E+02  0.27614526931E+02  0.61817190691E+02  0.71151564775E+02  0.00000000000E+00 0. -1.
        -12    1    6    6    0    0 -0.23804287531E+03  0.12858899441E+03  0.19433049738E+03  0.33311241673E+03  0.00000000000E+00 0.  1.
</event>
<event>
12    1  0.8271773E-002  0.1913163E+03  0.7818608E-02  0.1158279E+00
         21   -1    0    0  503  502  0.00000000000E+00  0.00000000000E+00  0.24039060775E+03  0.24039060775E+03  0.00000000000E+00 0. -1.
         21   -1    0    0  501  503 -0.00000000000E+00 -0.00000000000E+00 -0.15451316509E+03  0.15451316509E+03  0.00000000000E+00 0. -1.
          6    2    1    2  501    0  0.52407944779E+02 -0.63321738378E+02  0.53393372290E+01  0.19139074661E+03  0.17275900596E+03 0.  0.
         24    2    3    3    0    0 -0.15603744342E+02 -0.13520277346E+02 -0.43885002233E+02  0.93662035514E+02  0.80127453089E+02 0.  0.
         -6    2    1    2    0  502 -0.52407944779E+02  0.63321738378E+02  0.80538105426E+02  0.20351302623E+03  0.16785389538E+03 0.  0.
        -24    2    5    5    0    0  0.14397097591E+02  0.83035487413E+02  0.37810017652E+02  0.12166362139E+03  0.79185041183E+02 0.  0.
          5    1    3    3  501    0  0.68011689121E+02 -0.49801461031E+02  0.49224339462E+02  0.97728711101E+02  0.47000000000E+01 0. -1.
        -11    1    4    4    0    0 -0.49246701941E+01  0.33566283145E+02 -0.12915548216E+02  0.36300952141E+02  0.00000000000E+00 0.  1.
         12    1    4    4    0    0 -0.10679074148E+02 -0.47086560491E+02 -0.30969454017E+02  0.57361083372E+02  0.00000000000E+00 0. -1.
         -5    1    5    5    0  502 -0.66805042371E+02 -0.19713749035E+02  0.42728087774E+02  0.81849404836E+02  0.47000000000E+01 0.  1.
         11    1    6    6    0    0  0.35082101582E+02  0.72904116765E+01  0.20421825472E+02  0.41242634609E+02  0.00000000000E+00 0. -1.
        -12    1    6    6    0    0 -0.20685003991E+02  0.75745075736E+02  0.17388192180E+02  0.80420986786E+02  0.00000000000E+00 0.  1.
</event>
<event>
12    1  0.8271773E-002  0.2020245E+03  0.7818608E-02  0.1148193E+00
         21   -1    0    0  503  502  0.00000000000E+00  0.00000000000E+00  0.65955384532E+03  0.65955384532E+03  0.00000000000E+00 0.  1.
         21   -1    0    0  501  503 -0.00000000000E+00 -0.00000000000E+00 -0.15729526828E+03  0.15729526828E+03  0.00000000000E+00 0.  1.
          6    2    1    2  501    0 -0.10189331717E+03  0.23102126470E+02 -0.67515287808E+02  0.21231941409E+03  0.17206180046E+03 0.  0.
         24    2    3    3    0    0 -0.98121276661E+02  0.18526409832E+02  0.15947736090E+02  0.12851409307E+03  0.79312855428E+02 0.  0.
         -6    2    1    2    0  502  0.10189331717E+03 -0.23102126470E+02  0.56977386484E+03  0.60452969952E+03  0.17291022009E+03 0.  0.
        -24    2    5    5    0    0  0.10184430333E+03 -0.41881710141E+01  0.57055342388E+03  0.58502488407E+03  0.79580792804E+02 0.  0.
          5    1    3    3  501    0 -0.37720405089E+01  0.45757166379E+01 -0.83463023898E+02  0.83805321016E+02  0.47000000000E+01 0. -1.
        -11    1    4    4    0    0 -0.98950072647E+02  0.12559864850E+02 -0.11507653158E+02  0.10040564308E+03  0.00000000000E+00 0.  1.
         12    1    4    4    0    0  0.82879598576E+00  0.59665449818E+01  0.27455389248E+02  0.28108449985E+02  0.00000000000E+00 0. -1.
         -5    1    5    5    0  502  0.49013835092E-01 -0.18913955455E+02 -0.77955903805E+00  0.19504815447E+02  0.47000000000E+01 0.  1.
         11    1    6    6    0    0  0.15735263795E+02  0.11474918110E+02  0.21376755297E+02  0.28917778949E+02  0.00000000000E+00 0. -1.
        -12    1    6    6    0    0  0.86109039540E+02 -0.15663089124E+02  0.54917666858E+03  0.55610710512E+03  0.00000000000E+00 0.  1.
</event>
<event>
12    1  0.8271773E-002  0.2314121E+03  0.7818608E-02  0.1125671E+00
         21   -1    0    0  503  502  0.00000000000E+00  0.00000000000E+00  0.73917507501E+02  0.73917507501E+02  0.00000000000E+00 0.  1.
         21   -1    0    0  501  503 -0.00000000000E+00 -0.00000000000E+00 -0.75906502691E+03  0.75906502691E+03  0.00000000000E+00 0. -1.
          6    2    1    2  501    0  0.41931251506E+02  0.15025424034E+03 -0.43204647707E+03  0.49011806819E+03  0.17092979796E+03 0.  0.
         24    2    3    3    0    0  0.91871819496E+02  0.87459228666E+02 -0.25946464262E+03  0.29973988299E+03  0.80203171921E+02 0.  0.
         -6    2    1    2    0  502 -0.41931251506E+02 -0.15025424034E+03 -0.25310104234E+03  0.34286446622E+03  0.17076691122E+03 0.  0.
        -24    2    5    5    0    0 -0.28289429365E+02 -0.87112738226E+02 -0.25019867558E+03  0.27803035226E+03  0.79451737176E+02 0.  0.
          5    1    3    3  501    0 -0.49940567990E+02  0.62795011670E+02 -0.17258183444E+03  0.19037818521E+03  0.47000000000E+01 0. -1.
        -13    1    4    4    0    0  0.11763334149E+02  0.65768351378E+02 -0.10686209226E+03  0.12602919835E+03  0.00000000000E+00 0.  1.
         14    1    4    4    0    0  0.80108485347E+02  0.21690877288E+02 -0.15260255036E+03  0.17371068464E+03  0.00000000000E+00 0. -1.
         -5    1    5    5    0  502 -0.13641822140E+02 -0.63141502110E+02 -0.29023667628E+01  0.64834113959E+02  0.47000000000E+01 0.  1.
         11    1    6    6    0    0 -0.37123763453E+02 -0.73079395062E+01 -0.11177803008E+03  0.11800808363E+03  0.00000000000E+00 0. -1.
        -12    1    6    6    0    0  0.88343340879E+01 -0.79804798720E+02 -0.13842064550E+03  0.16002226863E+03  0.00000000000E+00 0.  1.
</event>
<event>
12    1  0.8271773E-002  0.2257770E+03  0.7818608E-02  0.1129855E+00
         21   -1    0    0  501  502  0.00000000000E+00  0.00000000000E+00  0.47095889274E+03  0.47095889274E+03  0.00000000000E+00 0.  1.
         21   -1    0    0  502  503 -0.00000000000E+00 -0.00000000000E+00 -0.13835588048E+03  0.13835588048E+03  0.00000000000E+00 0.  1.
         -6    2    1    2    0  503  0.42582612686E+02 -0.13818247268E+03  0.31006631614E+03  0.38355754252E+03  0.17340009620E+03 0.  0.
        -24    2    3    3    0    0  0.67463543689E+00 -0.46419176356E+02  0.39662788712E+02  0.94910805566E+02  0.72661744669E+02 0.  0.
          6    2    1    2  501    0 -0.42582612686E+02  0.13818247268E+03  0.22536696121E+02  0.22575723070E+03  0.17190331550E+03 0.  0.
         24    2    5    5    0    0 -0.44278619572E+02  0.10948358375E+03  0.79578629336E+02  0.16170744686E+03  0.76611284151E+02 0.  0.
          5    1    5    5  501    0  0.16960068860E+01  0.28698888927E+02 -0.57041933214E+02  0.64049783839E+02  0.47000000000E+01 0. -1.
        -11    1    6    6    0    0  0.56826133693E+01  0.14676238976E+02  0.47203373898E+02  0.49757839509E+02  0.00000000000E+00 0.  1.
         12    1    6    6    0    0 -0.49961232942E+02  0.94807344778E+02  0.32375255438E+02  0.11194960735E+03  0.00000000000E+00 0. -1.
         -5    1    3    3    0  503  0.41907977249E+02 -0.91763296325E+02  0.27040352742E+03  0.28864673695E+03  0.47000000000E+01 0.  1.
         11    1    4    4    0    0  0.79925826672E+01 -0.26871508658E+01  0.48897544680E+02  0.49619270784E+02  0.00000000000E+00 0. -1.
        -12    1    4    4    0    0 -0.73179472303E+01 -0.43732025490E+02 -0.92347559675E+01  0.45291534782E+02  0.00000000000E+00 0.  1.
</event>
<event>
12    1  0.8271773E-002  0.2019329E+03  0.7818608E-02  0.1148505E+00
         21   -1    0    0  501  502  0.00000000000E+00  0.00000000000E+00  0.57357417068E+02  0.57357417068E+02  0.00000000000E+00 0.  1.
         21   -1    0    0  502  503 -0.00000000000E+00 -0.00000000000E+00 -0.94257747336E+03  0.94257747336E+03  0.00000000000E+00 0. -1.
         -6    2    1    2    0  503 -0.42357895975E+02  0.95777809351E+02 -0.69238989679E+03  0.72072106400E+03  0.17049194349E+03 0.  0.
        -24    2    3    3    0    0 -0.47352615924E+02  0.90674364323E+02 -0.69831792614E+03  0.71031799184E+03  0.80247199196E+02 0.  0.
          6    2    1    2  501    0  0.42357895975E+02 -0.95777809351E+02 -0.19283015950E+03  0.27921382643E+03  0.17265372959E+03 0.  0.
         24    2    5    5    0    0  0.68050027092E+02 -0.65689618589E+02 -0.56307178609E+02  0.13699568716E+03  0.81556040618E+02 0.  0.
          5    1    5    5  501    0 -0.25692131117E+02 -0.30088190763E+02 -0.13652298089E+03  0.14221813927E+03  0.47000000000E+01 0. -1.
        -11    1    6    6    0    0  0.42025908933E+02 -0.62677896756E+02 -0.73754488488E+02  0.10551976277E+03  0.00000000000E+00 0.  1.
         12    1    6    6    0    0  0.26024118159E+02 -0.30117218328E+01  0.17447309879E+02  0.31475924393E+02  0.00000000000E+00 0. -1.
         -5    1    3    3    0  503  0.49947199484E+01  0.51034450280E+01  0.59280293452E+01  0.10403072163E+02  0.47000000000E+01 0.  1.
         13    1    4    4    0    0 -0.39795094802E+02  0.77468964161E+02 -0.68367951444E+03  0.68920444604E+03  0.00000000000E+00 0. -1.
        -14    1    4    4    0    0 -0.75575211214E+01  0.13205400163E+02 -0.14638411700E+02  0.21113545795E+02  0.00000000000E+00 0.  1.
</event>
<event>
12    1  0.8271773E-002  0.2075150E+03  0.7818608E-02  0.1143985E+00
         21   -1    0    0  501  502  0.00000000000E+00  0.00000000000E+00  0.25995778967E+03  0.25995778967E+03  0.00000000000E+00 0.  1.
         21   -1    0    0  502  503 -0.00000000000E+00 -0.00000000000E+00 -0.26584815902E+03  0.26584815902E+03  0.00000000000E+00 0.  1.
         -6    2    1    2    0  503  0.79463512420E+01 -0.11304686248E+03 -0.16573038426E+03  0.26557306008E+03  0.17383829371E+03 0.  0.
        -24    2    3    3    0    0  0.40460744477E+02 -0.84743861111E+01 -0.30486482181E+02  0.91488047428E+02  0.75708322943E+02 0.  0.
          6    2    1    2  501    0 -0.79463512420E+01  0.11304686248E+03  0.15984001491E+03  0.26023288861E+03  0.17125883432E+03 0.  0.
         24    2    5    5    0    0  0.24279744416E+02  0.13399100916E+03  0.15567109882E+03  0.22128871853E+03  0.78689957542E+02 0.  0.
          5    1    5    5  501    0 -0.32226095658E+02 -0.20944146679E+02  0.41689160900E+01  0.38944170075E+02  0.47000000000E+01 0. -1.
        -13    1    6    6    0    0  0.11994036414E+02  0.11793803918E+03  0.16141855054E+03  0.20027278011E+03  0.00000000000E+00 0.  1.
         14    1    6    6    0    0  0.12285708002E+02  0.16052969977E+02 -0.57474517255E+01  0.21015938416E+02  0.00000000000E+00 0. -1.
         -5    1    3    3    0  503 -0.32514393235E+02 -0.10457247637E+03 -0.13524390208E+03  0.17408501266E+03  0.47000000000E+01 0.  1.
         11    1    4    4    0    0 -0.85458658134E+01  0.11775813904E+02 -0.35362364103E+02  0.38238703044E+02  0.00000000000E+00 0. -1.
        -12    1    4    4    0    0  0.49006610290E+02 -0.20250200015E+02  0.48758819216E+01  0.53249344383E+02  0.00000000000E+00 0.  1.
</event>
<event>
12    1  0.8271773E-002  0.2754071E+03  0.7818608E-02  0.1098635E+00
         21   -1    0    0  503  502  0.00000000000E+00  0.00000000000E+00  0.15579616666E+03  0.15579616666E+03  0.00000000000E+00 0. -1.
         21   -1    0    0  501  503 -0.00000000000E+00 -0.00000000000E+00 -0.80225217676E+03  0.80225217676E+03  0.00000000000E+00 0.  1.
          6    2    1    2  501    0  0.15432689555E+03  0.14430788239E+03 -0.62706555001E+03  0.68487973642E+03  0.17665642850E+03 0.  0.
         24    2    3    3    0    0  0.99586048074E+02  0.12004701055E+03 -0.58718442738E+03  0.61278435357E+03  0.79940268411E+02 0.  0.
         -6    2    1    2    0  502 -0.15432689555E+03 -0.14430788239E+03 -0.19390460085E+02  0.27316860701E+03  0.17205679965E+03 0.  0.
        -24    2    5    5    0    0 -0.98427096172E+01 -0.82467215837E+02 -0.39644989220E+00  0.11479307087E+03  0.79243746298E+02 0.  0.
          5    1    3    3  501    0  0.54740847474E+02  0.24260871842E+02 -0.39881122634E+02  0.72095382843E+02  0.47000000000E+01 0. -1.
        -13    1    4    4    0    0  0.60624414463E+02  0.22391261890E+02 -0.15376484281E+03  0.16679422988E+03  0.00000000000E+00 0.  1.
         14    1    4    4    0    0  0.38961633611E+02  0.97655748658E+02 -0.43341958457E+03  0.44599012369E+03  0.00000000000E+00 0. -1.
         -5    1    5    5    0  502 -0.14448418593E+03 -0.61840666553E+02 -0.18994010193E+02  0.15837553614E+03  0.47000000000E+01 0.  1.
         11    1    6    6    0    0 -0.35397454954E+02 -0.80974633112E+02  0.54297436166E+01  0.88540121643E+02  0.00000000000E+00 0. -1.
        -12    1    6    6    0    0  0.25554745337E+02 -0.14925827249E+01 -0.58261935088E+01  0.26252949229E+02  0.00000000000E+00 0.  1.
</event>
<event>
12    1  0.8271773E-002  0.1724793E+03  0.7818608E-02  0.1176397E+00
         21   -1    0    0  501  502  0.00000000000E+00  0.00000000000E+00  0.48827740511E+03  0.48827740511E+03  0.00000000000E+00 0.  1.
         21   -1    0    0  502  503 -0.00000000000E+00 -0.00000000000E+00 -0.77801438159E+02  0.77801438159E+02  0.00000000000E+00 0.  1.
         -6    2    1    2    0  503 -0.95466107859E+01 -0.97933254753E-02  0.69654078294E+02  0.18601293537E+03  0.17221493439E+03 0.  0.
        -24    2    3    3    0    0  0.16382535495E+02  0.63510577647E+02  0.34789685632E+02  0.10891057463E+03  0.79681930810E+02 0.  0.
          6    2    1    2  501    0  0.95466107859E+01  0.97933254753E-02  0.34082188866E+03  0.38006590790E+03  0.16792675989E+03 0.  0.
         24    2    5    5    0    0  0.34514346968E+02  0.29297055155E+02  0.32587148407E+03  0.33851189302E+03  0.79677600347E+02 0.  0.
          5    1    5    5  501    0 -0.24967736182E+02 -0.29287261830E+02  0.14950404582E+02  0.41554014880E+02  0.47000000000E+01 0. -1.
        -13    1    6    6    0    0  0.26452577094E+02 -0.15898731108E+02  0.49354539936E+02  0.58209785243E+02  0.00000000000E+00 0.  1.
         14    1    6    6    0    0  0.80617698736E+01  0.45195786263E+02  0.27651694414E+03  0.28030210778E+03  0.00000000000E+00 0. -1.
         -5    1    3    3    0  503 -0.25929146281E+02 -0.63520370972E+02  0.34864392661E+02  0.77102360735E+02  0.47000000000E+01 0.  1.
         11    1    4    4    0    0  0.36987346065E+02  0.65955077546E+00  0.14395510140E+02  0.39695459291E+02  0.00000000000E+00 0. -1.
        -12    1    4    4    0    0 -0.20604810570E+02  0.62851026871E+02  0.20394175492E+02  0.69215115339E+02  0.00000000000E+00 0.  1.
</event>
<event>
12    1  0.8271773E-002  0.1755626E+03  0.7818608E-02  0.1172231E+00
         21   -1    0    0  501  502  0.00000000000E+00  0.00000000000E+00  0.39198095451E+03  0.39198095451E+03  0.00000000000E+00 0. -1.
         21   -1    0    0  502  503 -0.00000000000E+00 -0.00000000000E+00 -0.10211928412E+03  0.10211928412E+03  0.00000000000E+00 0. -1.
         -6    2    1    2    0  503 -0.28370754054E+02 -0.34101961712E+01  0.26245524817E+02  0.17751355567E+03  0.17322155106E+03 0.  0.
        -24    2    3    3    0    0 -0.48174805257E+02 -0.24208600986E+02 -0.39967995216E+02  0.10518725118E+03  0.80994129080E+02 0.  0.
          6    2    1    2  501    0  0.28370754054E+02  0.34101961712E+01  0.26361614557E+03  0.31658668295E+03  0.17296568010E+03 0.  0.
         24    2    5    5    0    0  0.17913966844E+00 -0.33190777156E+02  0.55928241772E+02  0.10377043885E+03  0.80862079933E+02 0.  0.
          5    1    5    5  501    0  0.28191614385E+02  0.36600973327E+02  0.20768790380E+03  0.21281624411E+03  0.47000000000E+01 0. -1.
        -11    1    6    6    0    0  0.20624082542E+02  0.15781557646E+02 -0.94060021894E+00  0.25986440141E+02  0.00000000000E+00 0.  1.
         12    1    6    6    0    0 -0.20444942873E+02 -0.48972334802E+02  0.56868841991E+02  0.77783998704E+02  0.00000000000E+00 0. -1.
         -5    1    3    3    0  503  0.19804051203E+02  0.20798404815E+02  0.66213520033E+02  0.72326304496E+02  0.47000000000E+01 0.  1.
         13    1    4    4    0    0 -0.16380212530E+02 -0.51916928039E+02 -0.16308141124E+02  0.56829871075E+02  0.00000000000E+00 0. -1.
        -14    1    4    4    0    0 -0.31794592727E+02  0.27708327052E+02 -0.23659854092E+02  0.48357380103E+02  0.00000000000E+00 0.  1.
</event>
<event>
12    1  0.8271773E-002  0.2424391E+03  0.7818608E-02  0.1118266E+00
         21   -1    0    0  503  502  0.00000000000E+00  0.00000000000E+00  0.57481938907E+02  0.57481938907E+02  0.00000000000E+00 0.  1.
         21   -1    0    0  501  503 -0.00000000000E+00 -0.00000000000E+00 -0.13815451931E+04  0.13815451931E+04  0.00000000000E+00 0. -1.
          6    2    1    2  501    0 -0.16973865793E+03  0.11389382711E+02 -0.10304957034E+04  0.10586302927E+04  0.17273034427E+03 0.  0.
         24    2    3    3    0    0 -0.60087466142E+01 -0.13097501051E+02 -0.44982536756E+03  0.45480314833E+03  0.65539246725E+02 0.  0.
         -6    2    1    2    0  502  0.16973865793E+03 -0.11389382711E+02 -0.29356755079E+03  0.38039683931E+03  0.17198522742E+03 0.  0.
        -24    2    5    5    0    0  0.10668326356E+03 -0.71104544788E+02 -0.16036792004E+03  0.22131788102E+03  0.82622997213E+02 0.  0.
          5    1    3    3  501    0 -0.16372991131E+03  0.24486883761E+02 -0.58067033585E+03  0.60382714436E+03  0.47000000000E+01 0. -1.
        -13    1    4    4    0    0 -0.11433725508E+02 -0.13766936779E+02 -0.44890321105E+03  0.44925978177E+03  0.00000000000E+00 0.  1.
         14    1    4    4    0    0  0.54249788933E+01  0.66943572832E+00 -0.92215651208E+00  0.55433665602E+01  0.00000000000E+00 0. -1.
         -5    1    5    5    0  502  0.63055394370E+02  0.59715162077E+02 -0.13319963074E+03  0.15907895829E+03  0.47000000000E+01 0.  1.
         13    1    6    6    0    0  0.49407485866E+02 -0.51896744001E+02 -0.14051217325E+03  0.15772774812E+03  0.00000000000E+00 0. -1.
        -14    1    6    6    0    0  0.57275777692E+02 -0.19207800787E+02 -0.19855746796E+02  0.63590132899E+02  0.00000000000E+00 0.  1.
</event>
<event>
12    1  0.8271773E-002  0.2752737E+03  0.7818608E-02  0.1098335E+00
         21   -1    0    0  501  502  0.00000000000E+00  0.00000000000E+00  0.46620816834E+03  0.46620816834E+03  0.00000000000E+00 0. -1.
         21   -1    0    0  502  503 -0.00000000000E+00 -0.00000000000E+00 -0.16312750637E+03  0.16312750637E+03  0.00000000000E+00 0. -1.
         -6    2    1    2    0  503 -0.19179994889E+03  0.96848617276E+02  0.13032256648E+03  0.30456456200E+03  0.17207186297E+03 0.  0.
        -24    2    3    3    0    0 -0.13506193212E+03  0.79825991194E+02  0.17869954265E+02  0.17737709272E+03  0.80804599994E+02 0.  0.
          6    2    1    2  501    0  0.19179994889E+03 -0.96848617276E+02  0.17275809550E+03  0.32477111271E+03  0.17165092783E+03 0.  0.
         24    2    5    5    0    0  0.21536478487E+03 -0.83157973907E+02  0.14685372596E+03  0.28687834860E+03  0.86231843775E+02 0.  0.
          5    1    5    5  501    0 -0.23564835978E+02 -0.13690643369E+02  0.25904369536E+02  0.37892764105E+02  0.47000000000E+01 0. -1.
        -11    1    6    6    0    0  0.23118267456E+02 -0.43721142514E+02  0.20933215028E+02  0.53704674697E+02  0.00000000000E+00 0.  1.
         12    1    6    6    0    0  0.19224651742E+03 -0.39436831393E+02  0.12592051093E+03  0.23317367391E+03  0.00000000000E+00 0. -1.
         -5    1    3    3    0  503 -0.56738016777E+02  0.17022626082E+02  0.11245261221E+03  0.12718746927E+03  0.47000000000E+01 0.  1.
         13    1    4    4    0    0 -0.79062621472E+02  0.13873330864E+00  0.91904974797E+01  0.79595116715E+02  0.00000000000E+00 0. -1.
        -14    1    4    4    0    0 -0.55999310645E+02  0.79687257885E+02  0.86794567849E+01  0.97781976008E+02  0.00000000000E+00 0.  1.
</event>
<event>
12    1  0.8271773E-002  0.1839980E+03  0.7818608E-02  0.1164138E+00
         21   -1    0    0  501  502  0.00000000000E+00  0.00000000000E+00  0.70432855502E+03  0.70432855502E+03  0.00000000000E+00 0. -1.
         21   -1    0    0  502  503 -0.00000000000E+00 -0.00000000000E+00 -0.59775029606E+02  0.59775029606E+02  0.00000000000E+00 0. -1.
         -6    2    1    2    0  503  0.29432075010E+02 -0.35596933908E+02  0.15245306486E+03  0.23895023825E+03  0.17810640256E+03 0.  0.
        -24    2    3    3    0    0 -0.46377327540E+02 -0.36855776537E+02  0.50531286538E+02  0.11183301245E+03  0.80274572438E+02 0.  0.
          6    2    1    2  501    0 -0.29432075010E+02  0.35596933908E+02  0.49210046056E+03  0.52515334638E+03  0.17745361419E+03 0.  0.
         24    2    5    5    0    0  0.51707136723E+02  0.54289622043E+01  0.29120598517E+03  0.30635124758E+03  0.79668434628E+02 0.  0.
          5    1    5    5  501    0 -0.81139211733E+02  0.30167971704E+02  0.20089447538E+03  0.21880209879E+03  0.47000000000E+01 0. -1.
        -11    1    6    6    0    0 -0.11754042830E+02 -0.15663650902E+02  0.24373585266E+02  0.31266262027E+02  0.00000000000E+00 0.  1.
         12    1    6    6    0    0  0.63461179552E+02  0.21092613107E+02  0.26683239991E+03  0.27508498556E+03  0.00000000000E+00 0. -1.
         -5    1    3    3    0  503  0.75809402550E+02  0.12588426288E+01  0.10192177833E+03  0.12711722581E+03  0.47000000000E+01 0.  1.
         13    1    4    4    0    0 -0.10002531061E+02 -0.13073573170E+01 -0.21445602826E+02  0.23699655934E+02  0.00000000000E+00 0. -1.
        -14    1    4    4    0    0 -0.36374796478E+02 -0.35548419220E+02  0.71976889364E+02  0.88133356514E+02  0.00000000000E+00 0.  1.
</event>
<event>
12    1  0.8271773E-002  0.1873067E+03  0.7818608E-02  0.1161048E+00
         21   -1    0    0  501  502  0.00000000000E+00  0.00000000000E+00  0.46733056270E+02  0.46733056270E+02  0.00000000000E+00 0.  1.
         21   -1    0    0  502  503 -0.00000000000E+00 -0.00000000000E+00 -0.21467827257E+04  0.21467827257E+04  0.00000000000E+00 0.  1.
         -6    2    1    2    0  503  0.29043339190E+02  0.68603005508E+02 -0.19357840624E+04  0.19448248608E+04  0.17185434209E+03 0.  0.
        -24    2    3    3    0    0 -0.89852729776E+00  0.58675240607E+02 -0.18599230385E+04  0.18625323287E+04  0.79179386004E+02 0.  0.
          6    2    1    2  501    0 -0.29043339190E+02 -0.68603005508E+02 -0.16426560699E+03  0.24869092117E+03  0.17121359968E+03 0.  0.
         24    2    5    5    0    0  0.32102005013E+01  0.21140728676E+02 -0.10724351414E+03  0.13748014057E+03  0.83320957326E+02 0.  0.
          5    1    5    5  501    0 -0.32253539692E+02 -0.89743734183E+02 -0.57022092856E+02  0.11121078060E+03  0.47000000000E+01 0. -1.
        -11    1    6    6    0    0  0.86689427817E+01  0.10840612316E+02  0.11585815951E+02  0.18080392019E+02  0.00000000000E+00 0.  1.
         12    1    6    6    0    0 -0.54587422804E+01  0.10300116360E+02 -0.11882933009E+03  0.11939974855E+03  0.00000000000E+00 0. -1.
         -5    1    3    3    0  503  0.29941866488E+02  0.99277649008E+01 -0.75861023988E+02  0.82292532135E+02  0.47000000000E+01 0.  1.
         13    1    4    4    0    0 -0.12630012847E+02 -0.15100621093E+02 -0.21050895184E+03  0.21142744568E+03  0.00000000000E+00 0. -1.
        -14    1    4    4    0    0  0.11731485549E+02  0.73775861700E+02 -0.16494140866E+04  0.16511048830E+04  0.00000000000E+00 0.  1.
</event>
<event>
12    1  0.8271773E-002  0.2628453E+03  0.7818608E-02  0.1105544E+00
         21   -1    0    0  501  502  0.00000000000E+00  0.00000000000E+00  0.90521579490E+03  0.90521579490E+03  0.00000000000E+00 0.  1.
         21   -1    0    0  502  503 -0.00000000000E+00 -0.00000000000E+00 -0.11306893400E+04  0.11306893400E+04  0.00000000000E+00 0.  1.
         -6    2    1    2    0  503 -0.16986691025E+03  0.10256903022E+03 -0.10958322005E+04  0.11269143160E+04  0.17237311484E+03 0.  0.
        -24    2    3    3    0    0 -0.85632174900E+02  0.12468347801E+03 -0.82074129402E+03  0.83832873720E+03  0.79372292707E+02 0.  0.
          6    2    1    2  501    0  0.16986691025E+03 -0.10256903022E+03  0.87035865542E+03  0.90899081891E+03  0.17136203385E+03 0.  0.
         24    2    5    5    0    0  0.92604343057E+02 -0.32378201240E+02  0.68198373212E+03  0.69357619896E+03  0.79512392850E+02 0.  0.
          5    1    5    5  501    0  0.77262567194E+02 -0.70190828981E+02  0.18837492330E+03  0.21541461996E+03  0.47000000000E+01 0. -1.
        -13    1    6    6    0    0  0.18357924081E+02 -0.59956460447E+01  0.40880482360E+03  0.40926072979E+03  0.00000000000E+00 0.  1.
         14    1    6    6    0    0  0.74246418975E+02 -0.26382555195E+02  0.27317890852E+03  0.28431546917E+03  0.00000000000E+00 0. -1.
         -5    1    3    3    0  503 -0.84234735351E+02 -0.22114447792E+02 -0.27509090649E+03  0.28858557877E+03  0.47000000000E+01 0.  1.
         11    1    4    4    0    0 -0.65897841128E+02  0.84971224385E+02 -0.72357691817E+03  0.73152319918E+03  0.00000000000E+00 0. -1.
        -12    1    4    4    0    0 -0.19734333772E+02  0.39712253628E+02 -0.97164375852E+02  0.10680553802E+03  0.00000000000E+00 0.  1.
</event>
<event>
12    1  0.8271773E-002  0.1990704E+03  0.7818608E-02  0.1150578E+00
         21   -1    0    0  503  502  0.00000000000E+00  0.00000000000E+00  0.87043964138E+03  0.87043964138E+03  0.00000000000E+00 0. -1.
         21   -1    0    0  501  503 -0.00000000000E+00 -0.00000000000E+00 -0.71880534892E+02  0.71880534892E+02  0.00000000000E+00 0. -1.
          6    2    1    2  501    0 -0.42556147951E+00  0.99809343610E+02  0.11384615215E+03  0.22932505740E+03  0.17224096324E+03 0.  0.
         24    2    3    3    0    0 -0.42349263316E+02  0.13625469573E+01  0.56729774379E+02  0.10794244268E+03  0.81473842382E+02 0.  0.
         -6    2    1    2    0  502  0.42556147951E+00 -0.99809343610E+02  0.68471295434E+03  0.71299511888E+03  0.17195384126E+03 0.  0.
        -24    2    5    5    0    0 -0.22396074442E+02 -0.58528642913E+02  0.63901749798E+03  0.64715373334E+03  0.80854224820E+02 0.  0.
          5    1    3    3  501    0  0.41923701836E+02  0.98446796653E+02  0.57116377768E+02  0.12138261472E+03  0.47000000000E+01 0. -1.
        -13    1    4    4    0    0  0.24600205823E+02 -0.18103127707E+01  0.17960847853E+02  0.30512938477E+02  0.00000000000E+00 0.  1.
         14    1    4    4    0    0 -0.66949469139E+02  0.31728597279E+01  0.38768926526E+02  0.77429504201E+02  0.00000000000E+00 0. -1.
         -5    1    5    5    0  502  0.22821635921E+02 -0.41280700698E+02  0.45695456368E+02  0.65841385533E+02  0.47000000000E+01 0.  1.
         11    1    6    6    0    0 -0.66052917760E+01 -0.77320805550E+02  0.47008681918E+03  0.47644911000E+03  0.00000000000E+00 0. -1.
        -12    1    6    6    0    0 -0.15790782666E+02  0.18792162638E+02  0.16893067880E+03  0.17070462335E+03  0.00000000000E+00 0.  1.
</event>
<event>
12    1  0.8271773E-002  0.2567336E+03  0.7818608E-02  0.1109503E+00
         21   -1    0    0  501  502  0.00000000000E+00  0.00000000000E+00  0.27323475262E+03  0.27323475262E+03  0.00000000000E+00 0.  1.
         21   -1    0    0  502  503 -0.00000000000E+00 -0.00000000000E+00 -0.26933404505E+03  0.26933404505E+03  0.00000000000E+00 0. -1.
         -6    2    1    2    0  503 -0.18607794138E+03 -0.40850768552E+02 -0.89251608327E+02  0.26945806239E+03  0.16836867950E+03 0.  0.
        -24    2    3    3    0    0 -0.35475008460E+02 -0.58060918743E+00 -0.69930509260E+02  0.11230105806E+03  0.80389291476E+02 0.  0.
          6    2    1    2  501    0  0.18607794138E+03  0.40850768552E+02  0.93152315894E+02  0.27311073528E+03  0.17209977981E+03 0.  0.
         24    2    5    5    0    0  0.21201141150E+03  0.41711468499E+02  0.79457652600E+02  0.24339677426E+03  0.78992315787E+02 0.  0.
          5    1    5    5  501    0 -0.25933470119E+02 -0.86069994669E+00  0.13694663294E+02  0.29713961021E+02  0.47000000000E+01 0. -1.
        -13    1    6    6    0    0  0.76900715095E+02  0.53838471053E+02  0.40681307126E+02  0.10230967548E+03  0.00000000000E+00 0.  1.
         14    1    6    6    0    0  0.13511069641E+03 -0.12127002553E+02  0.38776345474E+02  0.14108709878E+03  0.00000000000E+00 0. -1.
         -5    1    3    3    0  503 -0.15060293292E+03 -0.40270159365E+02 -0.19321099067E+02  0.15715700433E+03  0.47000000000E+01 0.  1.
         13    1    4    4    0    0 -0.61198349581E+02 -0.62474217340E+01 -0.49882146033E+02  0.79199095718E+02  0.00000000000E+00 0. -1.
        -14    1    4    4    0    0  0.25723341121E+02  0.56668125465E+01 -0.20048363227E+02  0.33101962343E+02  0.00000000000E+00 0.  1.
</event>
<event>
12    1  0.8271773E-002  0.1996700E+03  0.7818608E-02  0.1150308E+00
         21   -1    0    0  503  502  0.00000000000E+00  0.00000000000E+00  0.66300217764E+02  0.66300217764E+02  0.00000000000E+00 0.  1.
         21   -1    0    0  501  503 -0.00000000000E+00 -0.00000000000E+00 -0.12002176866E+04  0.12002176866E+04  0.00000000000E+00 0.  1.
          6    2    1    2  501    0 -0.44288569924E+02  0.85015862878E+02 -0.10167839158E+04  0.10362034682E+04  0.17515399412E+03 0.  0.
         24    2    3    3    0    0 -0.34814162596E+01  0.78551270984E+02 -0.33814387312E+03  0.35629067063E+03  0.80120787658E+02 0.  0.
         -6    2    1    2    0  502  0.44288569924E+02 -0.85015862878E+02 -0.11713355308E+03  0.23031443624E+03  0.17359520706E+03 0.  0.
        -24    2    5    5    0    0  0.81942038534E+02 -0.57446925552E+02 -0.29986173496E+02  0.13134683663E+03  0.79612649478E+02 0.  0.
          5    1    3    3  501    0 -0.40807153665E+02  0.64645918940E+01 -0.67864004267E+03  0.67991279754E+03  0.47000000000E+01 0. -1.
        -11    1    4    4    0    0 -0.59022396631E+00  0.87356808106E+01 -0.21123843028E+03  0.21141980728E+03  0.00000000000E+00 0.  1.
         12    1    4    4    0    0 -0.28911922932E+01  0.69815590173E+02 -0.12690544284E+03  0.14487086334E+03  0.00000000000E+00 0. -1.
         -5    1    5    5    0  502 -0.37653468609E+02 -0.27568937326E+02 -0.87147379585E+02  0.98967599608E+02  0.47000000000E+01 0.  1.
         13    1    6    6    0    0  0.37645136031E+02 -0.45566458393E+02 -0.53575532180E+02  0.79773404376E+02  0.00000000000E+00 0. -1.
        -14    1    6    6    0    0  0.44296902503E+02 -0.11880467158E+02  0.23589358684E+02  0.51573432253E+02  0.00000000000E+00 0.  1.
</event>
<event>
12    1  0.8271773E-002  0.2037465E+03  0.7818608E-02  0.1146805E+00
         21   -1    0    0  503  502  0.00000000000E+00  0.00000000000E+00  0.78040160872E+03  0.78040160872E+03  0.00000000000E+00 0. -1.
         21   -1    0    0  501  503 -0.00000000000E+00 -0.00000000000E+00 -0.70183760827E+02  0.70183760827E+02  0.00000000000E+00 0. -1.
          6    2    1    2  501    0  0.57988374860E+02 -0.89097443434E+02  0.14379368672E+03  0.24863107996E+03  0.17274195650E+03 0.  0.
         24    2    3    3    0    0  0.16957222008E+02 -0.12030876661E+03  0.13107638690E+03  0.19532515239E+03  0.78798155144E+02 0.  0.
         -6    2    1    2    0  502 -0.57988374860E+02  0.89097443434E+02  0.56642416117E+03  0.60195428959E+03  0.17381493131E+03 0.  0.
        -24    2    5    5    0    0 -0.13265508901E+02  0.11522014383E+03  0.31375834484E+03  0.34399182147E+03  0.80214830352E+02 0.  0.
          5    1    3    3  501    0  0.41031152852E+02  0.31211323175E+02  0.12717299820E+02  0.53305927563E+02  0.47000000000E+01 0. -1.
        -13    1    4    4    0    0 -0.20727787184E+02 -0.14507258554E+02  0.52427465015E+02  0.58212892045E+02  0.00000000000E+00 0.  1.
         14    1    4    4    0    0  0.37685009193E+02 -0.10580150806E+03  0.78648921883E+02  0.13711226035E+03  0.00000000000E+00 0. -1.
         -5    1    5    5    0  502 -0.44722865959E+02 -0.26122700397E+02  0.25266581633E+03  0.25796246812E+03  0.47000000000E+01 0.  1.
         11    1    6    6    0    0 -0.33562502772E+02  0.21014457290E+02  0.54223080592E+02  0.67143067225E+02  0.00000000000E+00 0. -1.
        -12    1    6    6    0    0  0.20296993871E+02  0.94205686541E+02  0.25953526425E+03  0.27684875424E+03  0.00000000000E+00 0.  1.
</event>
<event>
12    1  0.8271773E-002  0.3137675E+03  0.7818608E-02  0.1078782E+00
         21   -1    0    0  501  502  0.00000000000E+00  0.00000000000E+00  0.20108644837E+03  0.20108644837E+03  0.00000000000E+00 0. -1.
         21   -1    0    0  502  503 -0.00000000000E+00 -0.00000000000E+00 -0.54491951067E+03  0.54491951067E+03  0.00000000000E+00 0.  1.
         -6    2    1    2    0  503 -0.22674221876E+03 -0.12582118605E+03 -0.29348059478E+03  0.42822391724E+03  0.17321044759E+03 0.  0.
        -24    2    3    3    0    0 -0.12641277048E+03 -0.14283632012E+03 -0.16969501116E+03  0.26791024442E+03  0.81222529909E+02 0.  0.
          6    2    1    2  501    0  0.22674221876E+03  0.12582118605E+03 -0.50352467518E+02  0.31778204180E+03  0.17665517393E+03 0.  0.
         24    2    5    5    0    0  0.14503293101E+03  0.15423300475E+03 -0.47670282387E+02  0.23110492104E+03  0.79464821601E+02 0.  0.
          5    1    5    5  501    0  0.81709287746E+02 -0.28411818704E+02 -0.26821851310E+01  0.86677120759E+02  0.47000000000E+01 0. -1.
        -13    1    6    6    0    0  0.54448252416E+00  0.54272262293E+01 -0.21341757257E+02  0.22027751782E+02  0.00000000000E+00 0.  1.
         14    1    6    6    0    0  0.14448844849E+03  0.14880577852E+03 -0.26328525130E+02  0.20907716926E+03  0.00000000000E+00 0. -1.
         -5    1    3    3    0  503 -0.10032944828E+03  0.17015134074E+02 -0.12378558363E+03  0.16031367282E+03  0.47000000000E+01 0.  1.
         13    1    4    4    0    0 -0.12935684955E+02 -0.55027116079E+02 -0.18518541516E+02  0.59483206278E+02  0.00000000000E+00 0. -1.
        -14    1    4    4    0    0 -0.11347708552E+03 -0.87809204045E+02 -0.15117646964E+03  0.20842703814E+03  0.00000000000E+00 0.  1.
</event>
<event>
12    1  0.8271773E-002  0.3950496E+03  0.7818608E-02  0.1045815E+00
         21   -1    0    0  501  502  0.00000000000E+00  0.00000000000E+00  0.39958397557E+03  0.39958397557E+03  0.00000000000E+00 0. -1.
         21   -1    0    0  502  503 -0.00000000000E+00 -0.00000000000E+00 -0.40081718412E+03  0.40081718412E+03  0.00000000000E+00 0.  1.
         -6    2    1    2    0  503 -0.35133371389E+03 -0.50565950182E+02 -0.74547341765E+02  0.39860620870E+03  0.16533998191E+03 0.  0.
        -24    2    3    3    0    0 -0.14892717278E+03 -0.79224273159E+02 -0.24190404083E+02  0.18801746605E+03  0.79433013539E+02 0.  0.
          6    2    1    2  501    0  0.35133371389E+03  0.50565950182E+02  0.73314133210E+02  0.40179495098E+03  0.17341259087E+03 0.  0.
         24    2    5    5    0    0  0.87199626483E+02  0.57185594190E+02  0.82607076582E+01  0.12964669360E+03  0.76590200614E+02 0.  0.
          5    1    5    5  501    0  0.26413408741E+03 -0.66196440080E+01  0.65053425552E+02  0.27214825738E+03  0.47000000000E+01 0. -1.
        -13    1    6    6    0    0  0.12490447357E+02 -0.46458316706E+01 -0.23993749266E+02  0.27446220704E+02  0.00000000000E+00 0.  1.
         14    1    6    6    0    0  0.74709179126E+02  0.61831425860E+02  0.32254456924E+02  0.10220047290E+03  0.00000000000E+00 0. -1.
         -5    1    3    3    0  503 -0.20240654111E+03  0.28658322977E+02 -0.50356937682E+02  0.21058874265E+03  0.47000000000E+01 0.  1.
         13    1    4    4    0    0 -0.10044173844E+03 -0.99636541515E+01 -0.22716967303E+02  0.10345954682E+03  0.00000000000E+00 0. -1.
        -14    1    4    4    0    0 -0.48485434344E+02 -0.69260619008E+02 -0.14734367801E+01  0.84557919232E+02  0.00000000000E+00 0.  1.
</event>
<event>
12    1  0.8271773E-002  0.1773977E+03  0.7818608E-02  0.1171949E+00
         21   -1    0    0  503  502  0.00000000000E+00  0.00000000000E+00  0.10033674389E+03  0.10033674389E+03  0.00000000000E+00 0. -1.
         21   -1    0    0  501  503 -0.00000000000E+00 -0.00000000000E+00 -0.39765701617E+03  0.39765701617E+03  0.00000000000E+00 0. -1.
          6    2    1    2  501    0  0.25314589298E+02 -0.33914688214E+02 -0.26839665610E+03  0.31825360752E+03  0.16570322624E+03 0.  0.
         24    2    3    3    0    0 -0.22564218656E+02  0.95312886263E+01 -0.22572978690E+03  0.24064893703E+03  0.79736972431E+02 0.  0.
         -6    2    1    2    0  502 -0.25314589298E+02  0.33914688214E+02 -0.28923616177E+02  0.17974015254E+03  0.17227568707E+03 0.  0.
        -24    2    5    5    0    0 -0.11186270141E+02  0.18624089900E+02 -0.85748152004E+02  0.11903982576E+03  0.79660185673E+02 0.  0.
          5    1    3    3  501    0  0.47878807954E+02 -0.43445976840E+02 -0.42666869199E+02  0.77604670491E+02  0.47000000000E+01 0. -1.
        -13    1    4    4    0    0 -0.29447571063E+02  0.13859643523E+02 -0.28527089709E+02  0.43278678438E+02  0.00000000000E+00 0.  1.
         14    1    4    4    0    0  0.68833524067E+01 -0.43283548970E+01 -0.19720269719E+03  0.19737025859E+03  0.00000000000E+00 0. -1.
         -5    1    5    5    0  502 -0.14128319157E+02  0.15290598314E+02  0.56824535827E+02  0.60700326778E+02  0.47000000000E+01 0.  1.
         11    1    6    6    0    0 -0.15944447129E+02  0.42134198890E+02 -0.20448207406E+02  0.49473682867E+02  0.00000000000E+00 0. -1.
        -12    1    6    6    0    0  0.47581769884E+01 -0.23510108990E+02 -0.65299944598E+02  0.69566142896E+02  0.00000000000E+00 0.  1.
</event>
<event>
12    1  0.8271773E-002  0.1835470E+03  0.7818608E-02  0.1165225E+00
         21   -1    0    0  501  502  0.00000000000E+00  0.00000000000E+00  0.79878601959E+02  0.79878601959E+02  0.00000000000E+00 0. -1.
         21   -1    0    0  502  503 -0.00000000000E+00 -0.00000000000E+00 -0.88790755395E+03  0.88790755395E+03  0.00000000000E+00 0. -1.
         -6    2    1    2    0  503  0.58098490171E+01 -0.62144913050E+02 -0.75929778036E+03  0.78116747209E+03  0.17260867771E+03 0.  0.
        -24    2    3    3    0    0 -0.48889276924E+02  0.65225008072E+01 -0.44325370838E+03  0.45312303372E+03  0.80087010715E+02 0.  0.
          6    2    1    2  501    0 -0.58098490171E+01  0.62144913050E+02 -0.48731171624E+02  0.18661868382E+03  0.16898538842E+03 0.  0.
         24    2    5    5    0    0 -0.21792726762E+02  0.48304296714E+02 -0.97848399012E+02  0.13293808147E+03  0.72732360722E+02 0.  0.
          5    1    5    5  501    0  0.15982877745E+02  0.13840616336E+02  0.49117227388E+02  0.53680602342E+02  0.47000000000E+01 0. -1.
        -11    1    6    6    0    0 -0.31453506581E+02  0.59188805429E+02 -0.51993276843E+02  0.84828878345E+02  0.00000000000E+00 0.  1.
         12    1    6    6    0    0  0.96607798189E+01 -0.10884508715E+02 -0.45855122169E+02  0.48109203130E+02  0.00000000000E+00 0. -1.
         -5    1    3    3    0  503  0.54699125941E+02 -0.68667413857E+02 -0.31604407199E+03  0.32804443836E+03  0.47000000000E+01 0.  1.
         13    1    4    4    0    0 -0.48738087150E+00 -0.10154238768E+02 -0.31307022254E+03  0.31323523165E+03  0.00000000000E+00 0. -1.
        -14    1    4    4    0    0 -0.48401896052E+02  0.16676739575E+02 -0.13018348584E+03  0.13988780207E+03  0.00000000000E+00 0.  1.
</event>
<event>
12    1  0.8271773E-002  0.2274718E+03  0.7818608E-02  0.1128501E+00
         21   -1    0    0  501  502  0.00000000000E+00  0.00000000000E+00  0.62336220731E+02  0.62336220731E+02  0.00000000000E+00 0. -1.
         21   -1    0    0  502  503 -0.00000000000E+00 -0.00000000000E+00 -0.10967835139E+04  0.10967835139E+04  0.00000000000E+00 0. -1.
         -6    2    1    2    0  503  0.12625414444E+03  0.80709527094E+02 -0.80411046549E+03  0.83566564784E+03  0.17114116257E+03 0.  0.
        -24    2    3    3    0    0  0.12367921439E+03  0.63806809900E+01 -0.61001412977E+03  0.62775488533E+03  0.81373806473E+02 0.  0.
          6    2    1    2  501    0 -0.12625414444E+03 -0.80709527094E+02 -0.23033682772E+03  0.32345408683E+03  0.17062636176E+03 0.  0.
         24    2    5    5    0    0 -0.12192293796E+02 -0.42839450503E+02 -0.40715146567E+02  0.98904046887E+02  0.78360811527E+02 0.  0.
          5    1    5    5  501    0 -0.11406185065E+03 -0.37870076591E+02 -0.18962168116E+03  0.22455003994E+03  0.47000000000E+01 0. -1.
        -13    1    6    6    0    0  0.20194531542E+02 -0.51797511308E+02 -0.18376047415E+02  0.58553227072E+02  0.00000000000E+00 0.  1.
         14    1    6    6    0    0 -0.32386825337E+02  0.89580608053E+01 -0.22339099152E+02  0.40350819815E+02  0.00000000000E+00 0. -1.
         -5    1    3    3    0  503  0.25749300503E+01  0.74328846104E+02 -0.19409633571E+03  0.20791076251E+03  0.47000000000E+01 0.  1.
         11    1    4    4    0    0  0.65649074412E+02  0.39457355170E+02 -0.24548667578E+03  0.25715830112E+03  0.00000000000E+00 0. -1.
        -12    1    4    4    0    0  0.58030139980E+02 -0.33076674180E+02 -0.36452745399E+03  0.37059658422E+03  0.00000000000E+00 0.  1.
</event>
<event>
12    1  0.8271773E-002  0.2923199E+03  0.7818608E-02  0.1089252E+00
         21   -1    0    0  503  502  0.00000000000E+00  0.00000000000E+00  0.56510595576E+03  0.56510595576E+03  0.00000000000E+00 0. -1.
         21   -1    0    0  501  503 -0.00000000000E+00 -0.00000000000E+00 -0.20371643289E+03  0.20371643289E+03  0.00000000000E+00 0. -1.
          6    2    1    2  501    0  0.21887675087E+03  0.88117470981E+02 -0.15069243124E+02  0.29270801497E+03  0.17256644857E+03 0.  0.
         24    2    3    3    0    0  0.15404214189E+03  0.33197303068E+02 -0.72959666921E+02  0.18978502175E+03  0.76578058700E+02 0.  0.
         -6    2    1    2    0  502 -0.21887675087E+03 -0.88117470981E+02  0.37645876599E+03  0.47611437369E+03  0.17114898065E+03 0.  0.
        -24    2    5    5    0    0 -0.17856014781E+03 -0.34823634413E+01  0.22895316333E+03  0.30127581179E+03  0.80322540604E+02 0.  0.
          5    1    3    3  501    0  0.64834608981E+02  0.54920167912E+02  0.57890423797E+02  0.10292299322E+03  0.47000000000E+01 0. -1.
        -11    1    4    4    0    0  0.51602364036E+02 -0.47147413236E+01  0.98095816285E+01  0.52737658760E+02  0.00000000000E+00 0.  1.
         12    1    4    4    0    0  0.10243977785E+03  0.37912044392E+02 -0.82769248550E+02  0.13704736299E+03  0.00000000000E+00 0. -1.
         -5    1    5    5    0  502 -0.40316603059E+02 -0.84635107539E+02  0.14750560266E+03  0.17483856190E+03  0.47000000000E+01 0.  1.
         13    1    6    6    0    0 -0.16101178577E+03 -0.29785701241E+02  0.19916416594E+03  0.25783395461E+03  0.00000000000E+00 0. -1.
        -14    1    6    6    0    0 -0.17548362044E+02  0.26303337799E+02  0.29788997384E+02  0.43441857177E+02  0.00000000000E+00 0.  1.
</event>
<event>
12    1  0.8271773E-002  0.1722888E+03  0.7818608E-02  0.1175525E+00
         21   -1    0    0  503  502  0.00000000000E+00  0.00000000000E+00  0.26059618125E+02  0.26059618125E+02  0.00000000000E+00 0.  1.
         21   -1    0    0  501  503 -0.00000000000E+00 -0.00000000000E+00 -0.13862629592E+04  0.13862629592E+04  0.00000000000E+00 0.  1.
          6    2    1    2  501    0 -0.18858996768E+01 -0.87066730280E+01 -0.97869647892E+03  0.99371666184E+03  0.17189137091E+03 0.  0.
         24    2    3    3    0    0 -0.74410384272E+01 -0.72009808112E+02 -0.62837936974E+03  0.63765162078E+03  0.80611262580E+02 0.  0.
         -6    2    1    2    0  502  0.18858996768E+01  0.87066730280E+01 -0.38150686220E+03  0.41860591553E+03  0.17205831523E+03 0.  0.
        -24    2    5    5    0    0  0.16845890158E+02  0.74950910269E+02 -0.23511487151E+03  0.25715993317E+03  0.70361960294E+02 0.  0.
          5    1    3    3  501    0  0.55551387504E+01  0.63303135084E+02 -0.35031710918E+03  0.35606504106E+03  0.47000000000E+01 0. -1.
        -13    1    4    4    0    0  0.32941277411E+02 -0.12357626140E+02 -0.16528409954E+03  0.16898719549E+03  0.00000000000E+00 0.  1.
         14    1    4    4    0    0 -0.40382315838E+02 -0.59652181972E+02 -0.46309527020E+03  0.46866442529E+03  0.00000000000E+00 0. -1.
         -5    1    5    5    0  502 -0.14959990481E+02 -0.66244237241E+02 -0.14639199069E+03  0.16144598236E+03  0.47000000000E+01 0.  1.
         13    1    6    6    0    0  0.23772731571E+02 -0.24278053457E+01 -0.33965408429E+02  0.41529338725E+02  0.00000000000E+00 0. -1.
        -14    1    6    6    0    0 -0.69268414138E+01  0.77378715615E+02 -0.20114946308E+03  0.21563059444E+03  0.00000000000E+00 0.  1.
</event>
<event>
12    1  0.8271773E-002  0.2123624E+03  0.7818608E-02  0.1139744E+00
         21   -1    0    0  501  502  0.00000000000E+00  0.00000000000E+00  0.14538418228E+03  0.14538418228E+03  0.00000000000E+00 0. -1.
         21   -1    0    0  502  503 -0.00000000000E+00 -0.00000000000E+00 -0.31179827586E+03  0.31179827586E+03  0.00000000000E+00 0. -1.
         -6    2    1    2    0  503 -0.63977071472E+02 -0.10721580858E+03 -0.65581702430E+02  0.22225831684E+03  0.17178330660E+03 0.  0.
        -24    2    3    3    0    0 -0.28162319244E+02 -0.98458106777E+02 -0.10535115069E+03  0.16782401853E+03  0.81110549428E+02 0.  0.
          6    2    1    2  501    0  0.63977071472E+02  0.10721580858E+03 -0.10083239115E+03  0.23492414130E+03  0.17156306647E+03 0.  0.
         24    2    5    5    0    0  0.30343793960E+02  0.89388668391E+02  0.35483887600E+01  0.12371963825E+03  0.79892915563E+02 0.  0.
          5    1    5    5  501    0  0.33633277512E+02  0.17827140191E+02 -0.10438077991E+03  0.11120450305E+03  0.47000000000E+01 0. -1.
        -13    1    6    6    0    0  0.42813656256E+01  0.95090464952E+02  0.11505051812E+02  0.95879574642E+02  0.00000000000E+00 0.  1.
         14    1    6    6    0    0  0.26062428335E+02 -0.57017965610E+01 -0.79566630523E+01  0.27840063607E+02  0.00000000000E+00 0. -1.
         -5    1    3    3    0  503 -0.35814752229E+02 -0.87577018049E+01  0.39769448257E+02  0.54434298312E+02  0.47000000000E+01 0.  1.
         11    1    4    4    0    0 -0.49649347407E+02 -0.28117482145E+02 -0.47795193716E+02  0.74431384795E+02  0.00000000000E+00 0. -1.
        -12    1    4    4    0    0  0.21487028163E+02 -0.70340624631E+02 -0.57555956971E+02  0.93392633733E+02  0.00000000000E+00 0.  1.
</event>
<event>
12    1  0.8271773E-002  0.1766830E+03  0.7818608E-02  0.1172796E+00
         21   -1    0    0  503  502  0.00000000000E+00  0.00000000000E+00  0.29823714275E+03  0.29823714275E+03  0.00000000000E+00 0. -1.
         21   -1    0    0  501  503 -0.00000000000E+00 -0.00000000000E+00 -0.10720553224E+03  0.10720553224E+03  0.00000000000E+00 0. -1.
          6    2    1    2  501    0 -0.23226253829E+02  0.29110574899E+02  0.43546238677E+02  0.17529315588E+03  0.16566391024E+03 0.  0.
         24    2    3    3    0    0  0.18288556024E+02  0.35773029293E+02  0.80063251670E+02  0.11940532201E+03  0.78951413865E+02 0.  0.
         -6    2    1    2    0  502  0.23226253829E+02 -0.29110574899E+02  0.14748537183E+03  0.23014951911E+03  0.17271358315E+03 0.  0.
        -24    2    5    5    0    0  0.45360595339E+02 -0.74063270621E+02  0.66420034129E+02  0.13473278628E+03  0.78729607527E+02 0.  0.
          5    1    3    3  501    0 -0.41514809853E+02 -0.66624543945E+01 -0.36517012993E+02  0.55887833861E+02  0.47000000000E+01 0. -1.
        -11    1    4    4    0    0  0.44896078185E+02  0.15372291467E+01  0.35792573787E+02  0.57438047043E+02  0.00000000000E+00 0.  1.
         12    1    4    4    0    0 -0.26607522161E+02  0.34235800147E+02  0.44270677882E+02  0.61967274971E+02  0.00000000000E+00 0. -1.
         -5    1    5    5    0  502 -0.22134341511E+02  0.44952695722E+02  0.81065337702E+02  0.95416732828E+02  0.47000000000E+01 0.  1.
         13    1    6    6    0    0  0.55878826417E+02 -0.28688677963E+02  0.61480439771E+02  0.87893844832E+02  0.00000000000E+00 0. -1.
        -14    1    6    6    0    0 -0.10518231077E+02 -0.45374592657E+02  0.49395943580E+01  0.46838941451E+02  0.00000000000E+00 0.  1.
</event>
<event>
12    1  0.8271773E-002  0.2134164E+03  0.7818608E-02  0.1139230E+00
         21   -1    0    0  503  502  0.00000000000E+00  0.00000000000E+00  0.90641870622E+03  0.90641870622E+03  0.00000000000E+00 0. -1.
         21   -1    0    0  501  503 -0.00000000000E+00 -0.00000000000E+00 -0.54308356249E+02  0.54308356249E+02  0.00000000000E+00 0.  1.
          6    2    1    2  501    0 -0.30265764526E+02 -0.12289342276E+03  0.28662080918E+03  0.35630585028E+03  0.16965718620E+03 0.  0.
         24    2    3    3    0    0 -0.71040264092E+02 -0.70451653988E+02  0.12267058545E+03  0.17934691497E+03  0.84303550942E+02 0.  0.
         -6    2    1    2    0  502  0.30265764526E+02  0.12289342276E+03  0.56548954078E+03  0.60442121218E+03  0.17183646627E+03 0.  0.
        -24    2    5    5    0    0  0.58696294667E+02  0.14378383953E+03  0.42719664045E+03  0.46162162941E+03  0.80489201814E+02 0.  0.
          5    1    3    3  501    0  0.40774499565E+02 -0.52441768767E+02  0.16395022373E+03  0.17695893532E+03  0.47000000000E+01 0. -1.
        -11    1    4    4    0    0 -0.75653853985E+02 -0.62931803034E+02  0.13320100982E+03  0.16560925842E+03  0.00000000000E+00 0.  1.
         12    1    4    4    0    0  0.46135898928E+01 -0.75198509545E+01 -0.10530424370E+02  0.13737656550E+02  0.00000000000E+00 0. -1.
         -5    1    5    5    0  502 -0.28430530141E+02 -0.20890416779E+02  0.13829290033E+03  0.14279958277E+03  0.47000000000E+01 0.  1.
         11    1    6    6    0    0  0.78942511425E+02  0.11417393732E+03  0.34897041534E+03  0.37556352173E+03  0.00000000000E+00 0. -1.
        -12    1    6    6    0    0 -0.20246216758E+02  0.29609902219E+02  0.78226225110E+02  0.86058107679E+02  0.00000000000E+00 0.  1.
</event>
<event>
12    1  0.8271773E-002  0.1808359E+03  0.7818608E-02  0.1168687E+00
         21   -1    0    0  503  502  0.00000000000E+00  0.00000000000E+00  0.12162292104E+04  0.12162292104E+04  0.00000000000E+00 0. -1.
         21   -1    0    0  501  503 -0.00000000000E+00 -0.00000000000E+00 -0.84798922758E+02  0.84798922758E+02  0.00000000000E+00 0.  1.
          6    2    1    2  501    0 -0.45899462687E+02 -0.35697170757E+02  0.11112978298E+04  0.11259149629E+04  0.17123255715E+03 0.  0.
         24    2    3    3    0    0 -0.72667236244E+02 -0.72575324627E+02  0.92030596770E+03  0.92950596795E+03  0.80439824069E+02 0.  0.
         -6    2    1    2    0  502  0.45899462687E+02  0.35697170757E+02  0.20132457860E+02  0.17511317021E+03  0.16394589915E+03 0.  0.
        -24    2    5    5    0    0  0.84114702856E+01 -0.39940929986E+02  0.15187981582E+02  0.90419547645E+02  0.79240072510E+02 0.  0.
          5    1    3    3  501    0  0.26767773557E+02  0.36878153871E+02  0.19099186207E+03  0.19640899499E+03  0.47000000000E+01 0. -1.
        -11    1    4    4    0    0 -0.41567348687E+02 -0.80536334217E+02  0.79515132314E+03  0.80029967656E+03  0.00000000000E+00 0.  1.
         12    1    4    4    0    0 -0.31099887557E+02  0.79610095895E+01  0.12515464456E+03  0.12920629139E+03  0.00000000000E+00 0. -1.
         -5    1    5    5    0  502  0.37487992401E+02  0.75638100742E+02  0.49444762782E+01  0.84693622569E+02  0.47000000000E+01 0.  1.
         13    1    6    6    0    0 -0.32852218696E+02 -0.19805084295E+01  0.81930534016E+01  0.33916320716E+02  0.00000000000E+00 0. -1.
        -14    1    6    6    0    0  0.41263688982E+02 -0.37960421556E+02  0.69949281801E+01  0.56503226929E+02  0.00000000000E+00 0.  1.
</event>
<event>
12    1  0.8271773E-002  0.2124552E+03  0.7818608E-02  0.1140211E+00
         21   -1    0    0  501  502  0.00000000000E+00  0.00000000000E+00  0.23835616059E+03  0.23835616059E+03  0.00000000000E+00 0. -1.
         21   -1    0    0  502  503 -0.00000000000E+00 -0.00000000000E+00 -0.27283871353E+03  0.27283871353E+03  0.00000000000E+00 0.  1.
         -6    2    1    2    0  503  0.11707647022E+03 -0.18307357760E+02 -0.16071326825E+03  0.26406858873E+03  0.17280453043E+03 0.  0.
        -24    2    3    3    0    0  0.76340844726E+02  0.73018029247E+01 -0.17716482126E+02  0.11312028256E+03  0.81247053408E+02 0.  0.
          6    2    1    2  501    0 -0.11707647022E+03  0.18307357760E+02  0.12623071531E+03  0.24712628539E+03  0.17633816438E+03 0.  0.
         24    2    5    5    0    0 -0.11804151620E+03 -0.36971559903E+02  0.12770768207E+03  0.19161987601E+03  0.71471875829E+02 0.  0.
          5    1    5    5  501    0  0.96504597856E+00  0.55278917662E+02 -0.14769667557E+01  0.55506409382E+02  0.47000000000E+01 0. -1.
        -11    1    6    6    0    0 -0.43218163525E+02 -0.34004563199E+02  0.16248539610E+02  0.57342262043E+02  0.00000000000E+00 0.  1.
         12    1    6    6    0    0 -0.74823352674E+02 -0.29669967041E+01  0.11145914246E+03  0.13427761397E+03  0.00000000000E+00 0. -1.
         -5    1    3    3    0  503  0.40735625495E+02 -0.25609160684E+02 -0.14299678612E+03  0.15094830617E+03  0.47000000000E+01 0.  1.
         13    1    4    4    0    0  0.65690824608E+02 -0.26724977926E+02  0.45824064661E+01  0.71066921502E+02  0.00000000000E+00 0. -1.
        -14    1    4    4    0    0  0.10650020118E+02  0.34026780851E+02 -0.22298888592E+02  0.42053361055E+02  0.00000000000E+00 0.  1.
</event>
<event>
12    1  0.8271773E-002  0.2443999E+03  0.7818608E-02  0.1117227E+00
         21   -1    0    0  501  502  0.00000000000E+00  0.00000000000E+00  0.25148679398E+03  0.25148679398E+03  0.00000000000E+00 0. -1.
         21   -1    0    0  502  503 -0.00000000000E+00 -0.00000000000E+00 -0.23556695118E+03  0.23556695118E+03  0.00000000000E+00 0. -1.
         -6    2    1    2    0  503  0.25386291876E+02 -0.17106641702E+03  0.10185694165E+02  0.24461207970E+03  0.17269377037E+03 0.  0.
        -24    2    3    3    0    0 -0.18776576885E+02 -0.14843969434E+03 -0.39344456488E+02  0.17434364169E+03  0.80379204066E+02 0.  0.
          6    2    1    2  501    0 -0.25386291876E+02  0.17106641702E+03  0.57341486358E+01  0.24244166546E+03  0.16981430400E+03 0.  0.
         24    2    5    5    0    0  0.18667120739E+02  0.83722841503E+02 -0.54957242062E+02  0.12722387928E+03  0.76207882913E+02 0.  0.
          5    1    5    5  501    0 -0.44053412615E+02  0.87343575513E+02  0.60691390698E+02  0.11521778618E+03  0.47000000000E+01 0. -1.
        -11    1    6    6    0    0 -0.15077224153E+02 -0.59338216769E+01 -0.18829624793E+02  0.24841249922E+02  0.00000000000E+00 0.  1.
         12    1    6    6    0    0  0.33744344893E+02  0.89656663180E+02 -0.36127617269E+02  0.10238262936E+03  0.00000000000E+00 0. -1.
         -5    1    3    3    0  503  0.44162868760E+02 -0.22626722673E+02  0.49530150653E+02  0.70268438006E+02  0.47000000000E+01 0.  1.
         11    1    4    4    0    0  0.27068577766E+02 -0.97135743544E+02 -0.19160805223E+02  0.10264110791E+03  0.00000000000E+00 0. -1.
        -12    1    4    4    0    0 -0.45845154651E+02 -0.51303950799E+02 -0.20183651266E+02  0.71702533784E+02  0.00000000000E+00 0.  1.
</event>
<event>
12    1  0.8271773E-002  0.2235680E+03  0.7818608E-02  0.1131647E+00
         21   -1    0    0  501  502  0.00000000000E+00  0.00000000000E+00  0.52180808387E+03  0.52180808387E+03  0.00000000000E+00 0. -1.
         21   -1    0    0  502  503 -0.00000000000E+00 -0.00000000000E+00 -0.10158810489E+03  0.10158810489E+03  0.00000000000E+00 0. -1.
         -6    2    1    2    0  503  0.45668201577E+02  0.13102876124E+03  0.28935038484E+03  0.36434119980E+03  0.17253041401E+03 0.  0.
        -24    2    3    3    0    0  0.39198346944E+02  0.99484357134E+02  0.83797217274E+02  0.15622800189E+03  0.77146401296E+02 0.  0.
          6    2    1    2  501    0 -0.45668201577E+02 -0.13102876124E+03  0.13086959414E+03  0.25905498896E+03  0.17529550971E+03 0.  0.
         24    2    5    5    0    0 -0.65823289236E+02 -0.14749046263E+02  0.49709447002E+02  0.11575021180E+03  0.79855135326E+02 0.  0.
          5    1    5    5  501    0  0.20155087658E+02 -0.11627971497E+03  0.81160147143E+02  0.14330477716E+03  0.47000000000E+01 0. -1.
        -13    1    6    6    0    0 -0.78562873202E+02 -0.30482804819E+02  0.39211903792E+02  0.92945682171E+02  0.00000000000E+00 0.  1.
         14    1    6    6    0    0  0.12739583966E+02  0.15733758556E+02  0.10497543210E+02  0.22804529624E+02  0.00000000000E+00 0. -1.
         -5    1    3    3    0  503  0.64698546333E+01  0.31544404103E+02  0.20555316756E+03  0.20811319791E+03  0.47000000000E+01 0.  1.
         13    1    4    4    0    0 -0.22408138121E+02  0.27894362602E+02  0.34432863373E+02  0.49657247196E+02  0.00000000000E+00 0. -1.
        -14    1    4    4    0    0  0.61606485065E+02  0.71589994532E+02  0.49364353901E+02  0.10657075469E+03  0.00000000000E+00 0.  1.
</event>
<event>
12    1  0.8271773E-002  0.2010058E+03  0.7818608E-02  0.1149245E+00
         21   -1    0    0  503  502  0.00000000000E+00  0.00000000000E+00  0.15193177732E+03  0.15193177732E+03  0.00000000000E+00 0. -1.
         21   -1    0    0  501  503 -0.00000000000E+00 -0.00000000000E+00 -0.28622084650E+03  0.28622084650E+03  0.00000000000E+00 0.  1.
          6    2    1    2  501    0  0.80365674602E+02  0.63765981920E+02 -0.12830625349E+03  0.23705782774E+03  0.17090692468E+03 0.  0.
         24    2    3    3    0    0  0.52659298929E+02  0.85832276817E+02 -0.14833326305E+03  0.19609765519E+03  0.79444017636E+02 0.  0.
         -6    2    1    2    0  502 -0.80365674602E+02 -0.63765981920E+02 -0.59828156957E+01  0.20109479608E+03  0.17285421841E+03 0.  0.
        -24    2    5    5    0    0 -0.45327563873E+02 -0.52035863527E+02  0.62744228416E+02  0.12292343640E+03  0.80068807146E+02 0.  0.
          5    1    3    3  501    0  0.27706375673E+02 -0.22066294897E+02  0.20027009560E+02  0.40960172550E+02  0.47000000000E+01 0. -1.
        -13    1    4    4    0    0 -0.16687443491E+02  0.57385281254E+00 -0.31796645622E+02  0.35914158074E+02  0.00000000000E+00 0.  1.
         14    1    4    4    0    0  0.69346742420E+02  0.85258424004E+02 -0.11653661742E+03  0.16018349712E+03  0.00000000000E+00 0. -1.
         -5    1    5    5    0  502 -0.35038110729E+02 -0.11730118393E+02 -0.68727044112E+02  0.78171359674E+02  0.47000000000E+01 0.  1.
         11    1    6    6    0    0  0.13270518127E+02 -0.19862091948E+02  0.49232951959E+02  0.54721960002E+02  0.00000000000E+00 0. -1.
        -12    1    6    6    0    0 -0.58598082000E+02 -0.32173771579E+02  0.13511276457E+02  0.68201476400E+02  0.00000000000E+00 0.  1.
</event>
<event>
12    1  0.8271773E-002  0.2834152E+03  0.7818608E-02  0.1093999E+00
         21   -1    0    0  501  502  0.00000000000E+00  0.00000000000E+00  0.40983986264E+03  0.40983986264E+03  0.00000000000E+00 0. -1.
         21   -1    0    0  502  503 -0.00000000000E+00 -0.00000000000E+00 -0.19517604276E+03  0.19517604276E+03  0.00000000000E+00 0.  1.
         -6    2    1    2    0  503  0.14738264476E+03  0.16893701687E+03  0.10919377746E+03  0.30261200328E+03  0.17143332186E+03 0.  0.
        -24    2    3    3    0    0  0.10495864800E+03  0.17426070508E+03  0.13250225884E+03  0.25368846639E+03  0.73606237887E+02 0.  0.
          6    2    1    2  501    0 -0.14738264476E+03 -0.16893701687E+03  0.10547004242E+03  0.30240390213E+03  0.17338636200E+03 0.  0.
         24    2    5    5    0    0 -0.15558204901E+03 -0.85215862159E+02  0.54222807738E+02  0.20378934418E+03  0.84394708282E+02 0.  0.
          5    1    5    5  501    0  0.81994042419E+01 -0.83721154712E+02  0.51247234683E+02  0.98614557946E+02  0.47000000000E+01 0. -1.
        -11    1    6    6    0    0 -0.95087187919E+02 -0.61212291726E+02 -0.84951111635E+01  0.11340495967E+03  0.00000000000E+00 0.  1.
         12    1    6    6    0    0 -0.60494861088E+02 -0.24003570433E+02  0.62717918902E+02  0.90384384508E+02  0.00000000000E+00 0. -1.
         -5    1    3    3    0  503  0.42423996763E+02 -0.53236882067E+01 -0.23308481382E+02  0.48923536890E+02  0.47000000000E+01 0.  1.
         13    1    4    4    0    0  0.52091276470E+02  0.11918170942E+03  0.11873194002E+03  0.17611091541E+03  0.00000000000E+00 0. -1.
        -14    1    4    4    0    0  0.52867371532E+02  0.55078995657E+02  0.13770318815E+02  0.77577550977E+02  0.00000000000E+00 0.  1.
</event>
<event>
12    1  0.8271773E-002  0.1834596E+03  0.7818608E-02  0.1164713E+00
         21   -1    0    0  503  502  0.00000000000E+00  0.00000000000E+00  0.11216582651E+04  0.11216582651E+04  0.00000000000E+00 0.  1.
         21   -1    0    0  501  503 -0.00000000000E+00 -0.00000000000E+00 -0.86247584364E+02  0.86247584364E+02  0.00000000000E+00 0.  1.
          6    2    1    2  501    0 -0.11289957290E+02 -0.63276622260E+02  0.28903838875E+02  0.18481570686E+03  0.17085086930E+03 0.  0.
         24    2    3    3    0    0 -0.64668270983E+02 -0.71856004708E+02  0.50021736726E+01  0.12551790104E+03  0.79902759996E+02 0.  0.
         -6    2    1    2    0  502  0.11289957290E+02  0.63276622260E+02  0.10065068418E+04  0.10230901426E+04  0.17183137989E+03 0.  0.
        -24    2    5    5    0    0  0.57171687167E+02 -0.55488737898E+01  0.61819562643E+03  0.62603879570E+03  0.80370077620E+02 0.  0.
          5    1    3    3  501    0  0.53378313694E+02  0.85793824477E+01  0.23901665202E+02  0.59297805823E+02  0.47000000000E+01 0. -1.
        -13    1    4    4    0    0 -0.33180450521E+02  0.72092152822E+01 -0.16481873010E+02  0.37743439425E+02  0.00000000000E+00 0.  1.
         14    1    4    4    0    0 -0.31487820462E+02 -0.79065219990E+02  0.21484046683E+02  0.87774461613E+02  0.00000000000E+00 0. -1.
         -5    1    5    5    0  502 -0.45881729877E+02  0.68825496050E+02  0.38831121539E+03  0.39705134686E+03  0.47000000000E+01 0.  1.
         11    1    6    6    0    0 -0.18293723369E+01 -0.33362699601E+02  0.22575642447E+03  0.22821564258E+03  0.00000000000E+00 0. -1.
        -12    1    6    6    0    0  0.59001059503E+02  0.27813825812E+02  0.39243920195E+03  0.39782315312E+03  0.00000000000E+00 0.  1.
</event>
<event>
12    1  0.8271773E-002  0.1866795E+03  0.7818608E-02  0.1161540E+00
         21   -1    0    0  501  502  0.00000000000E+00  0.00000000000E+00  0.10687278943E+03  0.10687278943E+03  0.00000000000E+00 0.  1.
         21   -1    0    0  502  503 -0.00000000000E+00 -0.00000000000E+00 -0.33862432391E+03  0.33862432391E+03  0.00000000000E+00 0.  1.
         -6    2    1    2    0  503 -0.69817240500E+02 -0.19104224449E+02 -0.15931026430E+03  0.24525483343E+03  0.17184514699E+03 0.  0.
        -24    2    3    3    0    0 -0.97771997791E+02  0.48735917007E+01 -0.16816853884E+03  0.20708464676E+03  0.70853920274E+02 0.  0.
          6    2    1    2  501    0  0.69817240500E+02  0.19104224449E+02 -0.72441270184E+02  0.20024227991E+03  0.17207502601E+03 0.  0.
         24    2    5    5    0    0  0.51108254513E+02 -0.85060493709E+01 -0.11052383027E+03  0.14940209148E+03  0.86145582162E+02 0.  0.
          5    1    5    5  501    0  0.18708985987E+02  0.27610273819E+02  0.38082560087E+02  0.50840188433E+02  0.47000000000E+01 0. -1.
        -11    1    6    6    0    0  0.70998753579E+02 -0.13688936300E+02 -0.10606944136E+03  0.12837030957E+03  0.00000000000E+00 0.  1.
         12    1    6    6    0    0 -0.19890499066E+02  0.51828869287E+01 -0.44543889074E+01  0.21031781916E+02  0.00000000000E+00 0. -1.
         -5    1    3    3    0  503  0.27954757291E+02 -0.23977816149E+02  0.88582745386E+01  0.38170186668E+02  0.47000000000E+01 0.  1.
         13    1    4    4    0    0 -0.58694958334E+02 -0.32219103995E+02 -0.91884431579E+02  0.11369220537E+03  0.00000000000E+00 0. -1.
        -14    1    4    4    0    0 -0.39077039457E+02  0.37092695696E+02 -0.76284107263E+02  0.93392441384E+02  0.00000000000E+00 0.  1.
</event>
<event>
12    1  0.8271773E-002  0.2009091E+03  0.7818608E-02  0.1149287E+00
         21   -1    0    0  503  502  0.00000000000E+00  0.00000000000E+00  0.19541026561E+04  0.19541026561E+04  0.00000000000E+00 0. -1.
         21   -1    0    0  501  503 -0.00000000000E+00 -0.00000000000E+00 -0.35972481958E+02  0.35972481958E+02  0.00000000000E+00 0.  1.
          6    2    1    2  501    0 -0.45427114796E+02 -0.89673262826E+02  0.30453652700E+03  0.36402196526E+03  0.17223407935E+03 0.  0.
         24    2    3    3    0    0 -0.28883075947E+02 -0.12581172454E+03  0.19123627733E+03  0.24386069775E+03  0.78955076027E+02 0.  0.
         -6    2    1    2    0  502  0.45427114796E+02  0.89673262826E+02  0.16135936472E+04  0.16260531728E+04  0.17395271150E+03 0.  0.
        -24    2    5    5    0    0  0.34158428804E+02  0.12174467519E+03  0.14949649732E+04  0.15025606182E+04  0.82338180003E+02 0.  0.
          5    1    3    3  501    0 -0.16544038849E+02  0.36138461709E+02  0.11330024967E+03  0.12016126751E+03  0.47000000000E+01 0. -1.
        -13    1    4    4    0    0 -0.45784710982E+02 -0.45445887830E+02  0.54938944796E+02  0.84734031745E+02  0.00000000000E+00 0.  1.
         14    1    4    4    0    0  0.16901635036E+02 -0.80365836706E+02  0.13629733253E+03  0.15912666600E+03  0.00000000000E+00 0. -1.
         -5    1    5    5    0  502  0.11268685992E+02 -0.32071412364E+02  0.11862867394E+03  0.12349255465E+03  0.47000000000E+01 0.  1.
         13    1    6    6    0    0  0.79601005119E+01  0.26569228777E+02  0.91085512000E+02  0.95214797245E+02  0.00000000000E+00 0. -1.
        -14    1    6    6    0    0  0.26198328292E+02  0.95175446413E+02  0.14038794612E+04  0.14073458209E+04  0.00000000000E+00 0.  1.
</event>
<event>
12    1  0.8271773E-002  0.1925158E+03  0.7818608E-02  0.1157815E+00
         21   -1    0    0  503  502  0.00000000000E+00  0.00000000000E+00  0.45907469371E+02  0.45907469371E+02  0.00000000000E+00 0.  1.
         21   -1    0    0  501  503 -0.00000000000E+00 -0.00000000000E+00 -0.11193796605E+04  0.11193796605E+04  0.00000000000E+00 0.  1.
          6    2    1    2  501    0 -0.74600342268E+02 -0.94995954312E+01 -0.20796208955E+03  0.27862481337E+03  0.16949366523E+03 0.  0.
         24    2    3    3    0    0 -0.80602777598E+02  0.33772159315E+02 -0.20149607785E+03  0.23421340384E+03  0.81350369707E+02 0.  0.
         -6    2    1    2    0  502  0.74600342268E+02  0.94995954312E+01 -0.86551010161E+03  0.88666231654E+03  0.17721984708E+03 0.  0.
        -24    2    5    5    0    0  0.79643593798E+02 -0.57114902611E+02 -0.55590250350E+03  0.56989445115E+03  0.78402027522E+02 0.  0.
          5    1    3    3  501    0  0.60024353295E+01 -0.43271754746E+02 -0.64660117087E+01  0.44411409526E+02  0.47000000000E+01 0. -1.
        -13    1    4    4    0    0  0.14305540065E+02  0.10121723832E+02 -0.57717012671E+02  0.60318747679E+02  0.00000000000E+00 0.  1.
         14    1    4    4    0    0 -0.94908317662E+02  0.23650435483E+02 -0.14377906517E+03  0.17389465616E+03  0.00000000000E+00 0. -1.
         -5    1    5    5    0  502 -0.50432515294E+01  0.66614498043E+02 -0.30960759811E+03  0.31676786539E+03  0.47000000000E+01 0.  1.
         11    1    6    6    0    0  0.48908654515E+02 -0.83758866185E+01 -0.41054610062E+03  0.41353393174E+03  0.00000000000E+00 0. -1.
        -12    1    6    6    0    0  0.30734939283E+02 -0.48739015993E+02 -0.14535640288E+03  0.15636051941E+03  0.00000000000E+00 0.  1.
</event>
<event>
12    1  0.8271773E-002  0.2065911E+03  0.7818608E-02  0.1144700E+00
         21   -1    0    0  501  502  0.00000000000E+00  0.00000000000E+00  0.46806811364E+03  0.46806811364E+03  0.00000000000E+00 0.  1.
         21   -1    0    0  502  503 -0.00000000000E+00 -0.00000000000E+00 -0.10681588402E+03  0.10681588402E+03  0.00000000000E+00 0. -1.
         -6    2    1    2    0  503  0.11348355885E+03 -0.53284514595E+01  0.66874132590E+02  0.21524757857E+03  0.17015422400E+03 0.  0.
        -24    2    3    3    0    0  0.14006175894E+03  0.17530150379E+02  0.75296353112E+02  0.17888908305E+03  0.80044742188E+02 0.  0.
          6    2    1    2  501    0 -0.11348355885E+03  0.53284514595E+01  0.29437809703E+03  0.35963641908E+03  0.17254848419E+03 0.  0.
         24    2    5    5    0    0 -0.85443349020E+02  0.69565974044E+02  0.20256145063E+03  0.24402889670E+03  0.79868457522E+02 0.  0.
          5    1    5    5  501    0 -0.28040209833E+02 -0.64237522585E+02  0.91816646395E+02  0.11560752238E+03  0.47000000000E+01 0. -1.
        -11    1    6    6    0    0 -0.64369284145E+02  0.14981604786E+01  0.10600096180E+03  0.12402359908E+03  0.00000000000E+00 0.  1.
         12    1    6    6    0    0 -0.21074064876E+02  0.68067813566E+02  0.96560488834E+02  0.12000529762E+03  0.00000000000E+00 0. -1.
         -5    1    3    3    0  503 -0.26578200090E+02 -0.22858601839E+02 -0.84222205212E+01  0.36358495521E+02  0.47000000000E+01 0.  1.
         11    1    4    4    0    0  0.10971643786E+03 -0.22481622219E+02  0.49779600662E+02  0.12256071441E+03  0.00000000000E+00 0. -1.
        -12    1    4    4    0    0  0.30345321080E+02  0.40011772598E+02  0.25516752449E+02  0.56328368638E+02  0.00000000000E+00 0.  1.
</event>
<event>
12    1  0.8271773E-002  0.1767201E+03  0.7818608E-02  0.1171347E+00
         21   -1    0    0  501  502  0.00000000000E+00  0.00000000000E+00  0.70073696573E+03  0.70073696573E+03  0.00000000000E+00 0. -1.
         21   -1    0    0  502  503 -0.00000000000E+00 -0.00000000000E+00 -0.14294894142E+03  0.14294894142E+03  0.00000000000E+00 0. -1.
         -6    2    1    2    0  503 -0.36143604321E+02  0.13494910515E+02 -0.71333639787E+02  0.19057409703E+03  0.17245731516E+03 0.  0.
        -24    2    3    3    0    0 -0.44342872719E+02  0.70360305534E+02 -0.65091218928E+02  0.13259169478E+03  0.80167498325E+02 0.  0.
          6    2    1    2  501    0  0.36143604321E+02 -0.13494910515E+02  0.62912166409E+03  0.65311181012E+03  0.17109206745E+03 0.  0.
         24    2    5    5    0    0  0.66367937416E+02 -0.50391225084E+02  0.53630153458E+03  0.54864882729E+03  0.80325718226E+02 0.  0.
          5    1    5    5  501    0 -0.30224333095E+02  0.36896314569E+02  0.92820129514E+02  0.10446298283E+03  0.47000000000E+01 0. -1.
        -11    1    6    6    0    0  0.68410523359E+02 -0.15111484509E+02  0.23326885877E+03  0.24356255284E+03  0.00000000000E+00 0.  1.
         12    1    6    6    0    0 -0.20425859429E+01 -0.35279740575E+02  0.30303267581E+03  0.30508627445E+03  0.00000000000E+00 0. -1.
         -5    1    3    3    0  503  0.81992683978E+01 -0.56865395018E+02 -0.62424208581E+01  0.57982402253E+02  0.47000000000E+01 0.  1.
         11    1    4    4    0    0  0.17410268042E+02  0.45849221469E+02 -0.29178140868E+02  0.57066912016E+02  0.00000000000E+00 0. -1.
        -12    1    4    4    0    0 -0.61753140761E+02  0.24511084065E+02 -0.35913078061E+02  0.75524782765E+02  0.00000000000E+00 0.  1.
</event>
<event>
12    1  0.8271773E-002  0.1894973E+03  0.7818608E-02  0.1159598E+00
         21   -1    0    0  501  502  0.00000000000E+00  0.00000000000E+00  0.31619474743E+03  0.31619474743E+03  0.00000000000E+00 0.  1.
         21   -1    0    0  502  503 -0.00000000000E+00 -0.00000000000E+00 -0.16527525606E+03  0.16527525606E+03  0.00000000000E+00 0.  1.
         -6    2    1    2    0  503  0.29609793536E+02 -0.73242506299E+02 -0.61089780009E+02  0.19910095905E+03  0.17224408864E+03 0.  0.
        -24    2    3    3    0    0  0.21074821857E+02 -0.42451125630E+02 -0.10758090951E+03  0.14249292086E+03  0.80525363837E+02 0.  0.
          6    2    1    2  501    0 -0.29609793536E+02  0.73242506299E+02  0.21200927139E+03  0.28236904444E+03  0.16894715594E+03 0.  0.
         24    2    5    5    0    0 -0.21392813353E+02 -0.87595276826E+01  0.37875450734E+02  0.89660638200E+02  0.77910836767E+02 0.  0.
          5    1    5    5  501    0 -0.82169801826E+01  0.82002033981E+02  0.17413382065E+03  0.19270840624E+03  0.47000000000E+01 0. -1.
        -13    1    6    6    0    0 -0.19368059236E+01  0.33601651775E+02  0.22859360748E+02  0.40686270326E+02  0.00000000000E+00 0.  1.
         14    1    6    6    0    0 -0.19456007429E+02 -0.42361179458E+02  0.15016089986E+02  0.48974367874E+02  0.00000000000E+00 0. -1.
         -5    1    3    3    0  503  0.85349716783E+01 -0.30791380668E+02  0.46491129504E+02  0.56608038188E+02  0.47000000000E+01 0.  1.
         11    1    4    4    0    0  0.50314518651E+01  0.22395252405E+02 -0.12054061717E+02  0.25926111202E+02  0.00000000000E+00 0. -1.
        -12    1    4    4    0    0  0.16043369992E+02 -0.64846378035E+02 -0.95526847795E+02  0.11656680966E+03  0.00000000000E+00 0.  1.
</event>
<event>
12    1  0.8271773E-002  0.1858088E+03  0.7818608E-02  0.1162435E+00
         21   -1    0    0  501  502  0.00000000000E+00  0.00000000000E+00  0.18033412188E+03  0.18033412188E+03  0.00000000000E+00 0.  1.
         21   -1    0    0  502  503 -0.00000000000E+00 -0.00000000000E+00 -0.34584602261E+03  0.34584602261E+03  0.00000000000E+00 0.  1.
         -6    2    1    2    0  503 -0.34963005656E+02 -0.61363426449E+02 -0.25881558067E+03  0.31826068735E+03  0.17122055496E+03 0.  0.
        -24    2    3    3    0    0 -0.37907875293E+02 -0.93340585486E+02 -0.12385136288E+03  0.17944915670E+03  0.81935144133E+02 0.  0.
          6    2    1    2  501    0  0.34963005656E+02  0.61363426449E+02  0.93303679947E+02  0.20791945714E+03  0.17186344026E+03 0.  0.
         24    2    5    5    0    0  0.73878480994E+02  0.86329043054E+02  0.82408956808E+02  0.16018601786E+03  0.77185429501E+02 0.  0.
          5    1    5    5  501    0 -0.38915475338E+02 -0.24965616606E+02  0.10894723140E+02  0.47733439281E+02  0.47000000000E+01 0. -1.
        -13    1    6    6    0    0  0.69469393147E+02  0.41488426442E+02  0.20243232474E+02  0.83409079684E+02  0.00000000000E+00 0.  1.
         14    1    6    6    0    0  0.44090878472E+01  0.44840616613E+02  0.62165724334E+02  0.76776938176E+02  0.00000000000E+00 0. -1.
         -5    1    3    3    0  503  0.29448696370E+01  0.31977159037E+02 -0.13496421779E+03  0.13881153065E+03  0.47000000000E+01 0.  1.
         11    1    4    4    0    0 -0.59247725666E+02 -0.40227550422E+02 -0.57663358040E+02  0.91943524351E+02  0.00000000000E+00 0. -1.
        -12    1    4    4    0    0  0.21339850373E+02 -0.53113035063E+02 -0.66188004843E+02  0.87505632349E+02  0.00000000000E+00 0.  1.
</event>
<event>
12    1  0.8271773E-002  0.1921682E+03  0.7818608E-02  0.1156555E+00
         21   -1    0    0  501  502  0.00000000000E+00  0.00000000000E+00  0.30901986681E+02  0.30901986681E+02  0.00000000000E+00 0.  1.
         21   -1    0    0  502  503 -0.00000000000E+00 -0.00000000000E+00 -0.14104395940E+04  0.14104395940E+04  0.00000000000E+00 0.  1.
         -6    2    1    2    0  503  0.21508624228E+02  0.82587352878E+02 -0.97180854696E+03  0.99059598064E+03  0.17200364285E+03 0.  0.
        -24    2    3    3    0    0  0.51074440831E+02  0.10697990517E+03 -0.86922652197E+03  0.88098623669E+03  0.80800396833E+02 0.  0.
          6    2    1    2  501    0 -0.21508624228E+02 -0.82587352878E+02 -0.40772906036E+03  0.45074560004E+03  0.17217815634E+03 0.  0.
         24    2    5    5    0    0  0.34440338532E+02 -0.30281198339E+02 -0.32515271002E+03  0.33801954328E+03  0.80186276355E+02 0.  0.
          5    1    5    5  501    0 -0.55948962761E+02 -0.52306154539E+02 -0.82576350346E+02  0.11272605676E+03  0.47000000000E+01 0. -1.
        -13    1    6    6    0    0  0.37772802795E+02  0.19067696193E+02 -0.13090413705E+03  0.13757272537E+03  0.00000000000E+00 0.  1.
         14    1    6    6    0    0 -0.33324642630E+01 -0.49348894531E+02 -0.19424857297E+03  0.20044681791E+03  0.00000000000E+00 0. -1.
         -5    1    3    3    0  503 -0.29565816603E+02 -0.24392552288E+02 -0.10258202499E+03  0.10960974395E+03  0.47000000000E+01 0.  1.
         13    1    4    4    0    0  0.36897337978E+02  0.97873648069E+02 -0.47412893325E+03  0.48552951494E+03  0.00000000000E+00 0. -1.
        -14    1    4    4    0    0  0.14177102853E+02  0.91062570969E+01 -0.39509758872E+03  0.39545672175E+03  0.00000000000E+00 0.  1.
</event>
<event>
12    1  0.8271773E-002  0.1729241E+03  0.7818608E-02  0.1175130E+00
         21   -1    0    0  503  502  0.00000000000E+00  0.00000000000E+00  0.21585306067E+03  0.21585306067E+03  0.00000000000E+00 0.  1.
         21   -1    0    0  501  503 -0.00000000000E+00 -0.00000000000E+00 -0.25885831404E+03  0.25885831404E+03  0.00000000000E+00 0.  1.
          6    2    1    2  501    0  0.15680330569E+02 -0.60577235108E+01 -0.18399042380E+03  0.25249798569E+03  0.17210516537E+03 0.  0.
         24    2    3    3    0    0  0.12587801065E+02  0.63463083502E+02 -0.12198410296E+03  0.15917285419E+03  0.79182450280E+02 0.  0.
         -6    2    1    2    0  502 -0.15680330569E+02  0.60577235108E+01  0.14098517043E+03  0.22221338902E+03  0.17093683980E+03 0.  0.
        -24    2    5    5    0    0 -0.54787797238E+02 -0.45782549869E+02  0.93528703039E+02  0.14164655844E+03  0.78856734822E+02 0.  0.
          5    1    3    3  501    0  0.30925295035E+01 -0.69520807013E+02 -0.62006320840E+02  0.93325131505E+02  0.47000000000E+01 0. -1.
        -13    1    4    4    0    0 -0.13341181906E+02 -0.14340167229E+02 -0.31133830528E+02  0.36782372601E+02  0.00000000000E+00 0.  1.
         14    1    4    4    0    0  0.25928982971E+02  0.77803250731E+02 -0.90850272428E+02  0.12239048158E+03  0.00000000000E+00 0. -1.
         -5    1    5    5    0  502  0.39107466669E+02  0.51840273380E+02  0.47456467389E+02  0.80566830584E+02  0.47000000000E+01 0.  1.
         13    1    6    6    0    0 -0.14701767005E+02 -0.11580432953E+02 -0.13007313203E+02  0.22791195168E+02  0.00000000000E+00 0. -1.
        -14    1    6    6    0    0 -0.40086030233E+02 -0.34202116917E+02  0.10653601624E+03  0.11885536327E+03  0.00000000000E+00 0.  1.
</event>
<event>
12    1  0.8271773E-002  0.2110891E+03  0.7818608E-02  0.1140890E+00
         21   -1    0    0  503  502  0.00000000000E+00  0.00000000000E+00  0.12992629118E+03  0.12992629118E+03  0.00000000000E+00 0.  1.
         21   -1    0    0  501  503 -0.00000000000E+00 -0.00000000000E+00 -0.36318206900E+03  0.36318206900E+03  0.00000000000E+00 0. -1.
          6    2    1    2  501    0  0.12212645848E+02 -0.12088281680E+03 -0.17719553586E+03  0.27560272270E+03  0.17261749249E+03 0.  0.
         24    2    3    3    0    0 -0.21122359113E+02  0.24245635057E+01 -0.84940799427E+02  0.11796719692E+03  0.79052435633E+02 0.  0.
         -6    2    1    2    0  502 -0.12212645848E+02  0.12088281680E+03 -0.56060241959E+02  0.21750563748E+03  0.17147637590E+03 0.  0.
        -24    2    5    5    0    0  0.34161566601E+02  0.52677825230E+02 -0.81980834843E+02  0.13092356317E+03  0.80486994038E+02 0.  0.
          5    1    3    3  501    0  0.33335004960E+02 -0.12330738030E+03 -0.92254736434E+02  0.15763552578E+03  0.47000000000E+01 0. -1.
        -11    1    4    4    0    0 -0.39951139078E+02 -0.13078857690E+02 -0.16240030549E+02  0.45065381662E+02  0.00000000000E+00 0.  1.
         12    1    4    4    0    0  0.18828779965E+02  0.15503421195E+02 -0.68700768878E+02  0.72901815260E+02  0.00000000000E+00 0. -1.
         -5    1    5    5    0  502 -0.46374212449E+02  0.68204991568E+02  0.25920592884E+02  0.86582074302E+02  0.47000000000E+01 0.  1.
         11    1    6    6    0    0 -0.17494518589E+02  0.37871854829E+02 -0.59515799117E+02  0.72680574525E+02  0.00000000000E+00 0. -1.
        -12    1    6    6    0    0  0.51656085190E+02  0.14805970401E+02 -0.22465035726E+02  0.58242988649E+02  0.00000000000E+00 0.  1.
</event>
<event>
12    1  0.8271773E-002  0.2978822E+03  0.7818608E-02  0.1086790E+00
         21   -1    0    0  503  502  0.00000000000E+00  0.00000000000E+00  0.40434132379E+03  0.40434132379E+03  0.00000000000E+00 0. -1.
         21   -1    0    0  501  503 -0.00000000000E+00 -0.00000000000E+00 -0.18335679987E+04  0.18335679987E+04  0.00000000000E+00 0. -1.
          6    2    1    2  501    0 -0.98346977309E+02 -0.21811565545E+03 -0.17648378273E+04  0.17891681106E+04  0.17094854330E+03 0.  0.
         24    2    3    3    0    0 -0.84378907910E+02 -0.76427894119E+02 -0.59946591031E+03  0.61512197717E+03  0.77811606274E+02 0.  0.
         -6    2    1    2    0  502  0.98346977309E+02  0.21811565545E+03  0.33561115236E+03  0.44874121185E+03  0.17744650612E+03 0.  0.
        -24    2    5    5    0    0  0.13224761661E+03  0.15758541087E+03  0.20618867230E+03  0.30182139632E+03  0.79118852821E+02 0.  0.
          5    1    3    3  501    0 -0.13968069399E+02 -0.14168776133E+03 -0.11653719170E+04  0.11740461335E+04  0.47000000000E+01 0. -1.
        -11    1    4    4    0    0 -0.12617474442E+01  0.96636430994E+01 -0.11372991516E+02  0.14977414349E+02  0.00000000000E+00 0.  1.
         12    1    4    4    0    0 -0.83117160466E+02 -0.86091537218E+02 -0.58809291879E+03  0.60014456282E+03  0.00000000000E+00 0. -1.
         -5    1    5    5    0  502 -0.33900639301E+02  0.60530244571E+02  0.12942248005E+03  0.14691981553E+03  0.47000000000E+01 0.  1.
         11    1    6    6    0    0  0.48550894702E+02  0.11846082786E+03  0.11952360614E+03  0.17514579509E+03  0.00000000000E+00 0. -1.
        -12    1    6    6    0    0  0.83696721908E+02  0.39124583019E+02  0.86665066166E+02  0.12667560123E+03  0.00000000000E+00 0.  1.
</event>
<event>
12    1  0.8271773E-002  0.1760168E+03  0.7818608E-02  0.1171930E+00
         21   -1    0    0  501  502  0.00000000000E+00  0.00000000000E+00  0.20080234203E+03  0.20080234203E+03  0.00000000000E+00 0.  1.
         21   -1    0    0  502  503 -0.00000000000E+00 -0.00000000000E+00 -0.15792313573E+03  0.15792313573E+03  0.00000000000E+00 0.  1.
         -6    2    1    2    0  503  0.25224553707E+02 -0.23398382103E+02  0.51280322254E+02  0.18250834863E+03  0.17174359806E+03 0.  0.
        -24    2    3    3    0    0 -0.37687479885E+02 -0.41793454712E+02 -0.11732513371E+01  0.98426424004E+02  0.80742463590E+02 0.  0.
          6    2    1    2  501    0 -0.25224553707E+02  0.23398382103E+02 -0.84011159532E+01  0.17621712913E+03  0.17262136442E+03 0.  0.
         24    2    5    5    0    0 -0.16120178165E+02  0.81558083046E+02 -0.12082569309E+02  0.11704717420E+03  0.81501358596E+02 0.  0.
          5    1    5    5  501    0 -0.91043755424E+01 -0.58159700942E+02  0.36814533556E+01  0.59169954931E+02  0.47000000000E+01 0. -1.
        -11    1    6    6    0    0 -0.13861696055E+02  0.90971525163E+02  0.10362792895E+02  0.92603199106E+02  0.00000000000E+00 0.  1.
         12    1    6    6    0    0 -0.22584821093E+01 -0.94134421178E+01 -0.22445362204E+02  0.24443975094E+02  0.00000000000E+00 0. -1.
         -5    1    3    3    0  503  0.62912033592E+02  0.18395072609E+02  0.52453573591E+02  0.84081924630E+02  0.47000000000E+01 0.  1.
         11    1    4    4    0    0 -0.38801017648E+02 -0.20241827544E+02  0.35179833134E+02  0.56150433767E+02  0.00000000000E+00 0. -1.
        -12    1    4    4    0    0  0.11135377631E+01 -0.21551627168E+02 -0.36353084471E+02  0.42275990237E+02  0.00000000000E+00 0.  1.
</event>
<event>
12    1  0.8271773E-002  0.1796896E+03  0.7818608E-02  0.1169733E+00
         21   -1    0    0  503  502  0.00000000000E+00  0.00000000000E+00  0.11298518344E+03  0.11298518344E+03  0.00000000000E+00 0.  1.
         21   -1    0    0  501  503 -0.00000000000E+00 -0.00000000000E+00 -0.29696907662E+03  0.29696907662E+03  0.00000000000E+00 0.  1.
          6    2    1    2  501    0 -0.52626446870E+02 -0.89307124361E+01 -0.38346584421E+02  0.18373569918E+03  0.17157810490E+03 0.  0.
         24    2    3    3    0    0 -0.21882776790E+02  0.75174841111E+00 -0.90130631862E+02  0.12255889910E+03  0.80110747744E+02 0.  0.
         -6    2    1    2    0  502  0.52626446870E+02  0.89307124361E+01 -0.14563730876E+03  0.22621856088E+03  0.16466727377E+03 0.  0.
        -24    2    5    5    0    0  0.22802099901E+02 -0.31856907204E+02 -0.22558790184E+02  0.93088799666E+02  0.81374610980E+02 0.  0.
          5    1    3    3  501    0 -0.30743670080E+02 -0.96824608472E+01  0.51784047441E+02  0.61176800075E+02  0.47000000000E+01 0. -1.
        -11    1    4    4    0    0 -0.40649745816E+02  0.14605730822E+02 -0.18078348694E+02  0.46824735976E+02  0.00000000000E+00 0.  1.
         12    1    4    4    0    0  0.18766969026E+02 -0.13853982410E+02 -0.72052283167E+02  0.75734163128E+02  0.00000000000E+00 0. -1.
         -5    1    5    5    0  502  0.29824346969E+02  0.40787619640E+02 -0.12307851857E+03  0.13312976122E+03  0.47000000000E+01 0.  1.
         11    1    6    6    0    0  0.18111854420E+02  0.13616875746E+02  0.20301680188E+02  0.30423950994E+02  0.00000000000E+00 0. -1.
        -12    1    6    6    0    0  0.46902454812E+01 -0.45473782951E+02 -0.42860470372E+02  0.62664848672E+02  0.00000000000E+00 0.  1.
</event>
<event>
12    1  0.8271773E-002  0.1966592E+03  0.7818608E-02  0.1153417E+00
         21   -1    0    0  503  502  0.00000000000E+00  0.00000000000E+00  0.31635335380E+03  0.31635335380E+03  0.00000000000E+00 0. -1.
         21   -1    0    0  501  503 -0.00000000000E+00 -0.00000000000E+00 -0.22437090384E+03  0.22437090384E+03  0.00000000000E+00 0. -1.
          6    2    1    2  501    0 -0.83244875362E+02  0.29673193633E+02 -0.13873003351E+03  0.23756902202E+03  0.17141414857E+03 0.  0.
         24    2    3    3    0    0 -0.11831586519E+03  0.27300014746E+02 -0.14083401605E+03  0.20204265086E+03  0.79013150350E+02 0.  0.
         -6    2    1    2    0  502  0.83244875362E+02 -0.29673193633E+02  0.23071248347E+03  0.30315523562E+03  0.17568334912E+03 0.  0.
        -24    2    5    5    0    0  0.53094942575E+02 -0.87147249538E+02  0.17461206438E+03  0.21723880778E+03  0.79307064958E+02 0.  0.
          5    1    3    3  501    0  0.35070989826E+02  0.23731788877E+01  0.21039825423E+01  0.35526371162E+02  0.47000000000E+01 0. -1.
        -11    1    4    4    0    0 -0.20907725275E+02  0.32965122517E+02 -0.12829481582E+02  0.41090484013E+02  0.00000000000E+00 0.  1.
         12    1    4    4    0    0 -0.97408139912E+02 -0.56651077718E+01 -0.12800453447E+03  0.16095216685E+03  0.00000000000E+00 0. -1.
         -5    1    5    5    0  502  0.30149932788E+02  0.57474055904E+02  0.56100419094E+02  0.85916427834E+02  0.47000000000E+01 0.  1.
         11    1    6    6    0    0  0.75365870538E+01 -0.71214956931E+02  0.14186159598E+03  0.15891218534E+03  0.00000000000E+00 0. -1.
        -12    1    6    6    0    0  0.45558355521E+02 -0.15932292607E+02  0.32750468393E+02  0.58326622441E+02  0.00000000000E+00 0.  1.
</event>
<event>
12    1  0.8271773E-002  0.1835050E+03  0.7818608E-02  0.1165171E+00
         21   -1    0    0  503  502  0.00000000000E+00  0.00000000000E+00  0.21676282776E+03  0.21676282776E+03  0.00000000000E+00 0.  1.
         21   -1    0    0  501  503 -0.00000000000E+00 -0.00000000000E+00 -0.44398151983E+03  0.44398151983E+03  0.00000000000E+00 0.  1.
          6    2    1    2  501    0 -0.22390626582E+02  0.33073041591E+02 -0.38147509638E+03  0.42331704934E+03  0.17910585940E+03 0.  0.
         24    2    3    3    0    0 -0.39676941742E+02  0.30738445888E+02 -0.89402676045E+02  0.13068647038E+03  0.81037048896E+02 0.  0.
         -6    2    1    2    0  502  0.22390626582E+02 -0.33073041591E+02  0.15425640431E+03  0.23742729824E+03  0.17601567385E+03 0.  0.
        -24    2    5    5    0    0  0.44970515628E+02 -0.44945587062E+02  0.24929256381E+02  0.10552426600E+03  0.80445321914E+02 0.  0.
          5    1    3    3  501    0  0.17286315160E+02  0.23345957026E+01 -0.29207242033E+03  0.29263057897E+03  0.47000000000E+01 0. -1.
        -11    1    4    4    0    0  0.12662091451E+02  0.62953916603E+01 -0.67408322936E+02  0.68875558198E+02  0.00000000000E+00 0.  1.
         12    1    4    4    0    0 -0.52339033193E+02  0.24443054228E+02 -0.21994353109E+02  0.61810912178E+02  0.00000000000E+00 0. -1.
         -5    1    5    5    0  502 -0.22579889046E+02  0.11872545471E+02  0.12932714792E+03  0.13190303225E+03  0.47000000000E+01 0.  1.
         13    1    6    6    0    0  0.13030719305E+01  0.19892581661E+02  0.18318176089E+02  0.27073388721E+02  0.00000000000E+00 0. -1.
        -14    1    6    6    0    0  0.43667443698E+02 -0.64838168723E+02  0.66110802919E+01  0.78450877274E+02  0.00000000000E+00 0.  1.
</event>
<event>
12    1  0.8271773E-002  0.1725652E+03  0.7818608E-02  0.1176181E+00
         21   -1    0    0  503  502  0.00000000000E+00  0.00000000000E+00  0.34787961083E+03  0.34787961083E+03  0.00000000000E+00 0.  1.
         21   -1    0    0  501  503 -0.00000000000E+00 -0.00000000000E+00 -0.85513397294E+02  0.85513397294E+02  0.00000000000E+00 0.  1.
          6    2    1    2  501    0 -0.77886179875E+01 -0.13869023099E+02  0.16106156495E+03  0.23328959985E+03  0.16801844340E+03 0.  0.
         24    2    3    3    0    0  0.10125416838E+02 -0.70913663254E+02  0.91506389211E+02  0.14144725621E+03  0.80638919389E+02 0.  0.
         -6    2    1    2    0  502  0.77886179875E+01  0.13869023099E+02  0.10130464859E+03  0.20010340828E+03  0.17183052641E+03 0.  0.
        -24    2    5    5    0    0 -0.17003271063E+02 -0.55839466224E+02  0.68968082218E+02  0.11922291142E+03  0.77783989537E+02 0.  0.
          5    1    3    3  501    0 -0.17914034825E+02  0.57044640154E+02  0.69555175737E+02  0.91842343643E+02  0.47000000000E+01 0. -1.
        -13    1    4    4    0    0 -0.50833433033E+01 -0.56770339714E+02  0.10672643307E+02  0.57988077788E+02  0.00000000000E+00 0.  1.
         14    1    4    4    0    0  0.15208760141E+02 -0.14143323540E+02  0.80833745904E+02  0.83459178421E+02  0.00000000000E+00 0. -1.
         -5    1    5    5    0  502  0.24791889051E+02  0.69708489323E+02  0.32336566375E+02  0.80880496854E+02  0.47000000000E+01 0.  1.
         11    1    6    6    0    0 -0.49744167548E+01 -0.45720989560E+02 -0.24883218570E+01  0.46058066113E+02  0.00000000000E+00 0. -1.
        -12    1    6    6    0    0 -0.12028854309E+02 -0.10118476664E+02  0.71456404075E+02  0.73164845310E+02  0.00000000000E+00 0.  1.
</event>
<event>
12    1  0.8271773E-002  0.1865758E+03  0.7818608E-02  0.1163680E+00
         21   -1    0    0  503  502  0.00000000000E+00  0.00000000000E+00  0.12478396100E+03  0.12478396100E+03  0.00000000000E+00 0. -1.
         21   -1    0    0  501  503 -0.00000000000E+00 -0.00000000000E+00 -0.73556873319E+03  0.73556873319E+03  0.00000000000E+00 0. -1.
          6    2    1    2  501    0  0.43974578905E+02  0.15646411440E+02 -0.65176957475E+03  0.67794845164E+03  0.18064315856E+03 0.  0.
         24    2    3    3    0    0  0.14834240643E+02 -0.62264998165E+02 -0.30470692006E+03  0.32102559816E+03  0.78192984644E+02 0.  0.
         -6    2    1    2    0  502 -0.43974578905E+02 -0.15646411440E+02  0.40984802558E+02  0.18240424254E+03  0.17150212791E+03 0.  0.
        -24    2    5    5    0    0  0.31695903148E-01 -0.72541606247E+02  0.24410033706E+02  0.10844189823E+03  0.76821285487E+02 0.  0.
          5    1    3    3  501    0  0.29140338263E+02  0.77911409605E+02 -0.34706265469E+03  0.35692285348E+03  0.47000000000E+01 0. -1.
        -11    1    4    4    0    0 -0.30557636533E+02 -0.30259527709E+02 -0.16916285572E+03  0.17454363330E+03  0.00000000000E+00 0.  1.
         12    1    4    4    0    0  0.45391877175E+02 -0.32005470456E+02 -0.13554406434E+03  0.14648196486E+03  0.00000000000E+00 0. -1.
         -5    1    5    5    0  502 -0.44006274809E+02  0.56895194807E+02  0.16574768852E+02  0.73962344319E+02  0.47000000000E+01 0.  1.
         11    1    6    6    0    0 -0.68877891334E+01 -0.24221737252E+02  0.48017546550E+02  0.54220097485E+02  0.00000000000E+00 0. -1.
        -12    1    6    6    0    0  0.69194850365E+01 -0.48319868995E+02 -0.23607512844E+02  0.54221800741E+02  0.00000000000E+00 0.  1.
</event>
<event>
12    1  0.8271773E-002  0.1738832E+03  0.7818608E-02  0.1174293E+00
         21   -1    0    0  503  502  0.00000000000E+00  0.00000000000E+00  0.18667336338E+04  0.18667336338E+04  0.00000000000E+00 0. -1.
         21   -1    0    0  501  503 -0.00000000000E+00 -0.00000000000E+00 -0.71849103473E+02  0.71849103473E+02  0.00000000000E+00 0. -1.
          6    2    1    2  501    0  0.36525049180E+01 -0.10816099429E+02  0.42169287034E+02  0.17726331697E+03  0.17179553538E+03 0.  0.
         24    2    3    3    0    0 -0.26299479548E+02 -0.33687864636E+02  0.82001838889E+02  0.12222731780E+03  0.79929223617E+02 0.  0.
         -6    2    1    2    0  502 -0.36525049180E+01  0.10816099429E+02  0.17527152433E+04  0.17613194204E+04  0.17350806166E+03 0.  0.
        -24    2    5    5    0    0 -0.25818984074E+02 -0.73732161682E+01  0.16909024887E+04  0.16930178052E+04  0.80231403179E+02 0.  0.
          5    1    3    3  501    0  0.29951984466E+02  0.22871765208E+02 -0.39832551855E+02  0.55035999168E+02  0.47000000000E+01 0. -1.
        -11    1    4    4    0    0 -0.36158539024E+01 -0.15125576100E+01  0.82759797248E+02  0.82852557416E+02  0.00000000000E+00 0.  1.
         12    1    4    4    0    0 -0.22683625645E+02 -0.32175307026E+02 -0.75795835848E+00  0.39374760387E+02  0.00000000000E+00 0. -1.
         -5    1    5    5    0  502  0.22166479156E+02  0.18189315597E+02  0.61812754597E+02  0.68301615142E+02  0.47000000000E+01 0.  1.
         13    1    6    6    0    0  0.44939308822E+01  0.17806598280E+02  0.13008737406E+04  0.13010033664E+04  0.00000000000E+00 0. -1.
        -14    1    6    6    0    0 -0.30312914957E+02 -0.25179814448E+02  0.39002874817E+03  0.39201443885E+03  0.00000000000E+00 0.  1.
</event>
<event>
12    1  0.8271773E-002  0.1966330E+03  0.7818608E-02  0.1152753E+00
         21   -1    0    0  501  502  0.00000000000E+00  0.00000000000E+00  0.45090043107E+03  0.45090043107E+03  0.00000000000E+00 0.  1.
         21   -1    0    0  502  503 -0.00000000000E+00 -0.00000000000E+00 -0.90517849891E+02  0.90517849891E+02  0.00000000000E+00 0. -1.
         -6    2    1    2    0  503 -0.86733312326E+02 -0.32136830544E+02  0.11593453291E+03  0.22769966017E+03  0.17277406048E+03 0.  0.
        -24    2    3    3    0    0 -0.76186653876E+02 -0.74294108535E+02  0.12542888490E+03  0.18297046599E+03  0.80135918690E+02 0.  0.
          6    2    1    2  501    0  0.86733312326E+02  0.32136830544E+02  0.24444804827E+03  0.31371862080E+03  0.17351968588E+03 0.  0.
         24    2    5    5    0    0  0.97059899188E+02  0.74951938351E+01  0.87077579061E+02  0.15402703293E+03  0.81639574579E+02 0.  0.
          5    1    5    5  501    0 -0.10326586862E+02  0.24641636709E+02  0.15737046921E+03  0.15969158787E+03  0.47000000000E+01 0. -1.
        -13    1    6    6    0    0  0.48044557767E+02  0.26768436506E+02  0.85095135916E+02  0.10132132491E+03  0.00000000000E+00 0.  1.
         14    1    6    6    0    0  0.49015341420E+02 -0.19273242671E+02  0.19824431443E+01  0.52705708025E+02  0.00000000000E+00 0. -1.
         -5    1    3    3    0  503 -0.10546658450E+02  0.42157277990E+02 -0.94943519929E+01  0.44729194178E+02  0.47000000000E+01 0.  1.
         13    1    4    4    0    0 -0.11682668967E+02 -0.89712950199E+01 -0.11102138834E+02  0.18445226353E+02  0.00000000000E+00 0. -1.
        -14    1    4    4    0    0 -0.64503984909E+02 -0.65322813515E+02  0.13653102374E+03  0.16452523964E+03  0.00000000000E+00 0.  1.
</event>
<event>
12    1  0.8271773E-002  0.1987004E+03  0.7818608E-02  0.1151929E+00
         21   -1    0    0  501  502  0.00000000000E+00  0.00000000000E+00  0.63404974647E+03  0.63404974647E+03  0.00000000000E+00 0. -1.
         21   -1    0    0  502  503 -0.00000000000E+00 -0.00000000000E+00 -0.70080416100E+02  0.70080416100E+02  0.00000000000E+00 0.  1.
         -6    2    1    2    0  503  0.33132789728E+02 -0.82250416024E+02  0.15002138207E+03  0.24496270213E+03  0.17215515580E+03 0.  0.
        -24    2    3    3    0    0  0.68719889221E+02 -0.10332293711E+03  0.13851947828E+03  0.20177848527E+03  0.78287027968E+02 0.  0.
          6    2    1    2  501    0 -0.33132789728E+02  0.82250416024E+02  0.41394794830E+03  0.45916746043E+03  0.17781715364E+03 0.  0.
         24    2    5    5    0    0  0.27842494171E+02 -0.53563525704E+01  0.12795924846E+03  0.15387324564E+03  0.80619547649E+02 0.  0.
          5    1    5    5  501    0 -0.60975283899E+02  0.87606768595E+02  0.28598869984E+03  0.30529421480E+03  0.47000000000E+01 0. -1.
        -11    1    6    6    0    0  0.25273574226E+02  0.35483157144E+02  0.77524454783E+02  0.88926087761E+02  0.00000000000E+00 0.  1.
         12    1    6    6    0    0  0.25689199454E+01 -0.40839509715E+02  0.50434793672E+02  0.64947157876E+02  0.00000000000E+00 0. -1.
         -5    1    3    3    0  503 -0.35587099494E+02  0.21072521086E+02  0.11501903792E+02  0.43184216864E+02  0.47000000000E+01 0.  1.
         11    1    4    4    0    0  0.23580235377E+02 -0.79379085763E+02  0.12318440887E+03  0.14843000150E+03  0.00000000000E+00 0. -1.
        -12    1    4    4    0    0  0.45139653844E+02 -0.23943851347E+02  0.15335069403E+02  0.53348483766E+02  0.00000000000E+00 0.  1.
</event>
<event>
12    1  0.8271773E-002  0.3432284E+03  0.7818608E-02  0.1065474E+00
         21   -1    0    0  501  502  0.00000000000E+00  0.00000000000E+00  0.44227103215E+03  0.44227103215E+03  0.00000000000E+00 0.  1.
         21   -1    0    0  502  503 -0.00000000000E+00 -0.00000000000E+00 -0.28513169275E+03  0.28513169275E+03  0.00000000000E+00 0. -1.
         -6    2    1    2    0  503  0.29631454993E+03  0.22475198007E+02  0.17264371721E+03  0.38382434566E+03  0.17090297891E+03 0.  0.
        -24    2    3    3    0    0  0.29589126823E+03  0.14982133920E+01  0.18612997518E+03  0.35844360089E+03  0.79268910053E+02 0.  0.
          6    2    1    2  501    0 -0.29631454993E+03 -0.22475198007E+02 -0.15504377803E+02  0.34357837924E+03  0.17175060385E+03 0.  0.
         24    2    5    5    0    0 -0.11390454312E+03 -0.11213675086E+02  0.50764858142E+02  0.14912032691E+03  0.80992651661E+02 0.  0.
          5    1    5    5  501    0 -0.18241000681E+03 -0.11261522921E+02 -0.66269235945E+02  0.19445805233E+03  0.47000000000E+01 0. -1.
        -11    1    6    6    0    0 -0.79209425858E+01 -0.19820695475E+02  0.35882887478E+02  0.41751442063E+02  0.00000000000E+00 0.  1.
         12    1    6    6    0    0 -0.10598360054E+03  0.86070203889E+01  0.14881970664E+02  0.10736888485E+03  0.00000000000E+00 0. -1.
         -5    1    3    3    0  503  0.42328169982E+00  0.20976984615E+02 -0.13486257969E+02  0.25380744767E+02  0.47000000000E+01 0.  1.
         11    1    4    4    0    0  0.13978318879E+02 -0.66272705557E+01 -0.66331478226E+01  0.16831897211E+02  0.00000000000E+00 0. -1.
        -12    1    4    4    0    0  0.28191294936E+03  0.81254839477E+01  0.19276312300E+03  0.34161170368E+03  0.00000000000E+00 0.  1.
</event>
<event>
12    1  0.8271773E-002  0.2005301E+03  0.7818608E-02  0.1149704E+00
         21   -1    0    0  501  502  0.00000000000E+00  0.00000000000E+00  0.45206688837E+03  0.45206688837E+03  0.00000000000E+00 0.  1.
         21   -1    0    0  502  503 -0.00000000000E+00 -0.00000000000E+00 -0.10737010642E+03  0.10737010642E+03  0.00000000000E+00 0.  1.
         -6    2    1    2    0  503 -0.96990565952E+02  0.30156390782E+02  0.53133404596E+02  0.20557047436E+03  0.17064431855E+03 0.  0.
        -24    2    3    3    0    0 -0.20183977349E+02  0.71663375517E+02  0.45699056818E+02  0.11782401368E+03  0.79063658359E+02 0.  0.
          6    2    1    2  501    0  0.96990565952E+02 -0.30156390782E+02  0.29156337735E+03  0.35386652043E+03  0.17290382727E+03 0.  0.
         24    2    5    5    0    0  0.85637691792E+02  0.36528403546E+02  0.13085540212E+03  0.17943919216E+03  0.80044668144E+02 0.  0.
          5    1    5    5  501    0  0.11352874160E+02 -0.66684794329E+02  0.16070797522E+03  0.17442732827E+03  0.47000000000E+01 0. -1.
        -13    1    6    6    0    0 -0.53555016299E+01 -0.60594594649E+01  0.49520468989E+02  0.50176441639E+02  0.00000000000E+00 0.  1.
         14    1    6    6    0    0  0.90993193422E+02  0.42587863011E+02  0.81334933134E+02  0.12926275052E+03  0.00000000000E+00 0. -1.
         -5    1    3    3    0  503 -0.76806588604E+02 -0.41506984735E+02  0.74343477780E+01  0.87746460678E+02  0.47000000000E+01 0.  1.
         13    1    4    4    0    0 -0.39543247854E+02  0.33663113441E+02  0.53398979270E+02  0.74487077030E+02  0.00000000000E+00 0. -1.
        -14    1    4    4    0    0  0.19359270505E+02  0.38000262076E+02 -0.76999224516E+01  0.43336936649E+02  0.00000000000E+00 0.  1.
</event>
<event>
12    1  0.8271773E-002  0.2502664E+03  0.7818608E-02  0.1113177E+00
         21   -1    0    0  503  502  0.00000000000E+00  0.00000000000E+00  0.24498146213E+03  0.24498146213E+03  0.00000000000E+00 0.  1.
         21   -1    0    0  501  503 -0.00000000000E+00 -0.00000000000E+00 -0.48414860179E+03  0.48414860179E+03  0.00000000000E+00 0.  1.
          6    2    1    2  501    0 -0.13272701356E+03 -0.12366063397E+03 -0.37020488278E+03  0.44686116662E+03  0.17240891647E+03 0.  0.
         24    2    3    3    0    0 -0.12291349366E+03 -0.14285865586E+03 -0.37266096062E+03  0.42465775392E+03  0.77082383960E+02 0.  0.
         -6    2    1    2    0  502  0.13272701356E+03  0.12366063397E+03  0.13103774313E+03  0.28226889730E+03  0.17203612334E+03 0.  0.
        -24    2    5    5    0    0  0.14226022249E+03  0.14893152686E+03  0.10670032383E+03  0.24560965457E+03  0.80750063264E+02 0.  0.
          5    1    3    3  501    0 -0.98135199042E+01  0.19198021886E+02  0.24560778429E+01  0.22203412702E+02  0.47000000000E+01 0. -1.
        -11    1    4    4    0    0 -0.29350145982E+02 -0.11383701199E+02 -0.12621096787E+03  0.13007777725E+03  0.00000000000E+00 0.  1.
         12    1    4    4    0    0 -0.93563347676E+02 -0.13147495466E+03 -0.24644999275E+03  0.29457997667E+03  0.00000000000E+00 0. -1.
         -5    1    5    5    0  502 -0.95332089239E+01 -0.25270892884E+02  0.24337419296E+02  0.36659242730E+02  0.47000000000E+01 0.  1.
         11    1    6    6    0    0  0.41585988461E+02  0.10139170164E+03  0.46547863951E+02  0.11906458430E+03  0.00000000000E+00 0. -1.
        -12    1    6    6    0    0  0.10067423403E+03  0.47539825223E+02  0.60152459879E+02  0.12654507026E+03  0.00000000000E+00 0.  1.
</event>
<event>
12    1  0.8271773E-002  0.2015389E+03  0.7818608E-02  0.1149236E+00
         21   -1    0    0  501  502  0.00000000000E+00  0.00000000000E+00  0.51250882227E+03  0.51250882227E+03  0.00000000000E+00 0. -1.
         21   -1    0    0  502  503 -0.00000000000E+00 -0.00000000000E+00 -0.10589170488E+03  0.10589170488E+03  0.00000000000E+00 0. -1.
         -6    2    1    2    0  503 -0.63829051021E+02 -0.75226378220E+02  0.42624770467E+02  0.20233759294E+03  0.17143650348E+03 0.  0.
        -24    2    3    3    0    0 -0.24201367160E+02 -0.72539823701E+02 -0.35373046923E+02  0.11468304132E+03  0.77802412057E+02 0.  0.
          6    2    1    2  501    0  0.63829051021E+02  0.75226378220E+02  0.36399234692E+03  0.41606293421E+03  0.17574066368E+03 0.  0.
         24    2    5    5    0    0  0.99362586852E+02  0.47561796537E+02  0.32945328022E+03  0.35911560436E+03  0.91046720377E+02 0.  0.
          5    1    5    5  501    0 -0.35533535831E+02  0.27664581682E+02  0.34539066699E+02  0.56947329848E+02  0.47000000000E+01 0. -1.
        -13    1    6    6    0    0 -0.16597190315E+02 -0.21587496376E+01  0.37394722532E+02  0.40969405654E+02  0.00000000000E+00 0.  1.
         14    1    6    6    0    0  0.11595977717E+03  0.49720546175E+02  0.29205855769E+03  0.31814619870E+03  0.00000000000E+00 0. -1.
         -5    1    3    3    0  503 -0.39627683861E+02 -0.26865545189E+01  0.77997817390E+02  0.87654551627E+02  0.47000000000E+01 0.  1.
         13    1    4    4    0    0  0.50519055627E+01 -0.44985671112E+02  0.17272799558E+02  0.48451851975E+02  0.00000000000E+00 0. -1.
        -14    1    4    4    0    0 -0.29253272723E+02 -0.27554152589E+02 -0.52645846481E+02  0.66231189341E+02  0.00000000000E+00 0.  1.
</event>
<event>
12    1  0.8271773E-002  0.2467127E+03  0.7818608E-02  0.1115599E+00
         21   -1    0    0  503  502  0.00000000000E+00  0.00000000000E+00  0.74951350226E+02  0.74951350226E+02  0.00000000000E+00 0.  1.
         21   -1    0    0  501  503 -0.00000000000E+00 -0.00000000000E+00 -0.95508992446E+03  0.95508992446E+03  0.00000000000E+00 0. -1.
          6    2    1    2  501    0 -0.11395213798E+03 -0.13576796402E+03 -0.64123064101E+03  0.68661127406E+03  0.16982425294E+03 0.  0.
         24    2    3    3    0    0 -0.29710167281E+02 -0.10465079812E+03 -0.50953104381E+03  0.52713757233E+03  0.80110248818E+02 0.  0.
         -6    2    1    2    0  502  0.11395213798E+03  0.13576796402E+03 -0.23890793322E+03  0.34343000063E+03  0.17160750267E+03 0.  0.
        -24    2    5    5    0    0  0.11914669037E+03  0.14617435239E+03 -0.25242519150E+03  0.32498867299E+03  0.79600786106E+02 0.  0.
          5    1    3    3  501    0 -0.84241970695E+02 -0.31117165906E+02 -0.13169959720E+03  0.15947370173E+03  0.47000000000E+01 0. -1.
        -13    1    4    4    0    0  0.71173694226E+01  0.30675265134E+01 -0.35792615119E+01  0.85368483282E+01  0.00000000000E+00 0.  1.
         14    1    4    4    0    0 -0.36827536703E+02 -0.10771832463E+03 -0.50595178230E+03  0.51860072400E+03  0.00000000000E+00 0. -1.
         -5    1    5    5    0  502 -0.51945523928E+01 -0.10406388363E+02  0.13517258283E+02  0.18441327632E+02  0.47000000000E+01 0.  1.
         13    1    6    6    0    0  0.39507886915E+02  0.25191314072E+02 -0.11965308493E+03  0.12850033528E+03  0.00000000000E+00 0. -1.
        -14    1    6    6    0    0  0.79638803454E+02  0.12098303831E+03 -0.13277210657E+03  0.19648833772E+03  0.00000000000E+00 0.  1.
</event>
<event>
12    1  0.8271773E-002  0.1896284E+03  0.7818608E-02  0.1159278E+00
         21   -1    0    0  503  502  0.00000000000E+00  0.00000000000E+00  0.12820242665E+03  0.12820242665E+03  0.00000000000E+00 0.  1.
         21   -1    0    0  501  503 -0.00000000000E+00 -0.00000000000E+00 -0.95922985929E+03  0.95922985929E+03  0.00000000000E+00 0.  1.
          6    2    1    2  501    0  0.66047711248E+01  0.79432282071E+02 -0.87460021960E+03  0.89492149522E+03  0.17206344190E+03 0.  0.
         24    2    3    3    0    0  0.67214251509E+02  0.41293577238E+02 -0.63131181983E+03  0.64126936063E+03  0.80304818630E+02 0.  0.
         -6    2    1    2    0  502 -0.66047711248E+01 -0.79432282071E+02  0.43572786961E+02  0.19251079073E+03  0.16973127687E+03 0.  0.
        -24    2    5    5    0    0 -0.40474371386E+02 -0.10655982080E+03  0.14503865282E+02  0.14006896213E+03  0.80098576116E+02 0.  0.
          5    1    3    3  501    0 -0.60609480384E+02  0.38138704833E+02 -0.24328839977E+03  0.25365213459E+03  0.47000000000E+01 0. -1.
        -13    1    4    4    0    0 -0.16446058922E+01  0.38505856536E+02 -0.14236137311E+03  0.14748615619E+03  0.00000000000E+00 0.  1.
         14    1    4    4    0    0  0.68858857401E+02  0.27877207018E+01 -0.48895044673E+03  0.49378320444E+03  0.00000000000E+00 0. -1.
         -5    1    5    5    0  502  0.33869600262E+02  0.27127538728E+02  0.29068921679E+02  0.52441828600E+02  0.47000000000E+01 0.  1.
         11    1    6    6    0    0  0.17516663844E+02 -0.64033269821E+02  0.15407142475E+02  0.68150371939E+02  0.00000000000E+00 0. -1.
        -12    1    6    6    0    0 -0.57991035230E+02 -0.42526550978E+02 -0.90327719281E+00  0.71918590190E+02  0.00000000000E+00 0.  1.
</event>
<event>
12    1  0.8271773E-002  0.1784724E+03  0.7818608E-02  0.1169656E+00
         21   -1    0    0  501  502  0.00000000000E+00  0.00000000000E+00  0.15001321867E+03  0.15001321867E+03  0.00000000000E+00 0.  1.
         21   -1    0    0  502  503 -0.00000000000E+00 -0.00000000000E+00 -0.25058377892E+03  0.25058377892E+03  0.00000000000E+00 0.  1.
         -6    2    1    2    0  503 -0.14521568503E+02 -0.44520577809E+02  0.29942416933E+02  0.17949514303E+03  0.17067220113E+03 0.  0.
        -24    2    3    3    0    0  0.30470427888E+02  0.46335470416E+01 -0.32144066960E+02  0.88296298675E+02  0.76243547826E+02 0.  0.
          6    2    1    2  501    0  0.14521568503E+02  0.44520577809E+02 -0.13051297718E+03  0.22110185457E+03  0.17221914841E+03 0.  0.
         24    2    5    5    0    0  0.16310876526E+02  0.26702440723E+02 -0.16397090845E+03  0.18286298956E+03  0.74654866558E+02 0.  0.
          5    1    5    5  501    0 -0.17893080231E+01  0.17818137086E+02  0.33457931266E+02  0.38238865007E+02  0.47000000000E+01 0. -1.
        -13    1    6    6    0    0  0.33329158772E+02  0.27180435924E+02 -0.43413015238E+02  0.61108909445E+02  0.00000000000E+00 0.  1.
         14    1    6    6    0    0 -0.17018282246E+02 -0.47799520090E+00 -0.12055789321E+03  0.12175408012E+03  0.00000000000E+00 0. -1.
         -5    1    3    3    0  503 -0.44991996391E+02 -0.49154124850E+02  0.62086483893E+02  0.91198844352E+02  0.47000000000E+01 0.  1.
         11    1    4    4    0    0  0.45842388960E+01  0.30453465398E+02  0.10115929187E+02  0.32415441140E+02  0.00000000000E+00 0. -1.
        -12    1    4    4    0    0  0.25886188992E+02 -0.25819918356E+02 -0.42259996147E+02  0.55880857535E+02  0.00000000000E+00 0.  1.
</event>
<event>
12    1  0.8271773E-002  0.1847149E+03  0.7818608E-02  0.1163437E+00
         21   -1    0    0  503  502  0.00000000000E+00  0.00000000000E+00  0.37490273714E+03  0.37490273714E+03  0.00000000000E+00 0.  1.
         21   -1    0    0  501  503 -0.00000000000E+00 -0.00000000000E+00 -0.14013148520E+03  0.14013148520E+03  0.00000000000E+00 0.  1.
          6    2    1    2  501    0  0.43181232944E+01 -0.68508858299E+02 -0.35368287452E+02  0.18807045325E+03  0.17148606291E+03 0.  0.
         24    2    3    3    0    0  0.42421829281E+02  0.13786228970E+02 -0.29780841067E+02  0.97088678393E+02  0.80929854001E+02 0.  0.
         -6    2    1    2    0  502 -0.43181232944E+01  0.68508858299E+02  0.27013953939E+03  0.32696376909E+03  0.17093222547E+03 0.  0.
        -24    2    5    5    0    0  0.88027425546E+01  0.36773238325E+02  0.42383785079E+02  0.96585644445E+02  0.78119409507E+02 0.  0.
          5    1    3    3  501    0 -0.38103705987E+02 -0.82295087268E+02 -0.55874463843E+01  0.90981774854E+02  0.47000000000E+01 0. -1.
        -13    1    4    4    0    0  0.55038981591E+02 -0.17170139665E+02 -0.10835065015E+02  0.58664314746E+02  0.00000000000E+00 0.  1.
         14    1    4    4    0    0 -0.12617152310E+02  0.30956368635E+02 -0.18945776053E+02  0.38424363648E+02  0.00000000000E+00 0. -1.
         -5    1    5    5    0  502 -0.13120865849E+02  0.31735619974E+02  0.22775575431E+03  0.23037812465E+03  0.47000000000E+01 0.  1.
         11    1    6    6    0    0  0.40726824475E+02  0.21838170577E+02  0.40238109422E+02  0.61275487561E+02  0.00000000000E+00 0. -1.
        -12    1    6    6    0    0 -0.31924081921E+02  0.14935067748E+02  0.21456756572E+01  0.35310156884E+02  0.00000000000E+00 0.  1.
</event>
<event>
12    1  0.8271773E-002  0.2174339E+03  0.7818608E-02  0.1135838E+00
         21   -1    0    0  503  502  0.00000000000E+00  0.00000000000E+00  0.30308779373E+03  0.30308779373E+03  0.00000000000E+00 0. -1.
         21   -1    0    0  501  503 -0.00000000000E+00 -0.00000000000E+00 -0.26751727184E+03  0.26751727184E+03  0.00000000000E+00 0.  1.
          6    2    1    2  501    0 -0.77021956006E+02  0.10788711923E+03 -0.16651843998E+03  0.27375920712E+03  0.17217346029E+03 0.  0.
         24    2    3    3    0    0 -0.31412197579E+02  0.83066236074E+02 -0.22230651071E+02  0.12034023068E+03  0.78107896787E+02 0.  0.
         -6    2    1    2    0  502  0.77021956006E+02 -0.10788711923E+03  0.20208896187E+03  0.29684585845E+03  0.17235284438E+03 0.  0.
        -24    2    5    5    0    0  0.47977638742E+02 -0.11473052938E+03  0.73211762435E+02  0.16447581969E+03  0.78913781501E+02 0.  0.
          5    1    3    3  501    0 -0.45609758426E+02  0.24820883161E+02 -0.14428778891E+03  0.15341897644E+03  0.47000000000E+01 0. -1.
        -11    1    4    4    0    0 -0.54186797515E+02  0.48094317442E+02 -0.29038892282E+02  0.78054658158E+02  0.00000000000E+00 0.  1.
         12    1    4    4    0    0  0.22774599936E+02  0.34971918631E+02  0.68082412111E+01  0.42285572520E+02  0.00000000000E+00 0. -1.
         -5    1    5    5    0  502  0.29044317264E+02  0.68434101476E+01  0.12887719944E+03  0.13237003877E+03  0.47000000000E+01 0.  1.
         11    1    6    6    0    0  0.54693962888E+02 -0.11641567040E+03  0.82561421905E+02  0.15284117992E+03  0.00000000000E+00 0. -1.
        -12    1    6    6    0    0 -0.67163241466E+01  0.16851410206E+01 -0.93496594702E+01  0.11634639767E+02  0.00000000000E+00 0.  1.
</event>
<event>
12    1  0.8271773E-002  0.1962080E+03  0.7818608E-02  0.1153217E+00
         21   -1    0    0  503  502  0.00000000000E+00  0.00000000000E+00  0.94427632317E+02  0.94427632317E+02  0.00000000000E+00 0. -1.
         21   -1    0    0  501  503 -0.00000000000E+00 -0.00000000000E+00 -0.68509734957E+03  0.68509734957E+03  0.00000000000E+00 0. -1.
          6    2    1    2  501    0 -0.29235044175E+02  0.88886646399E+02 -0.54387713520E+03  0.57781447446E+03  0.17120661490E+03 0.  0.
         24    2    3    3    0    0  0.16592590960E+02  0.36477938417E+01 -0.37122504743E+03  0.37983299164E+03  0.78590363441E+02 0.  0.
         -6    2    1    2    0  502  0.29235044175E+02 -0.88886646399E+02 -0.46792582054E+02  0.20171050743E+03  0.17245886279E+03 0.  0.
        -24    2    5    5    0    0  0.53584359480E+02 -0.51599401271E+02  0.31227140486E+02  0.11175276785E+03  0.77328940419E+02 0.  0.
          5    1    3    3  501    0 -0.45827635135E+02  0.85238852558E+02 -0.17265208777E+03  0.19798148282E+03  0.47000000000E+01 0. -1.
        -13    1    4    4    0    0 -0.17069779392E+02 -0.16839194767E+02 -0.42855090064E+02  0.49106970924E+02  0.00000000000E+00 0.  1.
         14    1    4    4    0    0  0.33662370352E+02  0.20486988608E+02 -0.32836995737E+03  0.33072602072E+03  0.00000000000E+00 0. -1.
         -5    1    5    5    0  502 -0.24349315305E+02 -0.37287245128E+02 -0.78019722539E+02  0.89957739579E+02  0.47000000000E+01 0.  1.
         11    1    6    6    0    0  0.58523454046E+02 -0.13130819983E+02 -0.29605575119E+01  0.60051461329E+02  0.00000000000E+00 0. -1.
        -12    1    6    6    0    0 -0.49390945660E+01 -0.38468581288E+02  0.34187697998E+02  0.51701306519E+02  0.00000000000E+00 0.  1.
</event>
<event>
12    1  0.8271773E-002  0.1866384E+03  0.7818608E-02  0.1162262E+00
         21   -1    0    0  501  502  0.00000000000E+00  0.00000000000E+00  0.12764379351E+03  0.12764379351E+03  0.00000000000E+00 0. -1.
         21   -1    0    0  502  503 -0.00000000000E+00 -0.00000000000E+00 -0.27348615369E+03  0.27348615369E+03  0.00000000000E+00 0. -1.
         -6    2    1    2    0  503  0.54355308623E+02 -0.33281456750E+02 -0.10111119429E+03  0.21226724194E+03  0.17541879446E+03 0.  0.
        -24    2    3    3    0    0  0.88632672997E+02 -0.68334943513E+02 -0.79463810903E+02  0.15846776378E+03  0.79196715125E+02 0.  0.
          6    2    1    2  501    0 -0.54355308623E+02  0.33281456750E+02 -0.44731165885E+02  0.18886270526E+03  0.17206420109E+03 0.  0.
         24    2    5    5    0    0 -0.40701126584E+02 -0.24686785832E+02 -0.76813045602E+02  0.12105348140E+03  0.80546150022E+02 0.  0.
          5    1    5    5  501    0 -0.13654182039E+02  0.57968242582E+02  0.32081879716E+02  0.67809223866E+02  0.47000000000E+01 0. -1.
        -13    1    6    6    0    0  0.19472887878E+02 -0.26957873511E+02 -0.24822304855E+02  0.41497796626E+02  0.00000000000E+00 0.  1.
         14    1    6    6    0    0 -0.60174014461E+02  0.22710876784E+01 -0.51990740747E+02  0.79555684769E+02  0.00000000000E+00 0. -1.
         -5    1    3    3    0  503 -0.34277364374E+02  0.35053486763E+02 -0.21647383390E+02  0.53799478161E+02  0.47000000000E+01 0.  1.
         11    1    4    4    0    0  0.32830293568E+02 -0.59298528008E+02 -0.93782467844E+01  0.68425836585E+02  0.00000000000E+00 0. -1.
        -12    1    4    4    0    0  0.55802379429E+02 -0.90364155051E+01 -0.70085564118E+02  0.90041927194E+02  0.00000000000E+00 0.  1.
</event>
<event>
12    1  0.8271773E-002  0.1883476E+03  0.7818608E-02  0.1160101E+00
         21   -1    0    0  503  502  0.00000000000E+00  0.00000000000E+00  0.31702187351E+02  0.31702187351E+02  0.00000000000E+00 0.  1.
         21   -1    0    0  501  503 -0.00000000000E+00 -0.00000000000E+00 -0.16296385940E+04  0.16296385940E+04  0.00000000000E+00 0.  1.
          6    2    1    2  501    0 -0.12297982762E+02  0.70562035974E+02 -0.12665169896E+04  0.12804452804E+04  0.17419698592E+03 0.  0.
         24    2    3    3    0    0 -0.31065294040E+02 -0.24583755047E+02 -0.66377863541E+03  0.66993684712E+03  0.81510053329E+02 0.  0.
         -6    2    1    2    0  502  0.12297982762E+02 -0.70562035974E+02 -0.33141941701E+03  0.38089550090E+03  0.17352899276E+03 0.  0.
        -24    2    5    5    0    0 -0.25843791835E+02 -0.65388640954E+02 -0.99355378251E+02  0.14561403738E+03  0.79927346719E+02 0.  0.
          5    1    3    3  501    0  0.18767311278E+02  0.95145791021E+02 -0.60273835420E+03  0.61050843331E+03  0.47000000000E+01 0. -1.
        -13    1    4    4    0    0 -0.51884607836E+02  0.63994088749E+01 -0.43547706025E+03  0.43860373342E+03  0.00000000000E+00 0.  1.
         14    1    4    4    0    0  0.20819313796E+02 -0.30983163922E+02 -0.22830157515E+03  0.23133311369E+03  0.00000000000E+00 0. -1.
         -5    1    5    5    0  502  0.38141774597E+02 -0.51733950198E+01 -0.23206403876E+03  0.23528146351E+03  0.47000000000E+01 0.  1.
         13    1    6    6    0    0  0.62779949553E+01  0.10834574886E+02  0.40826664021E+01  0.13170778207E+02  0.00000000000E+00 0. -1.
        -14    1    6    6    0    0 -0.32121786790E+02 -0.76223215841E+02 -0.10343804465E+03  0.13244325918E+03  0.00000000000E+00 0.  1.
</event>
<event>
12    1  0.8271773E-002  0.2926648E+03  0.7818608E-02  0.1089201E+00
         21   -1    0    0  501  502  0.00000000000E+00  0.00000000000E+00  0.12890217018E+04  0.12890217018E+04  0.00000000000E+00 0. -1.
         21   -1    0    0  502  503 -0.00000000000E+00 -0.00000000000E+00 -0.91003550565E+02  0.91003550565E+02  0.00000000000E+00 0.  1.
         -6    2    1    2    0  503  0.18367530057E+03  0.14377334105E+03  0.23624518077E+03  0.37470941734E+03  0.17374686291E+03 0.  0.
        -24    2    3    3    0    0  0.95517634683E+02  0.15180437575E+03  0.12892935825E+03  0.23551513823E+03  0.81709325567E+02 0.  0.
          6    2    1    2  501    0 -0.18367530057E+03 -0.14377334105E+03  0.96177297049E+03  0.10053158351E+04  0.17676337802E+03 0.  0.
         24    2    5    5    0    0 -0.10898525366E+03 -0.12949448730E+03  0.84797789963E+03  0.86837096686E+03  0.79718317044E+02 0.  0.
          5    1    5    5  501    0 -0.74690046911E+02 -0.14278853751E+02  0.11379507086E+03  0.13694486819E+03  0.47000000000E+01 0. -1.
        -13    1    6    6    0    0 -0.49894806428E+02 -0.10322246289E+02  0.31204518806E+03  0.31617754485E+03  0.00000000000E+00 0.  1.
         14    1    6    6    0    0 -0.59090447228E+02 -0.11917224101E+03  0.53593271157E+03  0.55219342201E+03  0.00000000000E+00 0. -1.
         -5    1    3    3    0  503  0.88157665883E+02 -0.80310347059E+01  0.10731582252E+03  0.13919427911E+03  0.47000000000E+01 0.  1.
         13    1    4    4    0    0 -0.58766985810E+01  0.37259210793E+02  0.38535605161E+01  0.37916148324E+02  0.00000000000E+00 0. -1.
        -14    1    4    4    0    0  0.10139433326E+03  0.11454516496E+03  0.12507579773E+03  0.19759898991E+03  0.00000000000E+00 0.  1.
</event>
<event>
12    1  0.8271773E-002  0.2321297E+03  0.7818608E-02  0.1125539E+00
         21   -1    0    0  503  502  0.00000000000E+00  0.00000000000E+00  0.12610378644E+03  0.12610378644E+03  0.00000000000E+00 0. -1.
         21   -1    0    0  501  503 -0.00000000000E+00 -0.00000000000E+00 -0.48962943953E+03  0.48962943953E+03  0.00000000000E+00 0. -1.
          6    2    1    2  501    0 -0.15375786937E+03  0.13422347058E+02 -0.29591267581E+03  0.37609638050E+03  0.17338550668E+03 0.  0.
         24    2    3    3    0    0 -0.94407893369E+02  0.68610297723E+02 -0.23568768716E+03  0.27501587393E+03  0.80404115280E+02 0.  0.
         -6    2    1    2    0  502  0.15375786937E+03 -0.13422347058E+02 -0.67612977286E+02  0.23963684547E+03  0.17038973330E+03 0.  0.
        -24    2    5    5    0    0  0.15903645829E+03  0.11077269039E+01 -0.98288309909E+02  0.20496621551E+03  0.84004377926E+02 0.  0.
          5    1    3    3  501    0 -0.59349976002E+02 -0.55187950664E+02 -0.60224988654E+02  0.10108050657E+03  0.47000000000E+01 0. -1.
        -11    1    4    4    0    0 -0.59272499762E+01  0.41454239072E+02 -0.11853237537E+03  0.12571201311E+03  0.00000000000E+00 0.  1.
         12    1    4    4    0    0 -0.88480643393E+02  0.27156058650E+02 -0.11715531178E+03  0.14930386082E+03  0.00000000000E+00 0. -1.
         -5    1    5    5    0  502 -0.52785889176E+01 -0.14530073962E+02  0.30675332624E+02  0.34670629961E+02  0.47000000000E+01 0.  1.
         13    1    6    6    0    0  0.13632971504E+03 -0.16977729401E+02 -0.45497756986E+02  0.14472069786E+03  0.00000000000E+00 0. -1.
        -14    1    6    6    0    0  0.22706743250E+02  0.18085456305E+02 -0.52790552923E+02  0.60245517648E+02  0.00000000000E+00 0.  1.
</event>
<event>
12    1  0.8271773E-002  0.1984207E+03  0.7818608E-02  0.1151148E+00
         21   -1    0    0  503  502  0.00000000000E+00  0.00000000000E+00  0.32570460357E+03  0.32570460357E+03  0.00000000000E+00 0.  1.
         21   -1    0    0  501  503 -0.00000000000E+00 -0.00000000000E+00 -0.12405384254E+03  0.12405384254E+03  0.00000000000E+00 0.  1.
          6    2    1    2  501    0  0.52505420733E+02  0.84051765576E+02  0.13799166855E+03  0.24168672171E+03  0.17189895974E+03 0.  0.
         24    2    3    3    0    0  0.71921575942E+02  0.88060443084E+02  0.15984104487E+03  0.21181128324E+03  0.79921870350E+02 0.  0.
         -6    2    1    2    0  502 -0.52505420733E+02 -0.84051765576E+02  0.63659092480E+02  0.20807172441E+03  0.17152213833E+03 0.  0.
        -24    2    5    5    0    0  0.22490015068E+02 -0.27944575150E+02 -0.12241821192E+02  0.87426082525E+02  0.78782978248E+02 0.  0.
          5    1    3    3  501    0 -0.19416155209E+02 -0.40086775086E+01 -0.21849376318E+02  0.29875438473E+02  0.47000000000E+01 0. -1.
        -13    1    4    4    0    0  0.13966596429E+02  0.33131696044E+02  0.33313605056E+01  0.36109182508E+02  0.00000000000E+00 0.  1.
         14    1    4    4    0    0  0.57954979513E+02  0.54928747040E+02  0.15650968436E+03  0.17570210073E+03  0.00000000000E+00 0. -1.
         -5    1    5    5    0  502 -0.74995435800E+02 -0.56107190426E+02  0.75900913673E+02  0.12064564188E+03  0.47000000000E+01 0.  1.
         13    1    6    6    0    0 -0.10103761348E+01 -0.58209342478E+01  0.32067863510E+02  0.32607545224E+02  0.00000000000E+00 0. -1.
        -14    1    6    6    0    0  0.23500391202E+02 -0.22123640902E+02 -0.44309684702E+02  0.54818537301E+02  0.00000000000E+00 0.  1.
</event>
<event>
12    1  0.8271773E-002  0.1787242E+03  0.7818608E-02  0.1169088E+00
         21   -1    0    0  501  502  0.00000000000E+00  0.00000000000E+00  0.28710673421E+02  0.28710673421E+02  0.00000000000E+00 0.  1.
         21   -1    0    0  502  503 -0.00000000000E+00 -0.00000000000E+00 -0.14587911383E+04  0.14587911383E+04  0.00000000000E+00 0.  1.
         -6    2    1    2    0  503  0.32160704875E+01  0.48118263384E+02 -0.10776955756E+04  0.10923848156E+04  0.17190439601E+03 0.  0.
        -24    2    3    3    0    0  0.44126467533E+02  0.83740367385E+02 -0.75465781355E+03  0.76479043139E+03  0.80227140765E+02 0.  0.
          6    2    1    2  501    0 -0.32160704875E+01 -0.48118263384E+02 -0.35238488926E+03  0.39511699608E+03  0.17209479954E+03 0.  0.
         24    2    5    5    0    0  0.15434435828E+02 -0.96945580368E+02 -0.28858757741E+03  0.31250867162E+03  0.68863725147E+02 0.  0.
          5    1    5    5  501    0 -0.18650506316E+02  0.48827316984E+02 -0.63797311858E+02  0.82608324459E+02  0.47000000000E+01 0. -1.
        -11    1    6    6    0    0  0.22660078459E+02 -0.35378807569E+02 -0.20013251793E+03  0.20449489948E+03  0.00000000000E+00 0.  1.
         12    1    6    6    0    0 -0.72256426302E+01 -0.61566772799E+02 -0.88455059474E+02  0.10801377214E+03  0.00000000000E+00 0. -1.
         -5    1    3    3    0  503 -0.40910397045E+02 -0.35622104000E+02 -0.32303776205E+03  0.32759438424E+03  0.47000000000E+01 0.  1.
         11    1    4    4    0    0 -0.53472221797E+00 -0.15261797550E+02 -0.79651700258E+02  0.81102415170E+02  0.00000000000E+00 0. -1.
        -12    1    4    4    0    0  0.44661189751E+02  0.99002164935E+02 -0.67500611330E+03  0.68368801622E+03  0.00000000000E+00 0.  1.
</event>
<event>
12    1  0.8271773E-002  0.1846122E+03  0.7818608E-02  0.1163452E+00
         21   -1    0    0  503  502  0.00000000000E+00  0.00000000000E+00  0.20499229685E+04  0.20499229685E+04  0.00000000000E+00 0.  1.
         21   -1    0    0  501  503 -0.00000000000E+00 -0.00000000000E+00 -0.16769794317E+02  0.16769794317E+02  0.00000000000E+00 0.  1.
          6    2    1    2  501    0 -0.66779968788E+02 -0.42535808654E+01  0.91634748095E+03  0.93475899567E+03  0.17205817903E+03 0.  0.
         24    2    3    3    0    0 -0.77848479553E+02 -0.12296492367E+02  0.33985197037E+03  0.35808199416E+03  0.80695497307E+02 0.  0.
         -6    2    1    2    0  502  0.66779968788E+02  0.42535808654E+01  0.11168056933E+04  0.11319337672E+04  0.17187623331E+03 0.  0.
        -24    2    5    5    0    0  0.57412589470E+02  0.67398365395E+02  0.75936619037E+03  0.76880830698E+03  0.81181627982E+02 0.  0.
          5    1    3    3  501    0  0.11068510765E+02  0.80429115011E+01  0.57649551058E+03  0.57667700151E+03  0.47000000000E+01 0. -1.
        -11    1    4    4    0    0 -0.62188085692E+02 -0.16063982633E+02  0.33522592783E+03  0.34132364733E+03  0.00000000000E+00 0.  1.
         12    1    4    4    0    0 -0.15660393861E+02  0.37674902667E+01  0.46260425386E+01  0.16758346827E+02  0.00000000000E+00 0. -1.
         -5    1    5    5    0  502  0.93673793178E+01 -0.63144784529E+02  0.35743950289E+03  0.36312546019E+03  0.47000000000E+01 0.  1.
         13    1    6    6    0    0 -0.14055245365E+02  0.88109018650E+00  0.23557544693E+03  0.23599601148E+03  0.00000000000E+00 0. -1.
        -14    1    6    6    0    0  0.71467834835E+02  0.66517275208E+02  0.52379074344E+03  0.53281229550E+03  0.00000000000E+00 0.  1.
</event>
<event>
12    1  0.8271773E-002  0.1782192E+03  0.7818608E-02  0.1170544E+00
         21   -1    0    0  501  502  0.00000000000E+00  0.00000000000E+00  0.18173689754E+03  0.18173689754E+03  0.00000000000E+00 0. -1.
         21   -1    0    0  502  503 -0.00000000000E+00 -0.00000000000E+00 -0.24714698422E+03  0.24714698422E+03  0.00000000000E+00 0. -1.
         -6    2    1    2    0  503 -0.59409954647E+01  0.13423568608E+02 -0.15213435721E+03  0.23432229187E+03  0.17761358676E+03 0.  0.
        -24    2    3    3    0    0 -0.34412187323E+02 -0.49488046563E+02 -0.49810039637E+02  0.11078753540E+03  0.78482944402E+02 0.  0.
          6    2    1    2  501    0  0.59409954647E+01 -0.13423568608E+02  0.86724270535E+02  0.19456158990E+03  0.17354430426E+03 0.  0.
         24    2    5    5    0    0 -0.25216837295E+01 -0.59207817524E+02  0.44246004908E+01  0.99887728260E+02  0.80287337872E+02 0.  0.
          5    1    5    5  501    0  0.84626791941E+01  0.45784248915E+02  0.82299670045E+02  0.94673861637E+02  0.47000000000E+01 0. -1.
        -13    1    6    6    0    0 -0.40115471463E+02 -0.20025074309E+02  0.76823388746E+01  0.45489262276E+02  0.00000000000E+00 0.  1.
         14    1    6    6    0    0  0.37593787734E+02 -0.39182743214E+02 -0.32577383838E+01  0.54398465984E+02  0.00000000000E+00 0. -1.
         -5    1    3    3    0  503  0.28471191858E+02  0.62911615171E+02 -0.10232431757E+03  0.12353475647E+03  0.47000000000E+01 0.  1.
         11    1    4    4    0    0 -0.35387704525E+02 -0.42956027604E+01 -0.54732222616E+02  0.65317363902E+02  0.00000000000E+00 0. -1.
        -12    1    4    4    0    0  0.97551720249E+00 -0.45192443802E+02  0.49221829784E+01  0.45470171496E+02  0.00000000000E+00 0.  1.
</event>
<event>
12    1  0.8271773E-002  0.1994417E+03  0.7818608E-02  0.1150274E+00
         21   -1    0    0  501  502  0.00000000000E+00  0.00000000000E+00  0.11085438012E+04  0.11085438012E+04  0.00000000000E+00 0. -1.
         21   -1    0    0  502  503 -0.00000000000E+00 -0.00000000000E+00 -0.77853301698E+02  0.77853301698E+02  0.00000000000E+00 0.  1.
         -6    2    1    2    0  503 -0.95112473115E+02 -0.32588353858E+02  0.79695202866E+02  0.21477500683E+03  0.17224573972E+03 0.  0.
        -24    2    3    3    0    0 -0.89479314476E+02 -0.76597648068E+02  0.36633281802E+02  0.15276718879E+03  0.90122523412E+02 0.  0.
          6    2    1    2  501    0  0.95112473115E+02  0.32588353858E+02  0.95099529663E+03  0.97162209606E+03  0.17189840018E+03 0.  0.
         24    2    5    5    0    0  0.89793958099E+02  0.23701870457E+02  0.95227050353E+03  0.96017778123E+03  0.80607233568E+02 0.  0.
          5    1    5    5  501    0  0.53185150167E+01  0.88864834004E+01 -0.12752068992E+01  0.11444314826E+02  0.47000000000E+01 0. -1.
        -13    1    6    6    0    0  0.75795711108E+02  0.14136262590E+02  0.38451085792E+03  0.39216504638E+03  0.00000000000E+00 0.  1.
         14    1    6    6    0    0  0.13998246990E+02  0.95656078679E+01  0.56775964561E+03  0.56801273485E+03  0.00000000000E+00 0. -1.
         -5    1    3    3    0  503 -0.56331586394E+01  0.44009294210E+02  0.43061921064E+02  0.62007818046E+02  0.47000000000E+01 0.  1.
         11    1    4    4    0    0 -0.56205182281E+02 -0.15774535898E+02  0.55884525576E+02  0.80814223358E+02  0.00000000000E+00 0. -1.
        -12    1    4    4    0    0 -0.33274132195E+02 -0.60823112170E+02 -0.19251243775E+02  0.71952965430E+02  0.00000000000E+00 0.  1.
</event>
<event>
12    1  0.8271773E-002  0.2008149E+03  0.7818608E-02  0.1149798E+00
         21   -1    0    0  503  502  0.00000000000E+00  0.00000000000E+00  0.18455552731E+03  0.18455552731E+03  0.00000000000E+00 0.  1.
         21   -1    0    0  501  503 -0.00000000000E+00 -0.00000000000E+00 -0.27991777204E+03  0.27991777204E+03  0.00000000000E+00 0. -1.
          6    2    1    2  501    0 -0.79014848421E+01  0.94822971986E+02 -0.16009946953E+03  0.25682376959E+03  0.17684111231E+03 0.  0.
         24    2    3    3    0    0  0.30043166392E+02 -0.46743354646E+01 -0.10271827691E+03  0.13576922811E+03  0.83413413974E+02 0.  0.
         -6    2    1    2    0  502  0.79014848421E+01 -0.94822971986E+02  0.64737224799E+02  0.20764952976E+03  0.17283977973E+03 0.  0.
        -24    2    5    5    0    0 -0.32936575633E+02  0.72878071089E+01  0.39420803713E+02  0.94701003575E+02  0.79223419302E+02 0.  0.
          5    1    3    3  501    0 -0.37944651234E+02  0.99497307450E+02 -0.57381192618E+02  0.12105454148E+03  0.47000000000E+01 0. -1.
        -11    1    4    4    0    0  0.85849489593E+01 -0.20993415042E+01 -0.11192814050E+03  0.11227652122E+03  0.00000000000E+00 0.  1.
         12    1    4    4    0    0  0.21458217433E+02 -0.25749939604E+01  0.92098635890E+01  0.23492706881E+02  0.00000000000E+00 0. -1.
         -5    1    5    5    0  502  0.40838060475E+02 -0.10211077909E+03  0.25316421087E+02  0.11294852618E+03  0.47000000000E+01 0.  1.
         13    1    6    6    0    0 -0.13319914393E+02  0.39726860749E+02  0.28021902138E+01  0.41993997838E+02  0.00000000000E+00 0. -1.
        -14    1    6    6    0    0 -0.19616661240E+02 -0.32439053640E+02  0.36618613499E+02  0.52707005738E+02  0.00000000000E+00 0.  1.
</event>
<event>
12    1  0.8271773E-002  0.1940979E+03  0.7818608E-02  0.1155125E+00
         21   -1    0    0  501  502  0.00000000000E+00  0.00000000000E+00  0.15509041559E+04  0.15509041559E+04  0.00000000000E+00 0.  1.
         21   -1    0    0  502  503 -0.00000000000E+00 -0.00000000000E+00 -0.30931280869E+02  0.30931280869E+02  0.00000000000E+00 0.  1.
         -6    2    1    2    0  503  0.83010105948E+02  0.18772219270E+02  0.38660458032E+03  0.43196689176E+03  0.17288499110E+03 0.  0.
        -24    2    3    3    0    0  0.24923771186E+02 -0.45286013196E+02  0.27296638704E+03  0.28909209201E+03  0.79947306684E+02 0.  0.
          6    2    1    2  501    0 -0.83010105948E+02 -0.18772219270E+02  0.11333682948E+04  0.11498685451E+04  0.17444456265E+03 0.  0.
         24    2    5    5    0    0  0.25362386090E+02 -0.19800926923E+02  0.45434195300E+03  0.46223163645E+03  0.78715615651E+02 0.  0.
          5    1    5    5  501    0 -0.10837249204E+03  0.10287076534E+01  0.67902634176E+03  0.68763690860E+03  0.47000000000E+01 0. -1.
        -13    1    6    6    0    0  0.46424835975E+02 -0.34369314342E+02  0.35352138732E+03  0.35820927746E+03  0.00000000000E+00 0.  1.
         14    1    6    6    0    0 -0.21062449885E+02  0.14568387419E+02  0.10082056568E+03  0.10402235900E+03  0.00000000000E+00 0. -1.
         -5    1    3    3    0  503  0.58086334762E+02  0.64058232466E+02  0.11363819328E+03  0.14287479975E+03  0.47000000000E+01 0.  1.
         13    1    4    4    0    0  0.35455682862E+02  0.11629419312E+02  0.10871417099E+03  0.11493963552E+03  0.00000000000E+00 0. -1.
        -14    1    4    4    0    0 -0.10531911676E+02 -0.56915432508E+02  0.16425221605E+03  0.17415245648E+03  0.00000000000E+00 0.  1.
</event>
<event>
12    1  0.8271773E-002  0.2872822E+03  0.7818608E-02  0.1092062E+00
         21   -1    0    0  503  502  0.00000000000E+00  0.00000000000E+00  0.57965861870E+02  0.57965861870E+02  0.00000000000E+00 0. -1.
         21   -1    0    0  501  503 -0.00000000000E+00 -0.00000000000E+00 -0.14133223677E+04  0.14133223677E+04  0.00000000000E+00 0.  1.
          6    2    1    2  501    0 -0.19017917740E+03  0.12367889306E+03 -0.68837818580E+03  0.74591929584E+03  0.17625686120E+03 0.  0.
         24    2    3    3    0    0 -0.17560222150E+03  0.34524186979E+02 -0.43779473107E+03  0.47950757117E+03  0.78963438198E+02 0.  0.
         -6    2    1    2    0  502  0.19017917740E+03 -0.12367889306E+03 -0.66697832006E+03  0.72536893375E+03  0.17272933314E+03 0.  0.
        -24    2    5    5    0    0  0.70536414611E+02 -0.74359295953E+02 -0.18492783291E+03  0.22622809641E+03  0.80474576976E+02 0.  0.
          5    1    3    3  501    0 -0.14576955896E+02  0.89154706082E+02 -0.25058345473E+03  0.26641172467E+03  0.47000000000E+01 0. -1.
        -11    1    4    4    0    0 -0.72397877013E+02  0.51832127951E+02 -0.16815936954E+03  0.19027768037E+03  0.00000000000E+00 0.  1.
         12    1    4    4    0    0 -0.10320434449E+03 -0.17307940972E+02 -0.26963536154E+03  0.28922989080E+03  0.00000000000E+00 0. -1.
         -5    1    5    5    0  502  0.11964276279E+03 -0.49319597108E+02 -0.48205048715E+03  0.49914083735E+03  0.47000000000E+01 0.  1.
         13    1    6    6    0    0 -0.13730242687E+02 -0.27253561515E+02 -0.68445852116E+02  0.74940715578E+02  0.00000000000E+00 0. -1.
        -14    1    6    6    0    0  0.84266657298E+02 -0.47105734438E+02 -0.11648198079E+03  0.15128738083E+03  0.00000000000E+00 0.  1.
</event>
<event>
12    1  0.8271773E-002  0.1744256E+03  0.7818608E-02  0.1174008E+00
         21   -1    0    0  501  502  0.00000000000E+00  0.00000000000E+00  0.12771079073E+03  0.12771079073E+03  0.00000000000E+00 0.  1.
         21   -1    0    0  502  503 -0.00000000000E+00 -0.00000000000E+00 -0.87068410516E+03  0.87068410516E+03  0.00000000000E+00 0.  1.
         -6    2    1    2    0  503 -0.26184059134E+02  0.70056824476E+01 -0.79740245735E+03  0.81567426350E+03  0.16952622392E+03 0.  0.
        -24    2    3    3    0    0 -0.51701796029E+02 -0.50696619432E+02 -0.52602979533E+03  0.53702408454E+03  0.80276390465E+02 0.  0.
          6    2    1    2  501    0  0.26184059134E+02 -0.70056824476E+01  0.54429142925E+02  0.18272063240E+03  0.17230674208E+03 0.  0.
         24    2    5    5    0    0 -0.36126566158E+01 -0.34918547599E+02  0.91799574782E+02  0.12717235171E+03  0.80704949385E+02 0.  0.
          5    1    5    5  501    0  0.29796715749E+02  0.27912865151E+02 -0.37370431856E+02  0.55548280689E+02  0.47000000000E+01 0. -1.
        -13    1    6    6    0    0  0.31749653532E+02 -0.65296477172E+01  0.69394548984E+02  0.76591645938E+02  0.00000000000E+00 0.  1.
         14    1    6    6    0    0 -0.35362310148E+02 -0.28388899882E+02  0.22405025798E+02  0.50580705773E+02  0.00000000000E+00 0. -1.
         -5    1    3    3    0  503  0.25517736896E+02  0.57702301880E+02 -0.27137266203E+03  0.27865017896E+03  0.47000000000E+01 0.  1.
         13    1    4    4    0    0  0.12849945953E+02  0.95466137540E+01 -0.40834726430E+02  0.43860390192E+02  0.00000000000E+00 0. -1.
        -14    1    4    4    0    0 -0.64551741983E+02 -0.60243233186E+02 -0.48519506890E+03  0.49316369434E+03  0.00000000000E+00 0.  1.
</event>
<event>
12    1  0.8271773E-002  0.2033136E+03  0.7818608E-02  0.1147039E+00
         21   -1    0    0  501  502  0.00000000000E+00  0.00000000000E+00  0.23958482853E+03  0.23958482853E+03  0.00000000000E+00 0. -1.
         21   -1    0    0  502  503 -0.00000000000E+00 -0.00000000000E+00 -0.21831822127E+03  0.21831822127E+03  0.00000000000E+00 0. -1.
         -6    2    1    2    0  503  0.10995915300E+03 -0.58611441215E+00 -0.94528455837E+02  0.22392674035E+03  0.17063468938E+03 0.  0.
        -24    2    3    3    0    0  0.43375879497E+02  0.56520973732E+02 -0.20723258929E+02  0.10919292268E+03  0.80109634303E+02 0.  0.
          6    2    1    2  501    0 -0.10995915300E+03  0.58611441215E+00  0.11579506310E+03  0.23397630945E+03  0.17101186475E+03 0.  0.
         24    2    5    5    0    0 -0.14974401023E+01  0.25262690485E+02  0.16262850969E+02  0.84639013960E+02  0.79112808729E+02 0.  0.
          5    1    5    5  501    0 -0.10846171290E+03 -0.24676576073E+02  0.99532212127E+02  0.14933729549E+03  0.47000000000E+01 0. -1.
        -13    1    6    6    0    0  0.28307727163E+02 -0.27235538116E+01  0.30163340896E+02  0.41455666640E+02  0.00000000000E+00 0.  1.
         14    1    6    6    0    0 -0.29805167266E+02  0.27986244297E+02 -0.13900489927E+02  0.43183347320E+02  0.00000000000E+00 0. -1.
         -5    1    3    3    0  503  0.66583273508E+02 -0.57107088144E+02 -0.73805196907E+02  0.11473381767E+03  0.47000000000E+01 0.  1.
         11    1    4    4    0    0  0.24080086000E+02 -0.13937691775E+02 -0.23008632507E+02  0.36104112835E+02  0.00000000000E+00 0. -1.
        -12    1    4    4    0    0  0.19295793497E+02  0.70458665506E+02  0.22853735773E+01  0.73088809841E+02  0.00000000000E+00 0.  1.
</event>
<event>
12    1  0.8271773E-002  0.1816844E+03  0.7818608E-02  0.1166408E+00
         21   -1    0    0  503  502  0.00000000000E+00  0.00000000000E+00  0.48582179107E+02  0.48582179107E+02  0.00000000000E+00 0.  1.
         21   -1    0    0  501  503 -0.00000000000E+00 -0.00000000000E+00 -0.96393144753E+03  0.96393144753E+03  0.00000000000E+00 0.  1.
          6    2    1    2  501    0 -0.56525916251E+02 -0.16997332418E+01 -0.73356101600E+03  0.75549963296E+03  0.17166788549E+03 0.  0.
         24    2    3    3    0    0 -0.55282572452E+02 -0.43654025531E+02 -0.67454782945E+03  0.68292997862E+03  0.80104586081E+02 0.  0.
         -6    2    1    2    0  502  0.56525916251E+02  0.16997332418E+01 -0.18178825241E+03  0.25701399367E+03  0.17265907426E+03 0.  0.
        -24    2    5    5    0    0 -0.10715110491E+00  0.60244809917E+02 -0.11017817046E+03  0.14845560312E+03  0.79185783120E+02 0.  0.
          5    1    3    3  501    0 -0.12433437990E+01  0.41954292289E+02 -0.59013186551E+02  0.72569654348E+02  0.47000000000E+01 0. -1.
        -11    1    4    4    0    0 -0.76252928595E+02 -0.32374866960E+02 -0.51864062620E+03  0.52521494673E+03  0.00000000000E+00 0.  1.
         12    1    4    4    0    0  0.20970356142E+02 -0.11279158571E+02 -0.15590720326E+03  0.15771503188E+03  0.00000000000E+00 0. -1.
         -5    1    5    5    0  502  0.56633067356E+02 -0.58545076675E+02 -0.71610081956E+02  0.10855839055E+03  0.47000000000E+01 0.  1.
         11    1    6    6    0    0  0.20160656384E+02  0.72627329715E+02 -0.89055350985E+02  0.11667063309E+03  0.00000000000E+00 0. -1.
        -12    1    6    6    0    0 -0.20267807489E+02 -0.12382519798E+02 -0.21122819472E+02  0.31784970024E+02  0.00000000000E+00 0.  1.
</event>
<event>
12    1  0.8271773E-002  0.1782974E+03  0.7818608E-02  0.1169610E+00
         21   -1    0    0  501  502  0.00000000000E+00  0.00000000000E+00  0.81986743980E+03  0.81986743980E+03  0.00000000000E+00 0. -1.
         21   -1    0    0  502  503 -0.00000000000E+00 -0.00000000000E+00 -0.48396852500E+02  0.48396852500E+02  0.00000000000E+00 0. -1.
         -6    2    1    2    0  503 -0.35159549320E+02  0.28033324879E+02  0.19136233314E+03  0.26155209594E+03  0.17253375071E+03 0.  0.
        -24    2    3    3    0    0  0.24505814714E+02  0.38177459103E+02  0.43435930741E+02  0.10165472369E+03  0.79930904105E+02 0.  0.
          6    2    1    2  501    0  0.35159549320E+02 -0.28033324879E+02  0.58010825416E+03  0.60671219636E+03  0.17190707216E+03 0.  0.
         24    2    5    5    0    0  0.81137853272E+02  0.14058545403E+02  0.42767297359E+03  0.44195681788E+03  0.75104344713E+02 0.  0.
          5    1    5    5  501    0 -0.45978303952E+02 -0.42091870282E+02  0.15243528057E+03  0.16475537848E+03  0.47000000000E+01 0. -1.
        -13    1    6    6    0    0  0.11414032501E+02  0.14249451730E+02  0.15563209149E+02  0.23990424997E+02  0.00000000000E+00 0.  1.
         14    1    6    6    0    0  0.69723820771E+02 -0.19090632658E+00  0.41210976444E+03  0.41796639288E+03  0.00000000000E+00 0. -1.
         -5    1    3    3    0  503 -0.59665364035E+02 -0.10144134224E+02  0.14792640240E+03  0.15989737225E+03  0.47000000000E+01 0.  1.
         11    1    4    4    0    0  0.21240023423E+02  0.17774901840E+02 -0.20503377064E+02  0.34459747554E+02  0.00000000000E+00 0. -1.
        -12    1    4    4    0    0  0.32657912916E+01  0.20402557263E+02  0.63939307805E+02  0.67194976138E+02  0.00000000000E+00 0.  1.
</event>
<event>
12    1  0.8271773E-002  0.1994513E+03  0.7818608E-02  0.1150382E+00
         21   -1    0    0  503  502  0.00000000000E+00  0.00000000000E+00  0.20912737176E+03  0.20912737176E+03  0.00000000000E+00 0. -1.
         21   -1    0    0  501  503 -0.00000000000E+00 -0.00000000000E+00 -0.19039769975E+03  0.19039769975E+03  0.00000000000E+00 0.  1.
          6    2    1    2  501    0 -0.10912235290E+02 -0.99462488613E+02  0.23723420670E+02  0.20085722621E+03  0.17253683987E+03 0.  0.
         24    2    3    3    0    0 -0.62369161314E+00 -0.32209727617E+02 -0.50493469632E+02  0.10006523844E+03  0.80159877272E+02 0.  0.
         -6    2    1    2    0  502  0.10912235290E+02  0.99462488613E+02 -0.49937486616E+01  0.19866784530E+03  0.17155789609E+03 0.  0.
        -24    2    5    5    0    0 -0.35981158863E+02  0.89018112213E+02  0.41141114740E+02  0.13189516350E+03  0.80528719963E+02 0.  0.
          5    1    3    3  501    0 -0.10288543677E+02 -0.67252760996E+02  0.74216890301E+02  0.10079198777E+03  0.47000000000E+01 0. -1.
        -13    1    4    4    0    0 -0.27866565837E+02  0.13156685034E+02 -0.70826183140E+01  0.31619730151E+02  0.00000000000E+00 0.  1.
         14    1    4    4    0    0  0.27242874224E+02 -0.45366412651E+02 -0.43410851318E+02  0.68445508289E+02  0.00000000000E+00 0. -1.
         -5    1    5    5    0  502  0.46893394153E+02  0.10444376400E+02 -0.46134863401E+02  0.66772681799E+02  0.47000000000E+01 0.  1.
         11    1    6    6    0    0  0.57981850578E+01 -0.74853535365E+00  0.31923123468E+02  0.32454045466E+02  0.00000000000E+00 0. -1.
        -12    1    6    6    0    0 -0.41779343921E+02  0.89766647566E+02  0.92179912717E+01  0.99441118039E+02  0.00000000000E+00 0.  1.
</event>
<event>
12    1  0.8271773E-002  0.1856501E+03  0.7818608E-02  0.1162566E+00
         21   -1    0    0  503  502  0.00000000000E+00  0.00000000000E+00  0.11137238051E+04  0.11137238051E+04  0.00000000000E+00 0.  1.
         21   -1    0    0  501  503 -0.00000000000E+00 -0.00000000000E+00 -0.54898078321E+02  0.54898078321E+02  0.00000000000E+00 0.  1.
          6    2    1    2  501    0  0.63384527250E+02 -0.35522533289E+02  0.14234082246E+03  0.23352266813E+03  0.17027177724E+03 0.  0.
         24    2    3    3    0    0  0.41246074864E+02 -0.86898371097E+02  0.73384065869E+02  0.14460297366E+03  0.79197432263E+02 0.  0.
         -6    2    1    2    0  502 -0.63384527250E+02  0.35522533289E+02  0.91648490435E+03  0.93509921532E+03  0.17084060973E+03 0.  0.
        -24    2    5    5    0    0  0.31872063820E+02  0.15731047128E+02  0.40166163097E+03  0.41114252448E+03  0.80267149862E+02 0.  0.
          5    1    3    3  501    0  0.22138452386E+02  0.51375837809E+02  0.68956756595E+02  0.88919694471E+02  0.47000000000E+01 0. -1.
        -11    1    4    4    0    0  0.45369650454E+01 -0.53116843678E+02 -0.29735609688E+01  0.53393119397E+02  0.00000000000E+00 0.  1.
         12    1    4    4    0    0  0.36709109819E+02 -0.33781527419E+02  0.76357626838E+02  0.91209854264E+02  0.00000000000E+00 0. -1.
         -5    1    5    5    0  502 -0.95256591071E+02  0.19791486161E+02  0.51482327338E+03  0.52395669084E+03  0.47000000000E+01 0.  1.
         11    1    6    6    0    0 -0.37993734517E+01 -0.23499975554E+02  0.23610457203E+03  0.23730160772E+03  0.00000000000E+00 0. -1.
        -12    1    6    6    0    0  0.35671437272E+02  0.39231022682E+02  0.16555705894E+03  0.17384091677E+03  0.00000000000E+00 0.  1.
</event>
<event>
12    1  0.8271773E-002  0.1743631E+03  0.7818608E-02  0.1174338E+00
         21   -1    0    0  503  502  0.00000000000E+00  0.00000000000E+00  0.31592800316E+02  0.31592800316E+02  0.00000000000E+00 0.  1.
         21   -1    0    0  501  503 -0.00000000000E+00 -0.00000000000E+00 -0.96667449562E+03  0.96667449562E+03  0.00000000000E+00 0.  1.
          6    2    1    2  501    0 -0.41299393845E+01 -0.98867938299E+00 -0.54298671831E+03  0.56915082340E+03  0.17052873548E+03 0.  0.
         24    2    3    3    0    0  0.31379324701E+02 -0.23268217387E+00 -0.14357186248E+03  0.16813237442E+03  0.81675574500E+02 0.  0.
         -6    2    1    2    0  502  0.41299393845E+01  0.98867938299E+00 -0.39209497699E+03  0.42911647254E+03  0.17431133679E+03 0.  0.
        -24    2    5    5    0    0 -0.66025499301E+02 -0.40664705558E+00 -0.21758363546E+03  0.24096751337E+03  0.79769493916E+02 0.  0.
          5    1    3    3  501    0 -0.35509264085E+02 -0.75599720911E+00 -0.39941485583E+03  0.40101844898E+03  0.47000000000E+01 0. -1.
        -13    1    4    4    0    0 -0.15415925055E+02  0.90289392094E+01 -0.10576762859E+03  0.10726585545E+03  0.00000000000E+00 0.  1.
         14    1    4    4    0    0  0.46795249756E+02 -0.92616213832E+01 -0.37804233896E+02  0.60866518964E+02  0.00000000000E+00 0. -1.
         -5    1    5    5    0  502  0.70155438685E+02  0.13953264386E+01 -0.17451134153E+03  0.18814895916E+03  0.47000000000E+01 0.  1.
         11    1    6    6    0    0 -0.26601053155E+02  0.17016469960E+02 -0.17115994787E+02  0.35918429203E+02  0.00000000000E+00 0. -1.
        -12    1    6    6    0    0 -0.39424446146E+02 -0.17423117016E+02 -0.20046764068E+03  0.20504908417E+03  0.00000000000E+00 0.  1.
</event>
<event>
12    1  0.8271773E-002  0.1951314E+03  0.7818608E-02  0.1157513E+00
         21   -1    0    0  501  502  0.00000000000E+00  0.00000000000E+00  0.78700611962E+03  0.78700611962E+03  0.00000000000E+00 0.  1.
         21   -1    0    0  502  503 -0.00000000000E+00 -0.00000000000E+00 -0.51953431974E+02  0.51953431974E+02  0.00000000000E+00 0. -1.
         -6    2    1    2    0  503 -0.37222775417E+01  0.57040618718E+02  0.51254025022E+03  0.54300674210E+03  0.16997448733E+03 0.  0.
        -24    2    3    3    0    0 -0.21122408164E+02 -0.16458346465E+02  0.39058119241E+03  0.39947638221E+03  0.79439780884E+02 0.  0.
          6    2    1    2  501    0  0.37222775417E+01 -0.57040618718E+02  0.22251243743E+03  0.29595280949E+03  0.18657114756E+03 0.  0.
         24    2    5    5    0    0 -0.25286346932E+02 -0.86770665175E+02  0.74903205318E+02  0.14253849673E+03  0.80859045297E+02 0.  0.
          5    1    5    5  501    0  0.29008624474E+02  0.29730046457E+02  0.14760923211E+03  0.15341431276E+03  0.47000000000E+01 0. -1.
        -11    1    6    6    0    0 -0.26350311999E+02 -0.64847801006E+02  0.91369496667E+02  0.11509978783E+03  0.00000000000E+00 0.  1.
         12    1    6    6    0    0  0.10639650664E+01 -0.21922864170E+02 -0.16466291350E+02  0.27438708896E+02  0.00000000000E+00 0. -1.
         -5    1    3    3    0  503  0.17400130622E+02  0.73498965183E+02  0.12195905781E+03  0.14353035989E+03  0.47000000000E+01 0.  1.
         11    1    4    4    0    0  0.30321942618E+02 -0.73871038656E+01  0.12802573065E+03  0.13177472146E+03  0.00000000000E+00 0. -1.
        -12    1    4    4    0    0 -0.51444350781E+02 -0.90712425992E+01  0.26255546176E+03  0.26770166076E+03  0.00000000000E+00 0.  1.
</event>
<event>
12    1  0.8271773E-002  0.1851913E+03  0.7818608E-02  0.1162931E+00
         21   -1    0    0  503  502  0.00000000000E+00  0.00000000000E+00  0.10243526808E+03  0.10243526808E+03  0.00000000000E+00 0.  1.
         21   -1    0    0  501  503 -0.00000000000E+00 -0.00000000000E+00 -0.17476394282E+04  0.17476394282E+04  0.00000000000E+00 0.  1.
          6    2    1    2  501    0  0.69137040226E+02  0.32971645333E+01 -0.16543529071E+04  0.16646575499E+04  0.17149465207E+03 0.  0.
         24    2    3    3    0    0  0.11366526441E+03 -0.17524578876E+01 -0.13665123458E+04  0.13733114668E+04  0.75534959710E+02 0.  0.
         -6    2    1    2    0  502 -0.69137040226E+02 -0.32971645333E+01  0.91487469399E+01  0.18541714638E+03  0.17177024474E+03 0.  0.
        -24    2    5    5    0    0 -0.93772058355E+02  0.44729471126E+02  0.12553215179E+02  0.13112974218E+03  0.79015831057E+02 0.  0.
          5    1    3    3  501    0 -0.44528224183E+02  0.50496224209E+01 -0.28784056132E+03  0.29134608317E+03  0.47000000000E+01 0. -1.
        -11    1    4    4    0    0  0.45059684769E+01  0.92954175385E+01 -0.46956416659E+03  0.46967777793E+03  0.00000000000E+00 0.  1.
         12    1    4    4    0    0  0.10915929593E+03 -0.11047875426E+02 -0.89694817919E+03  0.90363368884E+03  0.00000000000E+00 0. -1.
         -5    1    5    5    0  502  0.24635018129E+02 -0.48026635659E+02 -0.34044682387E+01  0.54287404201E+02  0.47000000000E+01 0.  1.
         11    1    6    6    0    0 -0.47049310347E+02  0.39013413290E+02 -0.29629277218E+02  0.67923325074E+02  0.00000000000E+00 0. -1.
        -12    1    6    6    0    0 -0.46722748008E+02  0.57160578365E+01  0.42182492397E+02  0.63206417106E+02  0.00000000000E+00 0.  1.
</event>
<event>
12    1  0.8271773E-002  0.1940877E+03  0.7818608E-02  0.1155980E+00
         21   -1    0    0  501  502  0.00000000000E+00  0.00000000000E+00  0.30084245457E+02  0.30084245457E+02  0.00000000000E+00 0. -1.
         21   -1    0    0  502  503 -0.00000000000E+00 -0.00000000000E+00 -0.12194884040E+04  0.12194884040E+04  0.00000000000E+00 0. -1.
         -6    2    1    2    0  503  0.82595942913E+02 -0.31169660851E+02 -0.60051064266E+03  0.62951973486E+03  0.16699828467E+03 0.  0.
        -24    2    3    3    0    0  0.10211967752E+03 -0.56640532212E+02 -0.36385051009E+03  0.39064727966E+03  0.81126598546E+02 0.  0.
          6    2    1    2  501    0 -0.82595942913E+02  0.31169660851E+02 -0.58889351585E+03  0.62005291457E+03  0.17284792828E+03 0.  0.
         24    2    5    5    0    0 -0.11777262915E+03  0.13283784830E+02 -0.33715574947E+03  0.36519747154E+03  0.75155456927E+02 0.  0.
          5    1    5    5  501    0  0.35176686240E+02  0.17885876021E+02 -0.25173776638E+03  0.25485544303E+03  0.47000000000E+01 0. -1.
        -11    1    6    6    0    0 -0.92263165533E+01  0.11636283921E+02 -0.48705726104E+01  0.15628515546E+02  0.00000000000E+00 0.  1.
         12    1    6    6    0    0 -0.10854631260E+03  0.16475009090E+01 -0.33228517686E+03  0.34956895600E+03  0.00000000000E+00 0. -1.
         -5    1    3    3    0  503 -0.19523734606E+02  0.25470871361E+02 -0.23666013258E+03  0.23887245520E+03  0.47000000000E+01 0.  1.
         11    1    4    4    0    0  0.53844292721E+01  0.18772230493E+02 -0.50988526888E+02  0.54600536540E+02  0.00000000000E+00 0. -1.
        -12    1    4    4    0    0  0.96735248247E+02 -0.75412762705E+02 -0.31286198320E+03  0.33604674312E+03  0.00000000000E+00 0.  1.
</event>
<event>
12    1  0.8271773E-002  0.1803087E+03  0.7818608E-02  0.1168229E+00
         21   -1    0    0  503  502  0.00000000000E+00  0.00000000000E+00  0.43222585072E+03  0.43222585072E+03  0.00000000000E+00 0. -1.
         21   -1    0    0  501  503 -0.00000000000E+00 -0.00000000000E+00 -0.74535218398E+02  0.74535218398E+02  0.00000000000E+00 0. -1.
          6    2    1    2  501    0  0.35295560443E+02 -0.36152693311E+02  0.20214465060E+03  0.27087578363E+03  0.17308505589E+03 0.  0.
         24    2    3    3    0    0 -0.17835733777E+02 -0.10397333399E+02  0.25667995605E+02  0.84724305670E+02  0.78058593580E+02 0.  0.
         -6    2    1    2    0  502 -0.35295560443E+02  0.36152693311E+02  0.15554598173E+03  0.23588528549E+03  0.16998388647E+03 0.  0.
        -24    2    5    5    0    0 -0.24549800841E+02  0.86228734702E+02  0.88528402076E+02  0.15140731645E+03  0.83957192015E+02 0.  0.
          5    1    3    3  501    0  0.53131294220E+02 -0.25755359913E+02  0.17647665499E+03  0.18615147796E+03  0.47000000000E+01 0. -1.
        -13    1    4    4    0    0 -0.68067886664E+01  0.11070027162E+02  0.49277350665E+02  0.50962095345E+02  0.00000000000E+00 0.  1.
         14    1    4    4    0    0 -0.11028945111E+02 -0.21467360561E+02 -0.23609355060E+02  0.33762210325E+02  0.00000000000E+00 0. -1.
         -5    1    5    5    0  502 -0.10745759603E+02 -0.50076041390E+02  0.67017579650E+02  0.84477969038E+02  0.47000000000E+01 0.  1.
         11    1    6    6    0    0 -0.29676747536E+02  0.80817503613E+02  0.10353341811E+03  0.13465268991E+03  0.00000000000E+00 0. -1.
        -12    1    6    6    0    0  0.51269466949E+01  0.54112310883E+01 -0.15005016034E+02  0.16754626540E+02  0.00000000000E+00 0.  1.
</event>
<event>
12    1  0.8271773E-002  0.2311138E+03  0.7818608E-02  0.1125963E+00
         21   -1    0    0  501  502  0.00000000000E+00  0.00000000000E+00  0.42341116786E+03  0.42341116786E+03  0.00000000000E+00 0. -1.
         21   -1    0    0  502  503 -0.00000000000E+00 -0.00000000000E+00 -0.14135803538E+03  0.14135803538E+03  0.00000000000E+00 0. -1.
         -6    2    1    2    0  503 -0.14595982480E+03 -0.47641408920E+02  0.47576738242E+02  0.23596007144E+03  0.17274152654E+03 0.  0.
        -24    2    3    3    0    0 -0.68568383764E+01 -0.26310234496E+02 -0.83476772447E+01  0.84453338642E+02  0.79520047917E+02 0.  0.
          6    2    1    2  501    0  0.14595982480E+03  0.47641408920E+02  0.23447639423E+03  0.32880913180E+03  0.17193688204E+03 0.  0.
         24    2    5    5    0    0  0.14755231931E+02  0.29205520813E+02  0.45131350428E+02  0.97663803551E+02  0.80191648052E+02 0.  0.
          5    1    5    5  501    0  0.13120459287E+03  0.18435888106E+02  0.18934504380E+03  0.23114532825E+03  0.47000000000E+01 0. -1.
        -13    1    6    6    0    0  0.13396032476E-01 -0.11055221061E+02 -0.18134479213E+02  0.21238583486E+02  0.00000000000E+00 0.  1.
         14    1    6    6    0    0  0.14741835898E+02  0.40260741874E+02  0.63265829641E+02  0.76425220065E+02  0.00000000000E+00 0. -1.
         -5    1    3    3    0  503 -0.13910298643E+03 -0.21331174423E+02  0.55924415487E+02  0.15150673280E+03  0.47000000000E+01 0.  1.
         13    1    4    4    0    0 -0.34346833325E+02  0.12404439000E+02 -0.23416778992E+01  0.36593148563E+02  0.00000000000E+00 0. -1.
        -14    1    4    4    0    0  0.27489994949E+02 -0.38714673497E+02 -0.60059993455E+01  0.47860190079E+02  0.00000000000E+00 0.  1.
</event>
<event>
12    1  0.8271773E-002  0.1737746E+03  0.7818608E-02  0.1173986E+00
         21   -1    0    0  501  502  0.00000000000E+00  0.00000000000E+00  0.43226605815E+02  0.43226605815E+02  0.00000000000E+00 0.  1.
         21   -1    0    0  502  503 -0.00000000000E+00 -0.00000000000E+00 -0.24940348843E+04  0.24940348843E+04  0.00000000000E+00 0. -1.
         -6    2    1    2    0  503  0.16319874285E+02 -0.25653124497E+02 -0.23018109861E+04  0.23083557860E+04  0.17102104431E+03 0.  0.
        -24    2    3    3    0    0  0.72840187973E+02 -0.58512651966E+01 -0.17495921733E+04  0.17528790837E+04  0.78564489183E+02 0.  0.
          6    2    1    2  501    0 -0.16319874285E+02  0.25653124497E+02 -0.14899729230E+03  0.22890570410E+03  0.17109414708E+03 0.  0.
         24    2    5    5    0    0  0.48359534860E+02 -0.18206933932E+02 -0.90830720017E+02  0.13137329501E+03  0.79615236529E+02 0.  0.
          5    1    5    5  501    0 -0.64679409144E+02  0.43860058430E+02 -0.58166572284E+02  0.97532409096E+02  0.47000000000E+01 0. -1.
        -13    1    6    6    0    0  0.17190644095E+02  0.26619999636E+01  0.12515764026E+02  0.21430091865E+02  0.00000000000E+00 0.  1.
         14    1    6    6    0    0  0.31168890765E+02 -0.20868933896E+02 -0.10334648404E+03  0.10994320314E+03  0.00000000000E+00 0. -1.
         -5    1    3    3    0  503 -0.56520313688E+02 -0.19801859301E+02 -0.55221881281E+03  0.55547670222E+03  0.47000000000E+01 0.  1.
         13    1    4    4    0    0  0.52993475740E+02 -0.36893231720E+02 -0.13649081653E+04  0.13664346741E+04  0.00000000000E+00 0. -1.
        -14    1    4    4    0    0  0.19846712233E+02  0.31041966524E+02 -0.38468400806E+03  0.38644440962E+03  0.00000000000E+00 0.  1.
</event>
<event>
12    1  0.8271773E-002  0.2157257E+03  0.7818608E-02  0.1138750E+00
         21   -1    0    0  503  502  0.00000000000E+00  0.00000000000E+00  0.93069474367E+03  0.93069474367E+03  0.00000000000E+00 0.  1.
         21   -1    0    0  501  503 -0.00000000000E+00 -0.00000000000E+00 -0.62739781953E+02  0.62739781953E+02  0.00000000000E+00 0. -1.
          6    2    1    2  501    0  0.11276959502E+03 -0.55738828939E+02  0.20047235651E+03  0.29449403562E+03  0.17525345268E+03 0.  0.
         24    2    3    3    0    0  0.11485986271E+03  0.20990943819E+02  0.11249063970E+03  0.17764070987E+03  0.72585604616E+02 0.  0.
         -6    2    1    2    0  502 -0.11276959502E+03  0.55738828939E+02  0.66748260520E+03  0.69894049000E+03  0.16480589099E+03 0.  0.
        -24    2    5    5    0    0 -0.11098854862E+03  0.12113761109E+02  0.32804979187E+03  0.35667883069E+03  0.84486218902E+02 0.  0.
          5    1    3    3  501    0 -0.20902676876E+01 -0.76729772758E+02  0.87981716807E+02  0.11685332575E+03  0.47000000000E+01 0. -1.
        -11    1    4    4    0    0  0.90891015095E+00 -0.60635006040E+01  0.38769926021E+02  0.39251742903E+02  0.00000000000E+00 0.  1.
         12    1    4    4    0    0  0.11395095256E+03  0.27054444422E+02  0.73720713683E+02  0.13838896696E+03  0.00000000000E+00 0. -1.
         -5    1    5    5    0  502 -0.17810464034E+01  0.43625067830E+02  0.33943281333E+03  0.34226165931E+03  0.47000000000E+01 0.  1.
         13    1    6    6    0    0 -0.52704015250E+02  0.41150714122E+02  0.10644104911E+03  0.12570119901E+03  0.00000000000E+00 0. -1.
        -14    1    6    6    0    0 -0.58284533365E+02 -0.29036953013E+02  0.22160874276E+03  0.23097763169E+03  0.00000000000E+00 0.  1.
</event>
<event>
12    1  0.8271773E-002  0.1932039E+03  0.7818608E-02  0.1155626E+00
         21   -1    0    0  501  502  0.00000000000E+00  0.00000000000E+00  0.37214352509E+03  0.37214352509E+03  0.00000000000E+00 0.  1.
         21   -1    0    0  502  503 -0.00000000000E+00 -0.00000000000E+00 -0.10228942130E+03  0.10228942130E+03  0.00000000000E+00 0.  1.
         -6    2    1    2    0  503 -0.44170724021E+01  0.87948260975E+02  0.10146630316E+03  0.21822727148E+03  0.17196896291E+03 0.  0.
        -24    2    3    3    0    0 -0.62262528048E+02  0.75798013838E+02  0.95212109570E+02  0.15860403623E+03  0.80423461742E+02 0.  0.
          6    2    1    2  501    0  0.44170724021E+01 -0.87948260975E+02  0.16838780064E+03  0.25620567491E+03  0.17185019439E+03 0.  0.
         24    2    5    5    0    0 -0.64223849173E+02 -0.64462571067E+02  0.87541446195E+02  0.14747951995E+03  0.76200906366E+02 0.  0.
          5    1    5    5  501    0  0.68640921575E+02 -0.23485689908E+02  0.80846354445E+02  0.10872615496E+03  0.47000000000E+01 0. -1.
        -13    1    6    6    0    0 -0.18523937508E+02 -0.56833995292E+02  0.81028284441E+02  0.10069171843E+03  0.00000000000E+00 0.  1.
         14    1    6    6    0    0 -0.45699911665E+02 -0.76285757746E+01  0.65131617542E+01  0.46787801514E+02  0.00000000000E+00 0. -1.
         -5    1    3    3    0  503  0.57845455646E+02  0.12150247137E+02  0.62541935868E+01  0.59623235251E+02  0.47000000000E+01 0.  1.
         13    1    4    4    0    0 -0.76998726042E+02  0.39135640141E+02  0.56014527272E+02  0.10294673092E+03  0.00000000000E+00 0. -1.
        -14    1    4    4    0    0  0.14736197993E+02  0.36662373697E+02  0.39197582298E+02  0.55657305311E+02  0.00000000000E+00 0.  1.
</event>
<event>
12    1  0.8271773E-002  0.2686568E+03  0.7818608E-02  0.1102223E+00
         21   -1    0    0  503  502  0.00000000000E+00  0.00000000000E+00  0.10554147717E+03  0.10554147717E+03  0.00000000000E+00 0.  1.
         21   -1    0    0  501  503 -0.00000000000E+00 -0.00000000000E+00 -0.12562815783E+04  0.12562815783E+04  0.00000000000E+00 0.  1.
          6    2    1    2  501    0  0.17041191024E+03 -0.11573510822E+03 -0.10355162961E+04  0.10694995887E+04  0.17058879336E+03 0.  0.
         24    2    3    3    0    0  0.13461425988E+03 -0.12244980587E+03 -0.60274418796E+03  0.63517212414E+03  0.83833866879E+02 0.  0.
         -6    2    1    2    0  502 -0.17041191024E+03  0.11573510822E+03 -0.11522380499E+03  0.29232346668E+03  0.17245767454E+03 0.  0.
        -24    2    5    5    0    0 -0.14185313442E+03  0.10074191476E+03 -0.20264642864E+02  0.19192559818E+03  0.78444466686E+02 0.  0.
          5    1    3    3  501    0  0.35797650359E+02  0.67146976493E+01 -0.43277210813E+03  0.43432746461E+03  0.47000000000E+01 0. -1.
        -11    1    4    4    0    0  0.21636686010E+00 -0.21763255150E+02 -0.16313015201E+03  0.16457561357E+03  0.00000000000E+00 0.  1.
         12    1    4    4    0    0  0.13439789302E+03 -0.10068655072E+03 -0.43961403596E+03  0.47059651056E+03  0.00000000000E+00 0. -1.
         -5    1    5    5    0  502 -0.28558775820E+02  0.14993193461E+02 -0.94959162126E+02  0.10039786849E+03  0.47000000000E+01 0.  1.
         13    1    6    6    0    0 -0.12179666727E+03  0.69346902450E+02  0.14584980947E+02  0.14091182600E+03  0.00000000000E+00 0. -1.
        -14    1    6    6    0    0 -0.20056467146E+02  0.31395012313E+02 -0.34849623811E+02  0.51013772183E+02  0.00000000000E+00 0.  1.
</event>
<event>
12    1  0.8271773E-002  0.2770284E+03  0.7818608E-02  0.1097422E+00
         21   -1    0    0  501  502  0.00000000000E+00  0.00000000000E+00  0.27916993781E+03  0.27916993781E+03  0.00000000000E+00 0.  1.
         21   -1    0    0  502  503 -0.00000000000E+00 -0.00000000000E+00 -0.48405118851E+03  0.48405118851E+03  0.00000000000E+00 0. -1.
         -6    2    1    2    0  503  0.14395787921E+03  0.16053186223E+03 -0.35363142979E+03  0.44878295320E+03  0.17279062812E+03 0.  0.
        -24    2    3    3    0    0  0.15342340530E+03  0.14514348690E+03 -0.36346054078E+03  0.42768556705E+03  0.78778210679E+02 0.  0.
          6    2    1    2  501    0 -0.14395787921E+03 -0.16053186223E+03  0.14875017909E+03  0.31443817312E+03  0.17392641880E+03 0.  0.
         24    2    5    5    0    0 -0.15976748246E+03 -0.17107886763E+03  0.15710023541E+03  0.29315446296E+03  0.80407883834E+02 0.  0.
          5    1    5    5  501    0  0.15809603242E+02  0.10547005404E+02 -0.83500563267E+01  0.21283710163E+02  0.47000000000E+01 0. -1.
        -13    1    6    6    0    0 -0.23958323162E+01 -0.46308483450E+02  0.35257099257E+02  0.58251855764E+02  0.00000000000E+00 0.  1.
         14    1    6    6    0    0 -0.15737165014E+03 -0.12477038418E+03  0.12184313616E+03  0.23490260719E+03  0.00000000000E+00 0. -1.
         -5    1    3    3    0  503 -0.94655260872E+01  0.15388375334E+02  0.98291109873E+01  0.21097386149E+02  0.47000000000E+01 0.  1.
         11    1    4    4    0    0  0.91516471896E+02  0.68707352980E+02 -0.12361146433E+03  0.16845105846E+03  0.00000000000E+00 0. -1.
        -12    1    4    4    0    0  0.61906933406E+02  0.76436133917E+02 -0.23984907645E+03  0.25923450860E+03  0.00000000000E+00 0.  1.
</event>
<event>
12    1  0.8271773E-002  0.1941872E+03  0.7818608E-02  0.1155106E+00
         21   -1    0    0  501  502  0.00000000000E+00  0.00000000000E+00  0.50723738933E+03  0.50723738933E+03  0.00000000000E+00 0. -1.
         21   -1    0    0  502  503 -0.00000000000E+00 -0.00000000000E+00 -0.16542593206E+03  0.16542593206E+03  0.00000000000E+00 0.  1.
         -6    2    1    2    0  503  0.27911878661E+02  0.86932656819E+02 -0.79864311226E+02  0.20842294243E+03  0.16948585466E+03 0.  0.
        -24    2    3    3    0    0  0.18834321267E+02  0.30614954002E+02 -0.11175938342E+03  0.14289835674E+03  0.81472532250E+02 0.  0.
          6    2    1    2  501    0 -0.27911878661E+02 -0.86932656819E+02  0.42167576850E+03  0.46424037896E+03  0.17138353459E+03 0.  0.
         24    2    5    5    0    0  0.21030279318E+02 -0.80605549269E+02  0.14571920829E+03  0.18386655665E+03  0.75055284737E+02 0.  0.
          5    1    5    5  501    0 -0.48942157979E+02 -0.63271075499E+01  0.27595656021E+03  0.28037382231E+03  0.47000000000E+01 0. -1.
        -13    1    6    6    0    0 -0.22483866406E+02 -0.41477437466E+02  0.35386695334E+02  0.58975590493E+02  0.00000000000E+00 0.  1.
         14    1    6    6    0    0  0.43514145724E+02 -0.39128111803E+02  0.11033251296E+03  0.12489096615E+03  0.00000000000E+00 0. -1.
         -5    1    3    3    0  503  0.90775573938E+01  0.56317702817E+02  0.31895072196E+02  0.65524585685E+02  0.47000000000E+01 0.  1.
         13    1    4    4    0    0  0.21472411333E+02 -0.13189655108E+02 -0.27038335406E+01  0.25344470129E+02  0.00000000000E+00 0. -1.
        -14    1    4    4    0    0 -0.26380900653E+01  0.43804609110E+02 -0.10905554988E+03  0.11755388661E+03  0.00000000000E+00 0.  1.
</event>
<event>
12    1  0.8271773E-002  0.1977515E+03  0.7818608E-02  0.1151788E+00
         21   -1    0    0  503  502  0.00000000000E+00  0.00000000000E+00  0.50790168828E+02  0.50790168828E+02  0.00000000000E+00 0. -1.
         21   -1    0    0  501  503 -0.00000000000E+00 -0.00000000000E+00 -0.12081055306E+04  0.12081055306E+04  0.00000000000E+00 0. -1.
          6    2    1    2  501    0  0.87088968039E+02 -0.40884594402E+02 -0.95821266489E+03  0.97827577403E+03  0.17203470724E+03 0.  0.
         24    2    3    3    0    0  0.56607957415E+01 -0.43098870305E+02 -0.73591504529E+03  0.74147676234E+03  0.79544188792E+02 0.  0.
         -6    2    1    2    0  502 -0.87088968039E+02  0.40884594402E+02 -0.19910269689E+03  0.28061992540E+03  0.17277042632E+03 0.  0.
        -24    2    5    5    0    0  0.58990529349E+01  0.28124834265E+02 -0.15478022561E+03  0.17671537794E+03  0.80284503053E+02 0.  0.
          5    1    3    3  501    0  0.81428172298E+02  0.22142759024E+01 -0.22229761960E+03  0.23679901170E+03  0.47000000000E+01 0. -1.
        -13    1    4    4    0    0  0.30747863785E+02  0.72022090245E+01 -0.35999563654E+03  0.36137814166E+03  0.00000000000E+00 0.  1.
         14    1    4    4    0    0 -0.25087068043E+02 -0.50301079329E+02 -0.37591940875E+03  0.38009862068E+03  0.00000000000E+00 0. -1.
         -5    1    5    5    0  502 -0.92988020974E+02  0.12759760137E+02 -0.44322471275E+02  0.10390454746E+03  0.47000000000E+01 0.  1.
         11    1    6    6    0    0 -0.17063842669E+02 -0.96333597515E+01 -0.45453364371E+01  0.20115576801E+02  0.00000000000E+00 0. -1.
        -12    1    6    6    0    0  0.22962895604E+02  0.37758194017E+02 -0.15023488918E+03  0.15659980113E+03  0.00000000000E+00 0.  1.
</event>
<event>
12    1  0.8271773E-002  0.4862163E+03  0.7818608E-02  0.1017461E+00
         21   -1    0    0  501  502  0.00000000000E+00  0.00000000000E+00  0.27226016561E+03  0.27226016561E+03  0.00000000000E+00 0. -1.
         21   -1    0    0  502  503 -0.00000000000E+00 -0.00000000000E+00 -0.88677773899E+03  0.88677773899E+03  0.00000000000E+00 0. -1.
         -6    2    1    2    0  503  0.83836662815E+02  0.44685133905E+03 -0.39201639019E+03  0.62432953987E+03  0.17148124952E+03 0.  0.
        -24    2    3    3    0    0  0.47427762043E+02  0.41235422138E+03 -0.38865468408E+03  0.57384141997E+03  0.77175872634E+02 0.  0.
          6    2    1    2  501    0 -0.83836662815E+02 -0.44685133905E+03 -0.22250118319E+03  0.53470836473E+03  0.17234138663E+03 0.  0.
         24    2    5    5    0    0 -0.84340788140E+02 -0.38640758783E+03 -0.12786830780E+03  0.42231987639E+03  0.74696595540E+02 0.  0.
          5    1    5    5  501    0  0.50412532477E+00 -0.60443751223E+02 -0.94632875395E+02  0.11238848833E+03  0.47000000000E+01 0. -1.
        -13    1    6    6    0    0 -0.87890263798E+01 -0.14647427740E+02 -0.23154352007E+02  0.28773566706E+02  0.00000000000E+00 0.  1.
         14    1    6    6    0    0 -0.75551761760E+02 -0.37176016009E+03 -0.10471395579E+03  0.39354630969E+03  0.00000000000E+00 0. -1.
         -5    1    3    3    0  503  0.36408900771E+02  0.34497117668E+02 -0.33617061103E+01  0.50488119897E+02  0.47000000000E+01 0.  1.
         11    1    4    4    0    0  0.24176405872E+02  0.38664574677E+03 -0.36043592736E+03  0.52914411064E+03  0.00000000000E+00 0. -1.
        -12    1    4    4    0    0  0.23251356171E+02  0.25708474615E+02 -0.28218756719E+02  0.44697309333E+02  0.00000000000E+00 0.  1.
</event>
<event>
12    1  0.8271773E-002  0.1832737E+03  0.7818608E-02  0.1165338E+00
         21   -1    0    0  501  502  0.00000000000E+00  0.00000000000E+00  0.30526362502E+03  0.30526362502E+03  0.00000000000E+00 0. -1.
         21   -1    0    0  502  503 -0.00000000000E+00 -0.00000000000E+00 -0.10841510720E+03  0.10841510720E+03  0.00000000000E+00 0. -1.
         -6    2    1    2    0  503  0.42975507543E+02 -0.35710391234E+02  0.10226498142E+03  0.20743785809E+03  0.17161064144E+03 0.  0.
        -24    2    3    3    0    0  0.80178851347E+02 -0.57231035796E+02  0.10352599417E+03  0.16418387463E+03  0.80837327747E+02 0.  0.
          6    2    1    2  501    0 -0.42975507543E+02  0.35710391234E+02  0.94583536402E+02  0.20624087412E+03  0.17454835006E+03 0.  0.
         24    2    5    5    0    0 -0.71230405644E+02 -0.29007451796E+02  0.46525641212E+02  0.12069328641E+03  0.80542107907E+02 0.  0.
          5    1    5    5  501    0  0.28254898101E+02  0.64717843030E+02  0.48057895190E+02  0.85547587712E+02  0.47000000000E+01 0. -1.
        -11    1    6    6    0    0 -0.82515299677E+01 -0.37805058653E+02  0.41749331126E+02  0.56923781112E+02  0.00000000000E+00 0.  1.
         12    1    6    6    0    0 -0.62978875676E+02  0.87976068566E+01  0.47763100853E+01  0.63769505297E+02  0.00000000000E+00 0. -1.
         -5    1    3    3    0  503 -0.37203343805E+02  0.21520644562E+02 -0.12610127455E+01  0.43253983467E+02  0.47000000000E+01 0.  1.
         11    1    4    4    0    0  0.50643989299E+02  0.10982125856E+02  0.54122958343E+02  0.74931404366E+02  0.00000000000E+00 0. -1.
        -12    1    4    4    0    0  0.29534862048E+02 -0.68213161653E+02  0.49403035822E+02  0.89252470259E+02  0.00000000000E+00 0.  1.
</event>
<event>
12    1  0.8271773E-002  0.1873450E+03  0.7818608E-02  0.1161418E+00
         21   -1    0    0  501  502  0.00000000000E+00  0.00000000000E+00  0.83296854746E+03  0.83296854746E+03  0.00000000000E+00 0.  1.
         21   -1    0    0  502  503 -0.00000000000E+00 -0.00000000000E+00 -0.41949264946E+02  0.41949264946E+02  0.00000000000E+00 0. -1.
         -6    2    1    2    0  503 -0.51536808972E+02  0.47265964363E+02  0.35388543658E+03  0.39932961639E+03  0.17128667852E+03 0.  0.
        -24    2    3    3    0    0 -0.82584853477E+02  0.55767659680E+01  0.31104590442E+03  0.33180713239E+03  0.80591935722E+02 0.  0.
          6    2    1    2  501    0  0.51536808972E+02 -0.47265964363E+02  0.43713384594E+03  0.47558819602E+03  0.17380454212E+03 0.  0.
         24    2    5    5    0    0  0.37628004270E+02  0.40221823874E+02  0.19521325082E+03  0.21791547282E+03  0.79657254389E+02 0.  0.
          5    1    5    5  501    0  0.13908804702E+02 -0.87487788237E+02  0.24192059512E+03  0.25767272320E+03  0.47000000000E+01 0. -1.
        -11    1    6    6    0    0  0.18508764108E+02  0.34611498980E+02  0.19402452447E+03  0.19795465720E+03  0.00000000000E+00 0.  1.
         12    1    6    6    0    0  0.19119240162E+02  0.56103248948E+01  0.11887263472E+01  0.19960815618E+02  0.00000000000E+00 0. -1.
         -5    1    3    3    0  503  0.31048044504E+02  0.41689198395E+02  0.42839532155E+02  0.67522484001E+02  0.47000000000E+01 0.  1.
         11    1    4    4    0    0 -0.27891964790E+01 -0.19918136026E+02  0.17890937883E+02  0.26918347239E+02  0.00000000000E+00 0. -1.
        -12    1    4    4    0    0 -0.79795656998E+02  0.25494901994E+02  0.29315496654E+03  0.30488878515E+03  0.00000000000E+00 0.  1.
</event>
<event>
12    1  0.8271773E-002  0.1993312E+03  0.7818608E-02  0.1150307E+00
         21   -1    0    0  501  502  0.00000000000E+00  0.00000000000E+00  0.16516343355E+04  0.16516343355E+04  0.00000000000E+00 0. -1.
         21   -1    0    0  502  503 -0.00000000000E+00 -0.00000000000E+00 -0.66793737792E+02  0.66793737792E+02  0.00000000000E+00 0.  1.
         -6    2    1    2    0  503 -0.99720780789E+02 -0.20180281928E+02  0.10511588030E+03  0.22533792897E+03  0.17139532094E+03 0.  0.
        -24    2    3    3    0    0 -0.37325189082E+02 -0.75055766515E+02  0.58208000664E+02  0.12980276348E+03  0.80212519209E+02 0.  0.
          6    2    1    2  501    0  0.99720780789E+02  0.20180281928E+02  0.14797247175E+04  0.14930901444E+04  0.17141021521E+03 0.  0.
         24    2    5    5    0    0  0.12009153754E+03  0.27757518084E+02  0.14404332865E+04  0.14479427327E+04  0.80607983333E+02 0.  0.
          5    1    5    5  501    0 -0.20370756754E+02 -0.75772361559E+01  0.39291430924E+02  0.45147411693E+02  0.47000000000E+01 0. -1.
        -13    1    6    6    0    0  0.99575898400E+02 -0.12182123291E+02  0.87573269073E+03  0.88145987389E+03  0.00000000000E+00 0.  1.
         14    1    6    6    0    0  0.20515639144E+02  0.39939641375E+02  0.56470059580E+03  0.56648285879E+03  0.00000000000E+00 0. -1.
         -5    1    3    3    0  503 -0.62395591707E+02  0.54875484587E+02  0.46907879639E+02  0.95535165491E+02  0.47000000000E+01 0.  1.
         13    1    4    4    0    0 -0.56478622890E+02 -0.39704671095E+02  0.14746201794E+02  0.70595652966E+02  0.00000000000E+00 0. -1.
        -14    1    4    4    0    0  0.19153433809E+02 -0.35351095420E+02  0.43461798870E+02  0.59207110511E+02  0.00000000000E+00 0.  1.
</event>
<event>
12    1  0.8271773E-002  0.2113530E+03  0.7818608E-02  0.1141293E+00
         21   -1    0    0  501  502  0.00000000000E+00  0.00000000000E+00  0.88341008750E+02  0.88341008750E+02  0.00000000000E+00 0. -1.
         21   -1    0    0  502  503 -0.00000000000E+00 -0.00000000000E+00 -0.52980791850E+03  0.52980791850E+03  0.00000000000E+00 0.  1.
         -6    2    1    2    0  503 -0.84534693317E+02 -0.85136185830E+02 -0.30063840370E+03  0.36749633170E+03  0.17399948138E+03 0.  0.
        -24    2    3    3    0    0 -0.10762304724E+03 -0.87747706563E+02 -0.30401461043E+03  0.34355095846E+03  0.79498411300E+02 0.  0.
          6    2    1    2  501    0  0.84534693317E+02  0.85136185830E+02 -0.14082850605E+03  0.25065259555E+03  0.16911466829E+03 0.  0.
         24    2    5    5    0    0  0.10772974161E+03  0.10831863055E+03 -0.12989123644E+03  0.21576492044E+03  0.79650138983E+02 0.  0.
          5    1    5    5  501    0 -0.23195048288E+02 -0.23182444716E+02 -0.10937269609E+02  0.34887675111E+02  0.47000000000E+01 0. -1.
        -11    1    6    6    0    0  0.50449154639E+02  0.99595142428E+02 -0.10295581449E+03  0.15186905325E+03  0.00000000000E+00 0.  1.
         12    1    6    6    0    0  0.57280586967E+02  0.87234881180E+01 -0.26935421952E+02  0.63895867189E+02  0.00000000000E+00 0. -1.
         -5    1    3    3    0  503  0.23088353927E+02  0.26115207330E+01  0.33762067288E+01  0.23945373238E+02  0.47000000000E+01 0.  1.
         13    1    4    4    0    0 -0.42761215262E+02 -0.35904782254E+01 -0.15299382874E+03  0.15889784359E+03  0.00000000000E+00 0. -1.
        -14    1    4    4    0    0 -0.64861831982E+02 -0.84157228337E+02 -0.15102078169E+03  0.18465311487E+03  0.00000000000E+00 0.  1.
</event>
<event>
12    1  0.8271773E-002  0.1758729E+03  0.7818608E-02  0.1172404E+00
         21   -1    0    0  501  502  0.00000000000E+00  0.00000000000E+00  0.37292128499E+02  0.37292128499E+02  0.00000000000E+00 0.  1.
         21   -1    0    0  502  503 -0.00000000000E+00 -0.00000000000E+00 -0.82441327285E+03  0.82441327285E+03  0.00000000000E+00 0.  1.
         -6    2    1    2    0  503 -0.21135689058E+02 -0.67460509100E+01 -0.42533901879E+03  0.45943983873E+03  0.17227727057E+03 0.  0.
        -24    2    3    3    0    0 -0.23774209165E+02  0.40652850947E+02 -0.38584007316E+03  0.39750540250E+03  0.83187232486E+02 0.  0.
          6    2    1    2  501    0  0.21135689058E+02  0.67460509100E+01 -0.36178212557E+03  0.40226556262E+03  0.17446790518E+03 0.  0.
         24    2    5    5    0    0  0.54593624158E+02 -0.49563124994E+02 -0.24461257998E+03  0.26794896229E+03  0.80773541142E+02 0.  0.
          5    1    5    5  501    0 -0.33457935099E+02  0.56309175904E+02 -0.11716954558E+03  0.13431660033E+03  0.47000000000E+01 0. -1.
        -11    1    6    6    0    0  0.59588639924E+02 -0.31538752019E+02 -0.23913844295E+03  0.24846064836E+03  0.00000000000E+00 0.  1.
         12    1    6    6    0    0 -0.49950157659E+01 -0.18024372975E+02 -0.54741370356E+01  0.19488313933E+02  0.00000000000E+00 0. -1.
         -5    1    3    3    0  503  0.26385201070E+01 -0.47398901857E+02 -0.39498945627E+02  0.61934436231E+02  0.47000000000E+01 0.  1.
         13    1    4    4    0    0  0.55220134318E+01 -0.17793727589E+02 -0.27287685548E+02  0.33041294715E+02  0.00000000000E+00 0. -1.
        -14    1    4    4    0    0 -0.29296222597E+02  0.58446578536E+02 -0.35855238761E+03  0.36446410778E+03  0.00000000000E+00 0.  1.
</event>
<event>
12    1  0.8271773E-002  0.2383867E+03  0.7818608E-02  0.1122021E+00
         21   -1    0    0  503  502  0.00000000000E+00  0.00000000000E+00  0.42087911503E+03  0.42087911503E+03  0.00000000000E+00 0.  1.
         21   -1    0    0  501  503 -0.00000000000E+00 -0.00000000000E+00 -0.14875802420E+03  0.14875802420E+03  0.00000000000E+00 0.  1.
          6    2    1    2  501    0 -0.15361291169E+03  0.14498757714E+02  0.36599076283E+02  0.23452697394E+03  0.17278966552E+03 0.  0.
         24    2    3    3    0    0 -0.59594482962E+02  0.44320463969E+02  0.71003948925E+02  0.12995841096E+03  0.79572745896E+02 0.  0.
         -6    2    1    2    0  502  0.15361291169E+03 -0.14498757714E+02  0.23552201455E+03  0.33511016528E+03  0.18171698580E+03 0.  0.
        -24    2    5    5    0    0  0.48234637003E+02 -0.29285683631E+02  0.20104147989E+03  0.22315378439E+03  0.78712790440E+02 0.  0.
          5    1    3    3  501    0 -0.94018428723E+02 -0.29821706255E+02 -0.34404872642E+02  0.10456856299E+03  0.47000000000E+01 0. -1.
        -11    1    4    4    0    0 -0.65414985970E+01 -0.55643940721E+01 -0.14988068077E+02  0.17274138762E+02  0.00000000000E+00 0.  1.
         12    1    4    4    0    0 -0.53052984365E+02  0.49884858041E+02  0.85992017002E+02  0.11268427219E+03  0.00000000000E+00 0. -1.
         -5    1    5    5    0  502  0.10537827468E+03  0.14786925917E+02  0.34480534659E+02  0.11195638090E+03  0.47000000000E+01 0.  1.
         11    1    6    6    0    0  0.13020229891E+02  0.26067348139E+02  0.42052024517E+02  0.51160588263E+02  0.00000000000E+00 0. -1.
        -12    1    6    6    0    0  0.35214407112E+02 -0.55353031770E+02  0.15898945537E+03  0.17199319612E+03  0.00000000000E+00 0.  1.
</event>
<event>
12    1  0.8271773E-002  0.2316126E+03  0.7818608E-02  0.1125833E+00
         21   -1    0    0  503  502  0.00000000000E+00  0.00000000000E+00  0.55195558120E+03  0.55195558120E+03  0.00000000000E+00 0. -1.
         21   -1    0    0  501  503 -0.00000000000E+00 -0.00000000000E+00 -0.96929110810E+02  0.96929110810E+02  0.00000000000E+00 0. -1.
          6    2    1    2  501    0 -0.46538965990E+02 -0.14589434752E+03  0.20302996873E+03  0.30661776202E+03  0.17129579034E+03 0.  0.
         24    2    3    3    0    0 -0.54342493097E+02 -0.52107227579E+02  0.17889856923E+03  0.20934837658E+03  0.78446000425E+02 0.  0.
         -6    2    1    2    0  502  0.46538965990E+02  0.14589434752E+03  0.25199650165E+03  0.34226692998E+03  0.17376241977E+03 0.  0.
        -24    2    5    5    0    0  0.28259051354E+02  0.94262576835E+02  0.25820634343E+03  0.28694381404E+03  0.77344872176E+02 0.  0.
          5    1    3    3  501    0  0.78035271065E+01 -0.93787119940E+02  0.24131399506E+02  0.97269385441E+02  0.47000000000E+01 0. -1.
        -13    1    4    4    0    0 -0.73366496966E+02 -0.45040915265E+02  0.12519125319E+03  0.15193477811E+03  0.00000000000E+00 0.  1.
         14    1    4    4    0    0  0.19024003869E+02 -0.70663123140E+01  0.53707316037E+02  0.57413598466E+02  0.00000000000E+00 0. -1.
         -5    1    5    5    0  502  0.18279914636E+02  0.51631770684E+02 -0.62098417797E+01  0.55323115946E+02  0.47000000000E+01 0.  1.
         11    1    6    6    0    0  0.12996374420E+02  0.10357774095E+03  0.23843951666E+03  0.26028956428E+03  0.00000000000E+00 0. -1.
        -12    1    6    6    0    0  0.15262676934E+02 -0.93151641112E+01  0.19766826770E+02  0.26654249758E+02  0.00000000000E+00 0.  1.
</event>
<event>
12    1  0.8271773E-002  0.2000142E+03  0.7818608E-02  0.1149771E+00
         21   -1    0    0  501  502  0.00000000000E+00  0.00000000000E+00  0.40038783787E+03  0.40038783787E+03  0.00000000000E+00 0. -1.
         21   -1    0    0  502  503 -0.00000000000E+00 -0.00000000000E+00 -0.16019267293E+03  0.16019267293E+03  0.00000000000E+00 0.  1.
         -6    2    1    2    0  503 -0.97500977725E+02  0.28486629805E+02 -0.51944212686E+02  0.20664918204E+03  0.17230134785E+03 0.  0.
        -24    2    3    3    0    0 -0.77016893206E+02  0.71393508463E+02 -0.77687465272E+02  0.15237761482E+03  0.78453555362E+02 0.  0.
          6    2    1    2  501    0  0.97500977725E+02 -0.28486629805E+02  0.29213937763E+03  0.35393132877E+03  0.17205824824E+03 0.  0.
         24    2    5    5    0    0  0.60921082705E+02 -0.47052884070E+02  0.76194835473E+02  0.13407471685E+03  0.79025467591E+02 0.  0.
          5    1    5    5  501    0  0.36579895020E+02  0.18566254265E+02  0.21594454216E+03  0.21985661192E+03  0.47000000000E+01 0. -1.
        -11    1    6    6    0    0  0.60846324110E+02 -0.64465120580E+02  0.75836738391E+02  0.11665863800E+03  0.00000000000E+00 0.  1.
         12    1    6    6    0    0  0.74758594652E-01  0.17412236510E+02  0.35809708213E+00  0.17416078854E+02  0.00000000000E+00 0. -1.
         -5    1    3    3    0  503 -0.20484084519E+02 -0.42906878658E+02  0.25743252585E+02  0.54271567219E+02  0.47000000000E+01 0.  1.
         11    1    4    4    0    0 -0.90420081231E+01  0.24280762631E+02  0.13545486542E+02  0.29236852609E+02  0.00000000000E+00 0. -1.
        -12    1    4    4    0    0 -0.67974885082E+02  0.47112745832E+02 -0.91232951814E+02  0.12314076221E+03  0.00000000000E+00 0.  1.
</event>
<event>
12    1  0.8271773E-002  0.2765033E+03  0.7818608E-02  0.1097714E+00
         21   -1    0    0  503  502  0.00000000000E+00  0.00000000000E+00  0.28582486430E+03  0.28582486430E+03  0.00000000000E+00 0. -1.
         21   -1    0    0  501  503 -0.00000000000E+00 -0.00000000000E+00 -0.36279210026E+03  0.36279210026E+03  0.00000000000E+00 0. -1.
          6    2    1    2  501    0 -0.18011981177E+03 -0.11987951924E+03 -0.20534876347E+03  0.34441575367E+03  0.17216228097E+03 0.  0.
         24    2    3    3    0    0 -0.19912643793E+03 -0.12801890358E+03 -0.16619596821E+03  0.29989011170E+03  0.79201018231E+02 0.  0.
         -6    2    1    2    0  502  0.18011981177E+03  0.11987951924E+03  0.12838152752E+03  0.30420121089E+03  0.17100384316E+03 0.  0.
        -24    2    5    5    0    0  0.83866833688E+02  0.13350582894E+03  0.99152662578E+02  0.20258069795E+03  0.79688371366E+02 0.  0.
          5    1    3    3  501    0  0.19006626167E+02  0.81393843378E+01 -0.39152795261E+02  0.44525641965E+02  0.47000000000E+01 0. -1.
        -11    1    4    4    0    0 -0.73916227838E+02 -0.10388220868E+02 -0.29174908443E+02  0.80141744136E+02  0.00000000000E+00 0.  1.
         12    1    4    4    0    0 -0.12521021009E+03 -0.11763068271E+03 -0.13702105977E+03  0.21974836757E+03  0.00000000000E+00 0. -1.
         -5    1    5    5    0  502  0.96252978078E+02 -0.13626309699E+02  0.29228864942E+02  0.10162051294E+03  0.47000000000E+01 0.  1.
         13    1    6    6    0    0  0.61285065671E+02  0.25686449238E+02  0.35029905980E+02  0.75118221902E+02  0.00000000000E+00 0. -1.
        -14    1    6    6    0    0  0.22581768017E+02  0.10781937970E+03  0.64122756598E+02  0.12746247604E+03  0.00000000000E+00 0.  1.
</event>
<event>
12    1  0.8271773E-002  0.3471410E+03  0.7818608E-02  0.1063943E+00
         21   -1    0    0  503  502  0.00000000000E+00  0.00000000000E+00  0.23385917276E+03  0.23385917276E+03  0.00000000000E+00 0.  1.
         21   -1    0    0  501  503 -0.00000000000E+00 -0.00000000000E+00 -0.88703339463E+03  0.88703339463E+03  0.00000000000E+00 0. -1.
          6    2    1    2  501    0 -0.11980786967E+03 -0.27644280230E+03  0.36865672979E+02  0.34909307001E+03  0.17243069654E+03 0.  0.
         24    2    3    3    0    0 -0.27988470882E+02 -0.20161740819E+03 -0.15823533921E+02  0.21937073531E+03  0.80250866015E+02 0.  0.
         -6    2    1    2    0  502  0.11980786967E+03  0.27644280230E+03 -0.69003989485E+03  0.77179949738E+03  0.16954308919E+03 0.  0.
        -24    2    5    5    0    0  0.11446046676E+03  0.23582821296E+03 -0.67459259552E+03  0.72776713836E+03  0.76509432495E+02 0.  0.
          5    1    3    3  501    0 -0.91819398790E+02 -0.74825394104E+02  0.52689206900E+02  0.12972233470E+03  0.47000000000E+01 0. -1.
        -13    1    4    4    0    0 -0.46185626598E+02 -0.15588611230E+03  0.11654253757E+02  0.16300126914E+03  0.00000000000E+00 0.  1.
         14    1    4    4    0    0  0.18197155716E+02 -0.45731295898E+02 -0.27477787678E+02  0.56369466170E+02  0.00000000000E+00 0. -1.
         -5    1    5    5    0  502  0.53474029140E+01  0.40614589333E+02 -0.15447299332E+02  0.44032359024E+02  0.47000000000E+01 0.  1.
         11    1    6    6    0    0  0.22636763343E+02  0.47738711404E+01 -0.80168580817E+02  0.83439884052E+02  0.00000000000E+00 0. -1.
        -12    1    6    6    0    0  0.91823703415E+02  0.23105434182E+03 -0.59442401470E+03  0.64432725430E+03  0.00000000000E+00 0.  1.
</event>
<event>
12    1  0.8271773E-002  0.2815194E+03  0.7818608E-02  0.1094877E+00
         21   -1    0    0  503  502  0.00000000000E+00  0.00000000000E+00  0.14089948236E+03  0.14089948236E+03  0.00000000000E+00 0.  1.
         21   -1    0    0  501  503 -0.00000000000E+00 -0.00000000000E+00 -0.84313009575E+03  0.84313009575E+03  0.00000000000E+00 0. -1.
          6    2    1    2  501    0 -0.46862792551E+02 -0.21812256578E+03 -0.63504548919E+03  0.69460423434E+03  0.17151878612E+03 0.  0.
         24    2    3    3    0    0 -0.63635452270E+02 -0.22874458879E+03 -0.62072114871E+03  0.66967581247E+03  0.82446295656E+02 0.  0.
         -6    2    1    2    0  502  0.46862792551E+02  0.21812256578E+03 -0.67185124197E+02  0.28942534376E+03  0.17169628321E+03 0.  0.
        -24    2    5    5    0    0  0.50721668330E+02  0.24045255409E+03 -0.58916405533E+02  0.26484931869E+03  0.79271056261E+02 0.  0.
          5    1    3    3  501    0  0.16772659719E+02  0.10622023005E+02 -0.14324340483E+02  0.24928421873E+02  0.47000000000E+01 0. -1.
        -11    1    4    4    0    0 -0.10091510032E+02 -0.48060965179E+02 -0.23873183529E+03  0.24373055641E+03  0.00000000000E+00 0.  1.
         12    1    4    4    0    0 -0.53543942239E+02 -0.18068362361E+03 -0.38198931342E+03  0.42594525606E+03  0.00000000000E+00 0. -1.
         -5    1    5    5    0  502 -0.38588757791E+01 -0.22329988308E+02 -0.82687186642E+01  0.24576025075E+02  0.47000000000E+01 0.  1.
         11    1    6    6    0    0  0.27722207112E+02  0.12720376555E+03 -0.71625645593E+02  0.14859189697E+03  0.00000000000E+00 0. -1.
        -12    1    6    6    0    0  0.22999461218E+02  0.11324878854E+03  0.12709240061E+02  0.11625742172E+03  0.00000000000E+00 0.  1.
</event>
<event>
12    1  0.8271773E-002  0.1738060E+03  0.7818608E-02  0.1174759E+00
         21   -1    0    0  503  502  0.00000000000E+00  0.00000000000E+00  0.44538766837E+02  0.44538766837E+02  0.00000000000E+00 0.  1.
         21   -1    0    0  501  503 -0.00000000000E+00 -0.00000000000E+00 -0.10333940792E+04  0.10333940792E+04  0.00000000000E+00 0.  1.
          6    2    1    2  501    0 -0.21086077114E+02 -0.94425672321E+01 -0.81885846626E+03  0.83710077647E+03  0.17226356979E+03 0.  0.
         24    2    3    3    0    0 -0.32265600396E+02  0.44358934975E+02 -0.29472982066E+03  0.31007847094E+03  0.79209891286E+02 0.  0.
         -6    2    1    2    0  502  0.21086077114E+02  0.94425672321E+01 -0.16999684610E+03  0.24083206957E+03  0.16901885493E+03 0.  0.
        -24    2    5    5    0    0 -0.13213890314E+02  0.49808138079E+02 -0.40240370382E+02  0.10060118828E+03  0.76458185686E+02 0.  0.
          5    1    3    3  501    0  0.11179523283E+02 -0.53801502207E+02 -0.52412864560E+03  0.52702230552E+03  0.47000000000E+01 0. -1.
        -13    1    4    4    0    0 -0.26696033399E+02  0.11712963263E+02 -0.26165251227E+03  0.26327154971E+03  0.00000000000E+00 0.  1.
         14    1    4    4    0    0 -0.55695669975E+01  0.32645971712E+02 -0.33077308384E+02  0.46806921235E+02  0.00000000000E+00 0. -1.
         -5    1    5    5    0  502  0.34299967428E+02 -0.40365570847E+02 -0.12975647572E+03  0.14023088129E+03  0.47000000000E+01 0.  1.
         11    1    6    6    0    0 -0.29771005212E+01 -0.14391151466E+02  0.10560057820E+02  0.18096496600E+02  0.00000000000E+00 0. -1.
        -12    1    6    6    0    0 -0.10236789793E+02  0.64199289546E+02 -0.50800428202E+02  0.82504691678E+02  0.00000000000E+00 0.  1.
</event>
<event>
12    1  0.8271773E-002  0.1918151E+03  0.7818608E-02  0.1157184E+00
         21   -1    0    0  503  502  0.00000000000E+00  0.00000000000E+00  0.11459506519E+03  0.11459506519E+03  0.00000000000E+00 0.  1.
         21   -1    0    0  501  503 -0.00000000000E+00 -0.00000000000E+00 -0.34860361206E+03  0.34860361206E+03  0.00000000000E+00 0.  1.
          6    2    1    2  501    0 -0.29864029525E+02 -0.78095419725E+02 -0.18554983931E+03  0.26687405445E+03  0.17263332017E+03 0.  0.
         24    2    3    3    0    0 -0.12453713832E+02  0.24860021649E+02 -0.10827696020E+03  0.13688894051E+03  0.79003583844E+02 0.  0.
         -6    2    1    2    0  502  0.29864029525E+02  0.78095419725E+02 -0.48458707567E+02  0.19632462279E+03  0.17089282119E+03 0.  0.
        -24    2    5    5    0    0 -0.26290797537E+02  0.21131422868E+02 -0.71756620888E+02  0.11287916572E+03  0.80342705613E+02 0.  0.
          5    1    3    3  501    0 -0.17410315692E+02 -0.10295544137E+03 -0.77272879108E+02  0.12998511394E+03  0.47000000000E+01 0. -1.
        -13    1    4    4    0    0 -0.40637624551E+02  0.30486066895E+02 -0.47006836766E+02  0.69213145476E+02  0.00000000000E+00 0.  1.
         14    1    4    4    0    0  0.28183910718E+02 -0.56260452470E+01 -0.61270123432E+02  0.67675795036E+02  0.00000000000E+00 0. -1.
         -5    1    5    5    0  502  0.56154827062E+02  0.56963996857E+02  0.23297913321E+02  0.83445457069E+02  0.47000000000E+01 0.  1.
         13    1    6    6    0    0 -0.40953348654E+02  0.32881975281E+02 -0.17338643867E+02  0.55308495148E+02  0.00000000000E+00 0. -1.
        -14    1    6    6    0    0  0.14662551117E+02 -0.11750552413E+02 -0.54417977021E+02  0.57570670574E+02  0.00000000000E+00 0.  1.
</event>
<event>
12    1  0.8271773E-002  0.1989134E+03  0.7818608E-02  0.1154457E+00
         21   -1    0    0  503  502  0.00000000000E+00  0.00000000000E+00  0.11029870798E+03  0.11029870798E+03  0.00000000000E+00 0. -1.
         21   -1    0    0  501  503 -0.00000000000E+00 -0.00000000000E+00 -0.57398159291E+03  0.57398159291E+03  0.00000000000E+00 0. -1.
          6    2    1    2  501    0 -0.39145115371E+02  0.39627953999E+02 -0.44945754442E+03  0.48485886006E+03  0.17312803109E+03 0.  0.
         24    2    3    3    0    0 -0.20464459880E+02 -0.45362119742E+02 -0.25914360546E+03  0.27554148170E+03  0.79316983416E+02 0.  0.
         -6    2    1    2    0  502  0.39145115371E+02 -0.39627953999E+02 -0.14225340507E+02  0.19942144083E+03  0.19095506266E+03 0.  0.
        -24    2    5    5    0    0 -0.57022450942E+02 -0.31481405811E+01 -0.68858171043E+01  0.96198690425E+02  0.77105790066E+02 0.  0.
          5    1    3    3  501    0 -0.18680655491E+02  0.84990073741E+02 -0.19031393896E+03  0.20931737837E+03  0.47000000000E+01 0. -1.
        -13    1    4    4    0    0  0.29112438390E+02 -0.22595229625E+02 -0.76313781853E+02  0.84745924808E+02  0.00000000000E+00 0.  1.
         14    1    4    4    0    0 -0.49576898271E+02 -0.22766890117E+02 -0.18282982361E+03  0.19079555689E+03  0.00000000000E+00 0. -1.
         -5    1    5    5    0  502  0.96167566313E+02 -0.36479813418E+02 -0.73395234024E+01  0.10322275041E+03  0.47000000000E+01 0.  1.
         13    1    6    6    0    0 -0.11249467127E+02 -0.33901494705E+02  0.12352082084E+02  0.37794652872E+02  0.00000000000E+00 0. -1.
        -14    1    6    6    0    0 -0.45772983815E+02  0.30753354124E+02 -0.19237899189E+02  0.58404037552E+02  0.00000000000E+00 0.  1.
</event>
<event>
12    1  0.8271773E-002  0.2483802E+03  0.7818608E-02  0.1114724E+00
         21   -1    0    0  501  502  0.00000000000E+00  0.00000000000E+00  0.28023237061E+03  0.28023237061E+03  0.00000000000E+00 0. -1.
         21   -1    0    0  502  503 -0.00000000000E+00 -0.00000000000E+00 -0.24274441825E+03  0.24274441825E+03  0.00000000000E+00 0.  1.
         -6    2    1    2    0  503 -0.14382214197E+03 -0.10905073134E+03  0.10216346752E+03  0.26631428001E+03  0.16706002248E+03 0.  0.
        -24    2    3    3    0    0 -0.11634095574E+02 -0.17159827501E+02  0.17651727232E+02  0.84429860481E+02  0.79918746280E+02 0.  0.
          6    2    1    2  501    0  0.14382214197E+03  0.10905073134E+03 -0.64675515156E+02  0.25666250885E+03  0.17063367387E+03 0.  0.
         24    2    5    5    0    0  0.20579097987E+02  0.22393311566E+02 -0.60228094482E+02  0.10586388205E+03  0.81576825635E+02 0.  0.
          5    1    5    5  501    0  0.12324304399E+03  0.86657419779E+02 -0.44474206742E+01  0.15079862680E+03  0.47000000000E+01 0. -1.
        -13    1    6    6    0    0  0.19344896656E+02  0.20232706155E+01 -0.77018777073E+02  0.79436834482E+02  0.00000000000E+00 0.  1.
         14    1    6    6    0    0  0.12342013306E+01  0.20370040950E+02  0.16790682591E+02  0.26427047567E+02  0.00000000000E+00 0. -1.
         -5    1    3    3    0  503 -0.13218804640E+03 -0.91890903843E+02  0.84511740288E+02  0.18188441953E+03  0.47000000000E+01 0.  1.
         11    1    4    4    0    0 -0.35745095615E+02 -0.36392672098E+02  0.56039418603E+01  0.51318053424E+02  0.00000000000E+00 0. -1.
        -12    1    4    4    0    0  0.24111000040E+02  0.19232844596E+02  0.12047785372E+02  0.33111807057E+02  0.00000000000E+00 0.  1.
</event>
<event>
12    1  0.8271773E-002  0.2453977E+03  0.7818608E-02  0.1116885E+00
         21   -1    0    0  501  502  0.00000000000E+00  0.00000000000E+00  0.16648723838E+03  0.16648723838E+03  0.00000000000E+00 0. -1.
         21   -1    0    0  502  503 -0.00000000000E+00 -0.00000000000E+00 -0.36715491050E+03  0.36715491050E+03  0.00000000000E+00 0.  1.
         -6    2    1    2    0  503  0.16220454716E+03  0.43996898686E+02 -0.14609993614E+03  0.28225072922E+03  0.17341926246E+03 0.  0.
        -24    2    3    3    0    0  0.86432308081E+02  0.61436745612E+02 -0.19823291941E+02  0.13388138823E+03  0.79285847541E+02 0.  0.
          6    2    1    2  501    0 -0.16220454716E+03 -0.43996898686E+02 -0.54567735988E+02  0.25139141965E+03  0.17881265573E+03 0.  0.
         24    2    5    5    0    0 -0.66033055132E+02 -0.28648055459E+02 -0.97216622878E+02  0.14496980333E+03  0.79900542315E+02 0.  0.
          5    1    5    5  501    0 -0.96171492031E+02 -0.15348843227E+02  0.42648886890E+02  0.10642161632E+03  0.47000000000E+01 0. -1.
        -11    1    6    6    0    0 -0.22230584584E+01  0.15284012642E+02  0.54280627691E+01  0.16370916186E+02  0.00000000000E+00 0.  1.
         12    1    6    6    0    0 -0.63809996673E+02 -0.43932068101E+02 -0.10264468565E+03  0.12859888714E+03  0.00000000000E+00 0. -1.
         -5    1    3    3    0  503  0.75772239082E+02 -0.17439846926E+02 -0.12627664419E+03  0.14836934099E+03  0.47000000000E+01 0.  1.
         13    1    4    4    0    0  0.22809274988E+02  0.58025644286E+02  0.10656320448E+02  0.63251842548E+02  0.00000000000E+00 0. -1.
        -14    1    4    4    0    0  0.63623033093E+02  0.34111013260E+01 -0.30479612390E+02  0.70629545685E+02  0.00000000000E+00 0.  1.
</event>
<event>
12    1  0.8271773E-002  0.2943729E+03  0.7818608E-02  0.1088531E+00
         21   -1    0    0  501  502  0.00000000000E+00  0.00000000000E+00  0.79102221647E+02  0.79102221647E+02  0.00000000000E+00 0. -1.
         21   -1    0    0  502  503 -0.00000000000E+00 -0.00000000000E+00 -0.12265788420E+04  0.12265788420E+04  0.00000000000E+00 0.  1.
         -6    2    1    2    0  503 -0.23618113975E+03  0.33693390880E+02 -0.80027236787E+03  0.85269648093E+03  0.17244897926E+03 0.  0.
        -24    2    3    3    0    0 -0.22733831030E+03  0.17771047191E+02 -0.79956285690E+03  0.83387335508E+03  0.63604187990E+02 0.  0.
          6    2    1    2  501    0  0.23618113975E+03 -0.33693390880E+02 -0.34720425249E+03  0.45298458273E+03  0.16651565656E+03 0.  0.
         24    2    5    5    0    0  0.99865603834E+02  0.25329801966E+02 -0.22669225329E+03  0.26164484672E+03  0.80336233524E+02 0.  0.
          5    1    5    5  501    0  0.13631553591E+03 -0.59023192845E+02 -0.12051199920E+03  0.19133973601E+03  0.47000000000E+01 0. -1.
        -13    1    6    6    0    0  0.69827646122E+01  0.34436214379E+02 -0.42387454758E+02  0.55057317255E+02  0.00000000000E+00 0.  1.
         14    1    6    6    0    0  0.92882839222E+02 -0.91064124131E+01 -0.18430479853E+03  0.20658752946E+03  0.00000000000E+00 0. -1.
         -5    1    3    3    0  503 -0.88428294413E+01  0.15922343689E+02 -0.70951097911E+00  0.18823125854E+02  0.47000000000E+01 0.  1.
         13    1    4    4    0    0 -0.12651098931E+03 -0.39492178263E+01 -0.33786934458E+03  0.36079955757E+03  0.00000000000E+00 0. -1.
        -14    1    4    4    0    0 -0.10082732100E+03  0.21720265017E+02 -0.46169351232E+03  0.47307379751E+03  0.00000000000E+00 0.  1.
</event>
<event>
12    1  0.8271773E-002  0.3255677E+03  0.7818608E-02  0.1073145E+00
         21   -1    0    0  503  502  0.00000000000E+00  0.00000000000E+00  0.18760493171E+04  0.18760493171E+04  0.00000000000E+00 0.  1.
         21   -1    0    0  501  503 -0.00000000000E+00 -0.00000000000E+00 -0.56454844749E+02  0.56454844749E+02  0.00000000000E+00 0. -1.
          6    2    1    2  501    0 -0.21036391862E+03  0.17958086885E+03  0.91574053624E+03  0.97189251436E+03  0.17173253344E+03 0.  0.
         24    2    3    3    0    0 -0.12260889267E+03  0.82546564623E+02  0.69864800733E+03  0.71838145566E+03  0.78204870642E+02 0.  0.
         -6    2    1    2    0  502  0.21036391862E+03 -0.17958086885E+03  0.90385393613E+03  0.96061164751E+03  0.17123239401E+03 0.  0.
        -24    2    5    5    0    0  0.12742293122E+03 -0.12005479903E+03  0.36868557819E+03  0.41577238524E+03  0.79296043944E+02 0.  0.
          5    1    3    3  501    0 -0.87755025951E+02  0.97034304227E+02  0.21709252891E+03  0.25351105870E+03  0.47000000000E+01 0. -1.
        -11    1    4    4    0    0 -0.67391710388E+02  0.76961903481E+02  0.55570889769E+03  0.56504615403E+03  0.00000000000E+00 0.  1.
         12    1    4    4    0    0 -0.55217182279E+02  0.55846611413E+01  0.14293910964E+03  0.15333530162E+03  0.00000000000E+00 0. -1.
         -5    1    5    5    0  502  0.82940987402E+02 -0.59526069817E+02  0.53516835794E+03  0.54483926228E+03  0.47000000000E+01 0.  1.
         13    1    6    6    0    0  0.54300194518E+02 -0.26393776310E+02  0.60493658861E+02  0.85467100776E+02  0.00000000000E+00 0. -1.
        -14    1    6    6    0    0  0.73122736699E+02 -0.93661022723E+02  0.30819191933E+03  0.33030528446E+03  0.00000000000E+00 0.  1.
</event>
<event>
12    1  0.8271773E-002  0.2094099E+03  0.7818608E-02  0.1142241E+00
         21   -1    0    0  501  502  0.00000000000E+00  0.00000000000E+00  0.14860239203E+03  0.14860239203E+03  0.00000000000E+00 0.  1.
         21   -1    0    0  502  503 -0.00000000000E+00 -0.00000000000E+00 -0.30837071152E+03  0.30837071152E+03  0.00000000000E+00 0.  1.
         -6    2    1    2    0  503 -0.53752183702E+02  0.10261164629E+03 -0.12963379371E+03  0.24540612950E+03  0.17320739221E+03 0.  0.
        -24    2    3    3    0    0 -0.48385546480E+02  0.16991080145E+02 -0.71171634279E+01  0.95766238964E+02  0.80564636146E+02 0.  0.
          6    2    1    2  501    0  0.53752183702E+02 -0.10261164629E+03 -0.30134525770E+02  0.21156697406E+03  0.17445356878E+03 0.  0.
         24    2    5    5    0    0  0.53067787075E+02 -0.80687482269E+02 -0.87075511584E+02  0.15036645746E+03  0.75506734735E+02 0.  0.
          5    1    5    5  501    0  0.68439662724E+00 -0.21924164020E+02  0.56940985814E+02  0.61200516600E+02  0.47000000000E+01 0. -1.
        -11    1    6    6    0    0  0.63575255881E+02 -0.29311141960E+02 -0.53347221787E+02  0.88016375043E+02  0.00000000000E+00 0.  1.
         12    1    6    6    0    0 -0.10507468806E+02 -0.51376340309E+02 -0.33728289797E+02  0.62350082413E+02  0.00000000000E+00 0. -1.
         -5    1    3    3    0  503 -0.53666372222E+01  0.85620566144E+02 -0.12251663028E+03  0.14963989053E+03  0.47000000000E+01 0.  1.
         13    1    4    4    0    0 -0.44868146779E+02 -0.34390412488E+01 -0.37777815350E+02  0.58754922625E+02  0.00000000000E+00 0. -1.
        -14    1    4    4    0    0 -0.35173997007E+01  0.20430121394E+02  0.30660651922E+02  0.37011316338E+02  0.00000000000E+00 0.  1.
</event>
<event>
12    1  0.8271773E-002  0.2117578E+03  0.7818608E-02  0.1140282E+00
         21   -1    0    0  503  502  0.00000000000E+00  0.00000000000E+00  0.46292483618E+03  0.46292483618E+03  0.00000000000E+00 0.  1.
         21   -1    0    0  501  503 -0.00000000000E+00 -0.00000000000E+00 -0.28801674279E+03  0.28801674279E+03  0.00000000000E+00 0.  1.
          6    2    1    2  501    0  0.75908424242E+02  0.96963414750E+02 -0.21865229134E+03  0.30402869241E+03  0.17164098761E+03 0.  0.
         24    2    3    3    0    0  0.35603666931E+02  0.10934178649E+03 -0.22084953997E+03  0.26154792675E+03  0.80059673437E+02 0.  0.
         -6    2    1    2    0  502 -0.75908424242E+02 -0.96963414750E+02  0.39356038473E+03  0.44691288656E+03  0.17227117889E+03 0.  0.
        -24    2    5    5    0    0 -0.11033212306E+02 -0.79442210128E+02  0.11977040799E+03  0.16495752289E+03  0.80207463536E+02 0.  0.
          5    1    3    3  501    0  0.40304757312E+02 -0.12378371739E+02  0.21972486388E+01  0.42480765653E+02  0.47000000000E+01 0. -1.
        -11    1    4    4    0    0  0.30804875822E+02  0.36599584759E+02 -0.15869301369E+03  0.16574662160E+03  0.00000000000E+00 0.  1.
         12    1    4    4    0    0  0.47987911085E+01  0.72742201731E+02 -0.62156526283E+02  0.95801305150E+02  0.00000000000E+00 0. -1.
         -5    1    5    5    0  502 -0.64875211936E+02 -0.17521204623E+02  0.27378997674E+03  0.28195536366E+03  0.47000000000E+01 0.  1.
         11    1    6    6    0    0 -0.59641626048E+00 -0.93061618539E+02  0.11329660838E+03  0.14661835501E+03  0.00000000000E+00 0. -1.
        -12    1    6    6    0    0 -0.10436796046E+02  0.13619408411E+02  0.64737996084E+01  0.18339167880E+02  0.00000000000E+00 0.  1.
</event>
<event>
12    1  0.8271773E-002  0.1840827E+03  0.7818608E-02  0.1164177E+00
         21   -1    0    0  503  502  0.00000000000E+00  0.00000000000E+00  0.23490745610E+04  0.23490745610E+04  0.00000000000E+00 0.  1.
         21   -1    0    0  501  503 -0.00000000000E+00 -0.00000000000E+00 -0.22101545788E+02  0.22101545788E+02  0.00000000000E+00 0.  1.
          6    2    1    2  501    0 -0.83982536535E+01  0.64852899690E+02  0.45841916279E+03  0.49357658837E+03  0.17086044162E+03 0.  0.
         24    2    3    3    0    0  0.52675973220E+02  0.14830727904E+01  0.23429788250E+03  0.25274836239E+03  0.78798980241E+02 0.  0.
         -6    2    1    2    0  502  0.83982536535E+01 -0.64852899690E+02  0.18685538524E+04  0.18775995184E+04  0.17207563136E+03 0.  0.
        -24    2    5    5    0    0 -0.30014197156E+02 -0.73406631442E+02  0.75731156238E+03  0.76565068871E+03  0.80067403138E+02 0.  0.
          5    1    3    3  501    0 -0.61074226873E+02  0.63369826899E+02  0.22412128029E+03  0.24082822598E+03  0.47000000000E+01 0. -1.
        -11    1    4    4    0    0  0.22462137084E+02  0.17056237467E+02  0.17262776659E+02  0.33067601922E+02  0.00000000000E+00 0.  1.
         12    1    4    4    0    0  0.30213836136E+02 -0.15573164676E+02  0.21703510585E+03  0.21968076047E+03  0.00000000000E+00 0. -1.
         -5    1    5    5    0  502  0.38412450810E+02  0.85537317520E+01  0.11112422900E+04  0.11119488297E+04  0.47000000000E+01 0.  1.
         11    1    6    6    0    0 -0.42552750394E+02 -0.96812154575E+01  0.20910478501E+03  0.21361009717E+03  0.00000000000E+00 0. -1.
        -12    1    6    6    0    0  0.12538553238E+02 -0.63725415984E+02  0.54820677736E+03  0.55204059154E+03  0.00000000000E+00 0.  1.
</event>
<event>
12    1  0.8271773E-002  0.2189278E+03  0.7818608E-02  0.1134954E+00
         21   -1    0    0  501  502  0.00000000000E+00  0.00000000000E+00  0.13850942193E+03  0.13850942193E+03  0.00000000000E+00 0.  1.
         21   -1    0    0  502  503 -0.00000000000E+00 -0.00000000000E+00 -0.38700409727E+03  0.38700409727E+03  0.00000000000E+00 0.  1.
         -6    2    1    2    0  503 -0.40243222009E+02  0.12723871883E+03 -0.36073785043E+02  0.22046921713E+03  0.17174443003E+03 0.  0.
        -24    2    3    3    0    0 -0.85282810182E+02  0.90389722206E+02 -0.31511862190E-01  0.15185764003E+03  0.87277043092E+02 0.  0.
          6    2    1    2  501    0  0.40243222009E+02 -0.12723871883E+03 -0.21242089030E+03  0.30504430207E+03  0.17355167271E+03 0.  0.
         24    2    5    5    0    0  0.15546706272E+01 -0.97255763707E+02 -0.22183597025E+03  0.25497919110E+03  0.79637237660E+02 0.  0.
          5    1    5    5  501    0  0.38688551382E+02 -0.29982955125E+02  0.94150799484E+01  0.50065110970E+02  0.47000000000E+01 0. -1.
        -13    1    6    6    0    0 -0.12968715674E+02 -0.20811725563E+02 -0.55774653575E+01  0.25148034257E+02  0.00000000000E+00 0.  1.
         14    1    6    6    0    0  0.14523386302E+02 -0.76444038144E+02 -0.21625850490E+03  0.22983115685E+03  0.00000000000E+00 0. -1.
         -5    1    3    3    0  503  0.45039588173E+02  0.36848996626E+02 -0.36042273181E+02  0.68611577093E+02  0.47000000000E+01 0.  1.
         13    1    4    4    0    0 -0.41099973654E+02  0.73577082604E+01  0.31883649812E+02  0.52534853484E+02  0.00000000000E+00 0. -1.
        -14    1    4    4    0    0 -0.44182836528E+02  0.83032013946E+02 -0.31915161674E+02  0.99322786551E+02  0.00000000000E+00 0.  1.
</event>
<event>
12    1  0.8271773E-002  0.1920595E+03  0.7818608E-02  0.1157223E+00
         21   -1    0    0  503  502  0.00000000000E+00  0.00000000000E+00  0.20112509776E+04  0.20112509776E+04  0.00000000000E+00 0.  1.
         21   -1    0    0  501  503 -0.00000000000E+00 -0.00000000000E+00 -0.57085515897E+02  0.57085515897E+02  0.00000000000E+00 0. -1.
          6    2    1    2  501    0  0.21329096296E+02  0.83719702798E+02  0.12007316078E+03  0.22421572079E+03  0.16849690360E+03 0.  0.
         24    2    3    3    0    0  0.24021746204E+02  0.68838611917E+02  0.15340294063E+03  0.18731502359E+03  0.78985170028E+02 0.  0.
         -6    2    1    2    0  502 -0.21329096296E+02 -0.83719702798E+02  0.18340923009E+04  0.18441207727E+04  0.17153115473E+03 0.  0.
        -24    2    5    5    0    0  0.77805537760E+01  0.18060651744E+02  0.66425855115E+03  0.66949755465E+03  0.81245484464E+02 0.  0.
          5    1    3    3  501    0 -0.26926499082E+01  0.14881090881E+02 -0.33329779851E+02  0.36900697206E+02  0.47000000000E+01 0. -1.
        -13    1    4    4    0    0  0.89905877100E+01  0.58126180684E+02  0.15774469183E+03  0.16835341205E+03  0.00000000000E+00 0.  1.
         14    1    4    4    0    0  0.15031158494E+02  0.10712431233E+02 -0.43417511957E+01  0.18961611536E+02  0.00000000000E+00 0. -1.
         -5    1    5    5    0  502 -0.29109650072E+02 -0.10178035454E+03  0.11698337498E+04  0.11746232181E+04  0.47000000000E+01 0.  1.
         11    1    6    6    0    0 -0.30881718988E+02 -0.95777723458E+01  0.17718556121E+03  0.18011145825E+03  0.00000000000E+00 0. -1.
        -12    1    6    6    0    0  0.38662272764E+02  0.27638424090E+02  0.48707298994E+03  0.48938609640E+03  0.00000000000E+00 0.  1.
</event>
<event>
12    1  0.8271773E-002  0.1757273E+03  0.7818608E-02  0.1172079E+00
         21   -1    0    0  501  502  0.00000000000E+00  0.00000000000E+00  0.97988679503E+02  0.97988679503E+02  0.00000000000E+00 0.  1.
         21   -1    0    0  502  503 -0.00000000000E+00 -0.00000000000E+00 -0.43505136109E+03  0.43505136109E+03  0.00000000000E+00 0.  1.
         -6    2    1    2    0  503  0.33417731396E+02 -0.62854296818E+01 -0.28397572802E+02  0.17800706656E+03  0.17240603878E+03 0.  0.
        -24    2    3    3    0    0 -0.27284184443E+02  0.21580679434E+02  0.98379934278E+01  0.10090135245E+03  0.94202677066E+02 0.  0.
          6    2    1    2  501    0 -0.33417731396E+02  0.62854296818E+01 -0.30866510878E+03  0.35503297403E+03  0.17209884331E+03 0.  0.
         24    2    5    5    0    0 -0.51066426002E+02  0.60661918699E+02 -0.24838982601E+03  0.27182553029E+03  0.76837263160E+02 0.  0.
          5    1    5    5  501    0  0.17648694606E+02 -0.54376489017E+02 -0.60275282777E+02  0.83207443735E+02  0.47000000000E+01 0. -1.
        -11    1    6    6    0    0  0.77981953480E+00  0.44055871511E+01 -0.13480435184E+03  0.13487857721E+03  0.00000000000E+00 0.  1.
         12    1    6    6    0    0 -0.51846245537E+02  0.56256331547E+02 -0.11358547417E+03  0.13694695308E+03  0.00000000000E+00 0. -1.
         -5    1    3    3    0  503  0.60701915839E+02 -0.27866109116E+02 -0.38235566229E+02  0.77105714112E+02  0.47000000000E+01 0.  1.
         11    1    4    4    0    0 -0.11502425381E+02  0.55876159747E+02 -0.10520087624E+02  0.58009682479E+02  0.00000000000E+00 0. -1.
        -12    1    4    4    0    0 -0.15781759062E+02 -0.34295480313E+02  0.20358081052E+02  0.42891669973E+02  0.00000000000E+00 0.  1.
</event>
<event>
12    1  0.8271773E-002  0.1955341E+03  0.7818608E-02  0.1153643E+00
         21   -1    0    0  503  502  0.00000000000E+00  0.00000000000E+00  0.42121505189E+03  0.42121505189E+03  0.00000000000E+00 0.  1.
         21   -1    0    0  501  503 -0.00000000000E+00 -0.00000000000E+00 -0.15303453398E+03  0.15303453398E+03  0.00000000000E+00 0. -1.
          6    2    1    2  501    0  0.51130988678E+02 -0.77103361472E+02 -0.49233068878E+02  0.20163695866E+03  0.17226218875E+03 0.  0.
         24    2    3    3    0    0  0.86429098429E+02 -0.89749163112E+02 -0.15684472853E+02  0.15110507619E+03  0.84034754869E+02 0.  0.
         -6    2    1    2    0  502 -0.51130988678E+02  0.77103361472E+02  0.31741358678E+03  0.37261262721E+03  0.17184143425E+03 0.  0.
        -24    2    5    5    0    0  0.88160150319E+01 -0.13531998367E+02  0.70114061257E+02  0.10245053321E+03  0.72933483860E+02 0.  0.
          5    1    3    3  501    0 -0.35298109751E+02  0.12645801640E+02 -0.33548596025E+02  0.50531882474E+02  0.47000000000E+01 0. -1.
        -13    1    4    4    0    0  0.34238474131E+02 -0.56560972992E+01 -0.36072328103E+02  0.50054744054E+02  0.00000000000E+00 0.  1.
         14    1    4    4    0    0  0.52190624298E+02 -0.84093065812E+02  0.20387855250E+02  0.10105033213E+03  0.00000000000E+00 0. -1.
         -5    1    5    5    0  502 -0.59947003710E+02  0.90635359839E+02  0.24729952553E+03  0.27016209400E+03  0.47000000000E+01 0.  1.
         11    1    6    6    0    0 -0.21678040848E+02 -0.10358073562E+02 -0.19812350437E+01  0.24107103418E+02  0.00000000000E+00 0. -1.
        -12    1    6    6    0    0  0.30494055880E+02 -0.31739248049E+01  0.72095296301E+02  0.78343429791E+02  0.00000000000E+00 0.  1.
</event>
<event>
12    1  0.8271773E-002  0.2259018E+03  0.7818608E-02  0.1130157E+00
         21   -1    0    0  501  502  0.00000000000E+00  0.00000000000E+00  0.34729123121E+02  0.34729123121E+02  0.00000000000E+00 0. -1.
         21   -1    0    0  502  503 -0.00000000000E+00 -0.00000000000E+00 -0.14961902675E+04  0.14961902675E+04  0.00000000000E+00 0. -1.
         -6    2    1    2    0  503  0.63438190879E+02  0.13142581390E+03 -0.86286521128E+03  0.89111575173E+03  0.16808855264E+03 0.  0.
        -24    2    3    3    0    0  0.72534615963E+02  0.13186002574E+03 -0.50523360568E+03  0.53333734432E+03  0.80866492654E+02 0.  0.
          6    2    1    2  501    0 -0.63438190879E+02 -0.13142581390E+03 -0.59859593313E+03  0.63980363892E+03  0.17243681913E+03 0.  0.
         24    2    5    5    0    0 -0.19550646620E+01 -0.73951926898E+02 -0.49273695634E+03  0.50448314725E+03  0.78998911083E+02 0.  0.
          5    1    5    5  501    0 -0.61483126217E+02 -0.57473887004E+02 -0.10585897680E+03  0.13532049167E+03  0.47000000000E+01 0. -1.
        -11    1    6    6    0    0 -0.35296416269E+02 -0.12337721004E+02 -0.14369501034E+03  0.14848000660E+03  0.00000000000E+00 0.  1.
         12    1    6    6    0    0  0.33341351607E+02 -0.61614205894E+02 -0.34904194599E+03  0.35600314066E+03  0.00000000000E+00 0. -1.
         -5    1    3    3    0  503 -0.90964250843E+01 -0.43421184240E+00 -0.35763160559E+03  0.35777840741E+03  0.47000000000E+01 0.  1.
         13    1    4    4    0    0  0.90407959754E+02  0.11258594947E+03 -0.43557108718E+03  0.45888055874E+03  0.00000000000E+00 0. -1.
        -14    1    4    4    0    0 -0.17873343791E+02  0.19274076278E+02 -0.69662518505E+02  0.74456785581E+02  0.00000000000E+00 0.  1.
</event>
<event>
12    1  0.8271773E-002  0.1933452E+03  0.7818608E-02  0.1155554E+00
         21   -1    0    0  503  502  0.00000000000E+00  0.00000000000E+00  0.51048997927E+03  0.51048997927E+03  0.00000000000E+00 0. -1.
         21   -1    0    0  501  503 -0.00000000000E+00 -0.00000000000E+00 -0.11178853999E+03  0.11178853999E+03  0.00000000000E+00 0. -1.
          6    2    1    2  501    0  0.41321687927E+02  0.77057625891E+02  0.16189210792E+02  0.19367848444E+03  0.17205785419E+03 0.  0.
         24    2    3    3    0    0 -0.34211215282E+02  0.65807506563E+02 -0.19506002633E+02  0.10925086507E+03  0.77808946840E+02 0.  0.
         -6    2    1    2    0  502 -0.41321687927E+02 -0.77057625891E+02  0.38251222848E+03  0.42860003482E+03  0.17244426725E+03 0.  0.
        -24    2    5    5    0    0  0.10318716169E+01  0.22863080399E+02  0.12472551984E+03  0.14886078355E+03  0.77969817068E+02 0.  0.
          5    1    3    3  501    0  0.75532903209E+02  0.11250119328E+02  0.35695213425E+02  0.84427619376E+02  0.47000000000E+01 0. -1.
        -11    1    4    4    0    0  0.26173630483E+01  0.20727400334E+02  0.27425825866E+02  0.34476827557E+02  0.00000000000E+00 0.  1.
         12    1    4    4    0    0 -0.36828578331E+02  0.45080106229E+02 -0.46931828499E+02  0.74774037511E+02  0.00000000000E+00 0. -1.
         -5    1    5    5    0  502 -0.42353559544E+02 -0.99920706290E+02  0.25778670864E+03  0.27973925127E+03  0.47000000000E+01 0.  1.
         13    1    6    6    0    0  0.18438145508E+02 -0.18684743082E+02  0.84446081856E+02  0.88432039300E+02  0.00000000000E+00 0. -1.
        -14    1    6    6    0    0 -0.17406273891E+02  0.41547823480E+02  0.40279437986E+02  0.60428744247E+02  0.00000000000E+00 0.  1.
</event>
<event>
12    1  0.8271773E-002  0.1920084E+03  0.7818608E-02  0.1156761E+00
         21   -1    0    0  503  502  0.00000000000E+00  0.00000000000E+00  0.12076218944E+03  0.12076218944E+03  0.00000000000E+00 0. -1.
         21   -1    0    0  501  503 -0.00000000000E+00 -0.00000000000E+00 -0.35858218566E+03  0.35858218566E+03  0.00000000000E+00 0.  1.
          6    2    1    2  501    0 -0.83208748543E+02 -0.14932892089E+02 -0.21180150214E+03  0.28558115972E+03  0.17190123727E+03 0.  0.
         24    2    3    3    0    0 -0.20624525287E+02 -0.53688283286E+02 -0.60725606515E+02  0.11745982976E+03  0.82470658506E+02 0.  0.
         -6    2    1    2    0  502  0.83208748543E+02  0.14932892089E+02 -0.26018494077E+02  0.19376321538E+03  0.17239644573E+03 0.  0.
        -24    2    5    5    0    0 -0.20094098251E+02 -0.18870861798E+02 -0.15357402352E+02  0.84447522044E+02  0.78330402545E+02 0.  0.
          5    1    3    3  501    0 -0.62584223256E+02  0.38755391197E+02 -0.15107589563E+03  0.16812132996E+03  0.47000000000E+01 0. -1.
        -11    1    4    4    0    0  0.21064670636E+02 -0.22134324071E+01 -0.44467829272E+02  0.49254517277E+02  0.00000000000E+00 0.  1.
         12    1    4    4    0    0 -0.41689195922E+02 -0.51474850879E+02 -0.16257777243E+02  0.68205312480E+02  0.00000000000E+00 0. -1.
         -5    1    5    5    0  502  0.10330284679E+03  0.33803753888E+02 -0.10661091726E+02  0.10931569334E+03  0.47000000000E+01 0.  1.
         11    1    6    6    0    0 -0.27315795923E+02 -0.37920621777E+02 -0.33231684871E+02  0.57345192843E+02  0.00000000000E+00 0. -1.
        -12    1    6    6    0    0  0.72216976724E+01  0.19049759978E+02  0.17874282520E+02  0.27102329200E+02  0.00000000000E+00 0.  1.
</event>
<event>
12    1  0.8271773E-002  0.2182022E+03  0.7818608E-02  0.1136626E+00
         21   -1    0    0  501  502  0.00000000000E+00  0.00000000000E+00  0.49702111883E+03  0.49702111883E+03  0.00000000000E+00 0. -1.
         21   -1    0    0  502  503 -0.00000000000E+00 -0.00000000000E+00 -0.14951284031E+03  0.14951284031E+03  0.00000000000E+00 0.  1.
         -6    2    1    2    0  503 -0.62726832859E+02  0.10638895177E+03 -0.23799991782E+02  0.21949637669E+03  0.17988595040E+03 0.  0.
        -24    2    3    3    0    0 -0.36191859846E+01  0.59464335168E+02  0.51898623720E+02  0.11250103122E+03  0.80086885431E+02 0.  0.
          6    2    1    2  501    0  0.62726832859E+02 -0.10638895177E+03  0.37130827030E+03  0.42703758244E+03  0.17099122962E+03 0.  0.
         24    2    5    5    0    0  0.18215465922E+02  0.13113595709E+02  0.13292601580E+03  0.15664840015E+03  0.79784873266E+02 0.  0.
          5    1    5    5  501    0  0.44511366937E+02 -0.11950254748E+03  0.23838225450E+03  0.27038918229E+03  0.47000000000E+01 0. -1.
        -13    1    6    6    0    0  0.24587381662E+02  0.10770467612E+02  0.35295715079E+01  0.27073976151E+02  0.00000000000E+00 0.  1.
         14    1    6    6    0    0 -0.63719157402E+01  0.23431280975E+01  0.12939644429E+03  0.12957442400E+03  0.00000000000E+00 0. -1.
         -5    1    3    3    0  503 -0.59107646875E+02  0.46924616605E+02 -0.75698615502E+02  0.10699534547E+03  0.47000000000E+01 0.  1.
         13    1    4    4    0    0 -0.23515241015E+02  0.14656255298E+02  0.56831784278E+02  0.63226767145E+02  0.00000000000E+00 0. -1.
        -14    1    4    4    0    0  0.19896055030E+02  0.44808079870E+02 -0.49331605583E+01  0.49274264078E+02  0.00000000000E+00 0.  1.
</event>
<event>
12    1  0.8271773E-002  0.1773866E+03  0.7818608E-02  0.1170821E+00
         21   -1    0    0  503  502  0.00000000000E+00  0.00000000000E+00  0.16682187269E+03  0.16682187269E+03  0.00000000000E+00 0.  1.
         21   -1    0    0  501  503 -0.00000000000E+00 -0.00000000000E+00 -0.25514704609E+03  0.25514704609E+03  0.00000000000E+00 0.  1.
          6    2    1    2  501    0 -0.29691040750E+02  0.20441844467E+02  0.64995331004E+02  0.18891904159E+03  0.17368530254E+03 0.  0.
         24    2    3    3    0    0 -0.58428452793E+02 -0.23775877311E+02 -0.13089364391E+02  0.94577346540E+02  0.69241364665E+02 0.  0.
         -6    2    1    2    0  502  0.29691040750E+02 -0.20441844467E+02 -0.15332050441E+03  0.23304987719E+03  0.17177206199E+03 0.  0.
        -24    2    5    5    0    0 -0.27169650283E+02 -0.61730707636E+02 -0.97705721296E+02  0.14331135421E+03  0.80267466066E+02 0.  0.
          5    1    3    3  501    0  0.28737412043E+02  0.44217721778E+02  0.78084695395E+02  0.94341695051E+02  0.47000000000E+01 0. -1.
        -11    1    4    4    0    0 -0.25027095152E+02 -0.19818434624E+02  0.27308342325E+02  0.42010372567E+02  0.00000000000E+00 0.  1.
         12    1    4    4    0    0 -0.33401357640E+02 -0.39574426873E+01 -0.40397706715E+02  0.52566973973E+02  0.00000000000E+00 0. -1.
         -5    1    5    5    0  502  0.56860691033E+02  0.41288863169E+02 -0.55614783111E+02  0.89738522982E+02  0.47000000000E+01 0.  1.
         11    1    6    6    0    0 -0.27778024516E+02 -0.76236605948E+02 -0.54532094447E+02  0.97761894710E+02  0.00000000000E+00 0. -1.
        -12    1    6    6    0    0  0.60837423296E+00  0.14505898312E+02 -0.43173626849E+02  0.45549459496E+02  0.00000000000E+00 0.  1.
</event>
<event>
12    1  0.8271773E-002  0.2088056E+03  0.7818608E-02  0.1142659E+00
         21   -1    0    0  501  502  0.00000000000E+00  0.00000000000E+00  0.23287939710E+03  0.23287939710E+03  0.00000000000E+00 0. -1.
         21   -1    0    0  502  503 -0.00000000000E+00 -0.00000000000E+00 -0.30032803784E+03  0.30032803784E+03  0.00000000000E+00 0. -1.
         -6    2    1    2    0  503 -0.74013578439E+02 -0.91398270806E+02 -0.19776501971E+03  0.28707303879E+03  0.17166325431E+03 0.  0.
        -24    2    3    3    0    0  0.79026411797E+01 -0.85119026044E+02 -0.15677624028E+03  0.19513900814E+03  0.78693981035E+02 0.  0.
          6    2    1    2  501    0  0.74013578439E+02  0.91398270806E+02  0.13031637896E+03  0.24613439616E+03  0.17253442742E+03 0.  0.
         24    2    5    5    0    0  0.10387861873E+03  0.23491248566E+02  0.83044222545E+02  0.15804335760E+03  0.82089912867E+02 0.  0.
          5    1    5    5  501    0 -0.29865040294E+02  0.67907022240E+02  0.47272156418E+02  0.88091038554E+02  0.47000000000E+01 0. -1.
        -13    1    6    6    0    0  0.49690554265E+01  0.71760703347E+00  0.51518479249E+02  0.51762536412E+02  0.00000000000E+00 0.  1.
         14    1    6    6    0    0  0.98909563307E+02  0.22773641533E+02  0.31525743296E+02  0.10628082119E+03  0.00000000000E+00 0. -1.
         -5    1    3    3    0  503 -0.81916219618E+02 -0.62792447616E+01 -0.40988779430E+02  0.91934030644E+02  0.47000000000E+01 0.  1.
         13    1    4    4    0    0 -0.22358200484E+02 -0.85970924748E+01 -0.76567311852E+02  0.80226880608E+02  0.00000000000E+00 0. -1.
        -14    1    4    4    0    0  0.30260841663E+02 -0.76521933569E+02 -0.80208928427E+02  0.11491212754E+03  0.00000000000E+00 0.  1.
</event>
<event>
12    1  0.8271773E-002  0.4681150E+03  0.7818608E-02  0.1022454E+00
         21   -1    0    0  503  502  0.00000000000E+00  0.00000000000E+00  0.37108388007E+03  0.37108388007E+03  0.00000000000E+00 0.  1.
         21   -1    0    0  501  503 -0.00000000000E+00 -0.00000000000E+00 -0.59072190928E+03  0.59072190928E+03  0.00000000000E+00 0. -1.
          6    2    1    2  501    0 -0.41351319474E+03 -0.13546002666E+03 -0.10074732292E+03  0.47883362449E+03  0.17259500518E+03 0.  0.
         24    2    3    3    0    0 -0.23327374945E+03 -0.50285743040E+02  0.89977327737E+01  0.25122214965E+03  0.78014813603E+02 0.  0.
         -6    2    1    2    0  502  0.41351319474E+03  0.13546002666E+03 -0.11889070628E+03  0.48297216486E+03  0.17258195428E+03 0.  0.
        -24    2    5    5    0    0  0.11665691019E+03  0.32502497729E+02 -0.83166291624E+02  0.16670925170E+03  0.78804159061E+02 0.  0.
          5    1    3    3  501    0 -0.18023944529E+03 -0.85174283620E+02 -0.10974505570E+03  0.22761147484E+03  0.47000000000E+01 0. -1.
        -13    1    4    4    0    0 -0.17601678643E+03 -0.33249933298E+01 -0.37131809487E+01  0.17608734309E+03  0.00000000000E+00 0.  1.
         14    1    4    4    0    0 -0.57256963025E+02 -0.46960749711E+02  0.12710913722E+02  0.75134806554E+02  0.00000000000E+00 0. -1.
         -5    1    5    5    0  502  0.29685628455E+03  0.10295752893E+03 -0.35724414661E+02  0.31626291316E+03  0.47000000000E+01 0.  1.
         11    1    6    6    0    0  0.36356983605E+02  0.46941164570E+02 -0.17273374201E+02  0.61835852418E+02  0.00000000000E+00 0. -1.
        -12    1    6    6    0    0  0.80299926588E+02 -0.14438666841E+02 -0.65892917423E+02  0.10487339928E+03  0.00000000000E+00 0.  1.
</event>
<event>
12    1  0.8271773E-002  0.2412829E+03  0.7818608E-02  0.1119127E+00
         21   -1    0    0  501  502  0.00000000000E+00  0.00000000000E+00  0.20202802336E+03  0.20202802336E+03  0.00000000000E+00 0. -1.
         21   -1    0    0  502  503 -0.00000000000E+00 -0.00000000000E+00 -0.28687259906E+03  0.28687259906E+03  0.00000000000E+00 0.  1.
         -6    2    1    2    0  503 -0.18745994667E+02 -0.16616741950E+03 -0.45434526282E+02  0.24442040746E+03  0.17237753852E+03 0.  0.
        -24    2    3    3    0    0 -0.64310283322E+01 -0.12187631145E+02 -0.38796856597E+02  0.89734977390E+02  0.79732512860E+02 0.  0.
          6    2    1    2  501    0  0.18745994667E+02  0.16616741950E+03 -0.39410049426E+02  0.24448021496E+03  0.17393791965E+03 0.  0.
         24    2    5    5    0    0 -0.33797330474E+02  0.45963880997E+02 -0.62216056385E+02  0.11124397500E+03  0.72453063421E+02 0.  0.
          5    1    5    5  501    0  0.52543325141E+02  0.12020353850E+03  0.22806006959E+02  0.13323623996E+03  0.47000000000E+01 0. -1.
        -13    1    6    6    0    0 -0.34175791191E+02  0.63493803733E+02 -0.38474869730E+02  0.81729819630E+02  0.00000000000E+00 0.  1.
         14    1    6    6    0    0  0.37846071691E+00 -0.17529922736E+02 -0.23741186654E+02  0.29514155373E+02  0.00000000000E+00 0. -1.
         -5    1    3    3    0  503 -0.12314966335E+02 -0.15397978835E+03 -0.66376696848E+01  0.15468543007E+03  0.47000000000E+01 0.  1.
         11    1    4    4    0    0 -0.30449681642E+02  0.22336650655E+02 -0.11042419813E+02  0.39345191701E+02  0.00000000000E+00 0. -1.
        -12    1    4    4    0    0  0.24018653310E+02 -0.34524281800E+02 -0.27754436783E+02  0.50389785689E+02  0.00000000000E+00 0.  1.
</event>
<event>
12    1  0.8271773E-002  0.1856604E+03  0.7818608E-02  0.1162767E+00
         21   -1    0    0  503  502  0.00000000000E+00  0.00000000000E+00  0.15508777623E+03  0.15508777623E+03  0.00000000000E+00 0. -1.
         21   -1    0    0  501  503 -0.00000000000E+00 -0.00000000000E+00 -0.29294062485E+03  0.29294062485E+03  0.00000000000E+00 0.  1.
          6    2    1    2  501    0 -0.61131087012E+02  0.29067943853E+02 -0.18047678363E+03  0.25892402719E+03  0.17288096271E+03 0.  0.
         24    2    3    3    0    0 -0.15348157656E+02 -0.45003694193E+02 -0.10868461917E+03  0.14596877471E+03  0.85050798429E+02 0.  0.
         -6    2    1    2    0  502  0.61131087012E+02 -0.29067943853E+02  0.42623935020E+02  0.18910437389E+03  0.17135258746E+03 0.  0.
        -24    2    5    5    0    0  0.60273212470E+01 -0.40735304238E+02  0.80967384540E+02  0.12080457579E+03  0.79638775475E+02 0.  0.
          5    1    3    3  501    0 -0.45782929356E+02  0.74071638045E+02 -0.71792164468E+02  0.11295525248E+03  0.47000000000E+01 0. -1.
        -13    1    4    4    0    0 -0.16801941695E+02  0.26452617692E+01 -0.94804289279E+02  0.96317993751E+02  0.00000000000E+00 0.  1.
         14    1    4    4    0    0  0.14537840391E+01 -0.47648955962E+02 -0.13880329887E+02  0.49650780961E+02  0.00000000000E+00 0. -1.
         -5    1    5    5    0  502  0.55103765765E+02  0.11667360386E+02 -0.38343449520E+02  0.68299798103E+02  0.47000000000E+01 0.  1.
         13    1    6    6    0    0  0.89788754171E+01  0.11357277123E+02  0.64480096070E+02  0.66085480528E+02  0.00000000000E+00 0. -1.
        -14    1    6    6    0    0 -0.29515541701E+01 -0.52092581361E+02  0.16487288470E+02  0.54719095260E+02  0.00000000000E+00 0.  1.
</event>
<event>
12    1  0.8271773E-002  0.1869135E+03  0.7818608E-02  0.1163923E+00
         21   -1    0    0  501  502  0.00000000000E+00  0.00000000000E+00  0.15218273460E+03  0.15218273460E+03  0.00000000000E+00 0.  1.
         21   -1    0    0  502  503 -0.00000000000E+00 -0.00000000000E+00 -0.22138064616E+03  0.22138064616E+03  0.00000000000E+00 0.  1.
         -6    2    1    2    0  503 -0.10194243787E+02 -0.38241036180E+02 -0.68302307048E+01  0.18703824372E+03  0.18267554053E+03 0.  0.
        -24    2    3    3    0    0  0.26015785238E+02  0.50910646425E+01  0.53874837619E+02  0.10399589017E+03  0.84911171363E+02 0.  0.
          6    2    1    2  501    0  0.10194243787E+02  0.38241036180E+02 -0.62367680851E+02  0.18652513704E+03  0.17127638389E+03 0.  0.
         24    2    5    5    0    0  0.56625038248E+02 -0.23414251035E+02  0.57026972290E+01  0.83506403366E+02  0.56446226972E+02 0.  0.
          5    1    5    5  501    0 -0.46430794460E+02  0.61655287215E+02 -0.68070378080E+02  0.10301873367E+03  0.47000000000E+01 0. -1.
        -13    1    6    6    0    0  0.29950895540E+02  0.13586134636E+02 -0.11377148459E+02  0.34800556103E+02  0.00000000000E+00 0.  1.
         14    1    6    6    0    0  0.26674142707E+02 -0.37000385670E+02  0.17079845688E+02  0.48705847263E+02  0.00000000000E+00 0. -1.
         -5    1    3    3    0  503 -0.36210029026E+02 -0.43332100823E+02 -0.60705068324E+02  0.83042353555E+02  0.47000000000E+01 0.  1.
         13    1    4    4    0    0  0.22413263045E+02 -0.65468980770E+01  0.75580409162E+02  0.79105085069E+02  0.00000000000E+00 0. -1.
        -14    1    4    4    0    0  0.36025221937E+01  0.11637962719E+02 -0.21705571542E+02  0.24890805097E+02  0.00000000000E+00 0.  1.
</event>
<event>
12    1  0.8271773E-002  0.1769999E+03  0.7818608E-02  0.1171007E+00
         21   -1    0    0  503  502  0.00000000000E+00  0.00000000000E+00  0.50788117331E+02  0.50788117331E+02  0.00000000000E+00 0.  1.
         21   -1    0    0  501  503 -0.00000000000E+00 -0.00000000000E+00 -0.12761778171E+04  0.12761778171E+04  0.00000000000E+00 0.  1.
          6    2    1    2  501    0  0.24860584886E+02 -0.32210714941E+02 -0.10900459472E+04  0.11041500938E+04  0.17114813424E+03 0.  0.
         24    2    3    3    0    0  0.73089380039E+02 -0.56144144703E+02 -0.79820689561E+03  0.80734890148E+03  0.78637001929E+02 0.  0.
         -6    2    1    2    0  502 -0.24860584886E+02  0.32210714941E+02 -0.13534375255E+03  0.22281584059E+03  0.17225965466E+03 0.  0.
        -24    2    5    5    0    0 -0.86536053098E+01  0.68486078042E+02 -0.31844539752E+02  0.11185303058E+03  0.82047534800E+02 0.  0.
          5    1    3    3  501    0 -0.48228795153E+02  0.23933429762E+02 -0.29183905159E+03  0.29680119234E+03  0.47000000000E+01 0. -1.
        -11    1    4    4    0    0  0.37312858285E+01 -0.24396111542E+01 -0.38071560622E+03  0.38074170643E+03  0.00000000000E+00 0.  1.
         12    1    4    4    0    0  0.69358094210E+02 -0.53704533549E+02 -0.41749128939E+03  0.42660719505E+03  0.00000000000E+00 0. -1.
         -5    1    5    5    0  502 -0.16206979576E+02 -0.36275363101E+02 -0.10349921280E+03  0.11096281001E+03  0.47000000000E+01 0.  1.
         11    1    6    6    0    0  0.75645285163E+01 -0.17558009647E+02 -0.14687297268E+01  0.19174539406E+02  0.00000000000E+00 0. -1.
        -12    1    6    6    0    0 -0.16218133826E+02  0.86044087689E+02 -0.30375810025E+02  0.92678491171E+02  0.00000000000E+00 0.  1.
</event>
<event>
12    1  0.8271773E-002  0.2103491E+03  0.7818608E-02  0.1141691E+00
         21   -1    0    0  503  502  0.00000000000E+00  0.00000000000E+00  0.58836379177E+03  0.58836379177E+03  0.00000000000E+00 0. -1.
         21   -1    0    0  501  503 -0.00000000000E+00 -0.00000000000E+00 -0.81905137154E+02  0.81905137154E+02  0.00000000000E+00 0. -1.
          6    2    1    2  501    0  0.95526733548E+02  0.67222256566E+02  0.15345608161E+03  0.26037574775E+03  0.17493590950E+03 0.  0.
         24    2    3    3    0    0  0.21975452062E+01  0.50520744849E+02  0.18746708638E+02  0.95578954528E+02  0.78909584962E+02 0.  0.
         -6    2    1    2    0  502 -0.95526733548E+02 -0.67222256566E+02  0.35300257300E+03  0.40989318117E+03  0.17250337626E+03 0.  0.
        -24    2    5    5    0    0 -0.40640361108E+02 -0.62116718465E+02  0.33220052043E+03  0.35078822545E+03  0.84764778520E+02 0.  0.
          5    1    3    3  501    0  0.93329188341E+02  0.16701511718E+02  0.13470937297E+03  0.16479679322E+03  0.47000000000E+01 0. -1.
        -13    1    4    4    0    0  0.10361095298E+02 -0.87901012401E+01 -0.20062564843E+02  0.24230655865E+02  0.00000000000E+00 0.  1.
         14    1    4    4    0    0 -0.81635500913E+01  0.59310846089E+02  0.38809273481E+02  0.71348298662E+02  0.00000000000E+00 0. -1.
         -5    1    5    5    0  502 -0.54886372440E+02 -0.51055381012E+01  0.20802052570E+02  0.59104955715E+02  0.47000000000E+01 0.  1.
         13    1    6    6    0    0 -0.52682727793E+02 -0.42175877814E+02  0.12302021693E+03  0.14031481835E+03  0.00000000000E+00 0. -1.
        -14    1    6    6    0    0  0.12042366686E+02 -0.19940840652E+02  0.20918030351E+03  0.21047340710E+03  0.00000000000E+00 0.  1.
</event>
<event>
12    1  0.8271773E-002  0.1875360E+03  0.7818608E-02  0.1161526E+00
         21   -1    0    0  501  502  0.00000000000E+00  0.00000000000E+00  0.90191338716E+02  0.90191338716E+02  0.00000000000E+00 0.  1.
         21   -1    0    0  502  503 -0.00000000000E+00 -0.00000000000E+00 -0.38674962948E+03  0.38674962948E+03  0.00000000000E+00 0.  1.
         -6    2    1    2    0  503 -0.68554085314E+02 -0.50137414956E+01 -0.17159501379E+03  0.25158439131E+03  0.17066064860E+03 0.  0.
        -24    2    3    3    0    0 -0.41816380437E+02  0.63446976939E+02 -0.95182125021E+02  0.14545807789E+03  0.79525385539E+02 0.  0.
          6    2    1    2  501    0  0.68554085314E+02  0.50137414956E+01 -0.12496327698E+03  0.22535657689E+03  0.17448485876E+03 0.  0.
         24    2    5    5    0    0  0.61877039539E+02  0.32136221574E+02 -0.90683482594E+01  0.10605051514E+03  0.79391259358E+02 0.  0.
          5    1    5    5  501    0  0.66770457754E+01 -0.27122480078E+02 -0.11589492872E+03  0.11930606175E+03  0.47000000000E+01 0. -1.
        -13    1    6    6    0    0  0.53410046231E+02  0.48485526179E+02 -0.30042986112E+02  0.78141284235E+02  0.00000000000E+00 0.  1.
         14    1    6    6    0    0  0.84669933075E+01 -0.16349304606E+02  0.20974637852E+02  0.27909230906E+02  0.00000000000E+00 0. -1.
         -5    1    3    3    0  503 -0.26737704877E+02 -0.68460718435E+02 -0.76412888765E+02  0.10612631342E+03  0.47000000000E+01 0.  1.
         11    1    4    4    0    0 -0.65622560888E+02  0.48953881914E+02 -0.75182630876E+02  0.11115408691E+03  0.00000000000E+00 0. -1.
        -12    1    4    4    0    0  0.23806180451E+02  0.14493095025E+02 -0.19999494145E+02  0.34303990980E+02  0.00000000000E+00 0.  1.
</event>
<event>
12    1  0.8271773E-002  0.1997779E+03  0.7818608E-02  0.1150821E+00
         21   -1    0    0  501  502  0.00000000000E+00  0.00000000000E+00  0.16273964811E+04  0.16273964811E+04  0.00000000000E+00 0. -1.
         21   -1    0    0  502  503 -0.00000000000E+00 -0.00000000000E+00 -0.27380581654E+02  0.27380581654E+02  0.00000000000E+00 0. -1.
         -6    2    1    2    0  503  0.10072830701E+03  0.17020483698E+02  0.51729961248E+03  0.55453594220E+03  0.17168381818E+03 0.  0.
        -24    2    3    3    0    0  0.26864239352E+02  0.57837094728E+02  0.17981285275E+03  0.20662604119E+03  0.79340040351E+02 0.  0.
          6    2    1    2  501    0 -0.10072830701E+03 -0.17020483698E+02  0.10827162870E+04  0.11002411206E+04  0.16679351483E+03 0.  0.
         24    2    5    5    0    0  0.68007547383E+01 -0.24280959938E+02  0.49032667545E+03  0.49810927829E+03  0.84004697346E+02 0.  0.
          5    1    5    5  501    0 -0.10752906175E+03  0.72604762399E+01  0.59238961153E+03  0.60213184228E+03  0.47000000000E+01 0. -1.
        -11    1    6    6    0    0 -0.17649664888E+02 -0.40317744343E+02  0.14463237569E+03  0.15118053869E+03  0.00000000000E+00 0.  1.
         12    1    6    6    0    0  0.24450419627E+02  0.16036784405E+02  0.34569429976E+03  0.34692873960E+03  0.00000000000E+00 0. -1.
         -5    1    3    3    0  503  0.73864067662E+02 -0.40816611030E+02  0.33748675973E+03  0.34790990101E+03  0.47000000000E+01 0.  1.
         11    1    4    4    0    0  0.42775582996E+02  0.69046512799E+02  0.15593489765E+03  0.17582054413E+03  0.00000000000E+00 0. -1.
        -12    1    4    4    0    0 -0.15911343643E+02 -0.11209418071E+02  0.23877955093E+02  0.30805497066E+02  0.00000000000E+00 0.  1.
</event>
<event>
12    1  0.8271773E-002  0.1905667E+03  0.7818608E-02  0.1158073E+00
         21   -1    0    0  503  502  0.00000000000E+00  0.00000000000E+00  0.27363429745E+04  0.27363429745E+04  0.00000000000E+00 0.  1.
         21   -1    0    0  501  503 -0.00000000000E+00 -0.00000000000E+00 -0.22993702304E+02  0.22993702304E+02  0.00000000000E+00 0.  1.
          6    2    1    2  501    0 -0.78363481295E+02  0.72844091154E+01  0.45670815438E+03  0.49466345828E+03  0.17296155892E+03 0.  0.
         24    2    3    3    0    0  0.66376881457E+01 -0.20353653007E+01  0.34415020485E+03  0.35322994385E+03  0.79270600598E+02 0.  0.
         -6    2    1    2    0  502  0.78363481295E+02 -0.72844091154E+01  0.22566411178E+04  0.22646732185E+04  0.17355619912E+03 0.  0.
        -24    2    5    5    0    0  0.35907868893E+02  0.45918613828E+02  0.98399743182E+03  0.99020192336E+03  0.94079801560E+02 0.  0.
          5    1    3    3  501    0 -0.85001169441E+02  0.93197744161E+01  0.11255794952E+03  0.14143351443E+03  0.47000000000E+01 0. -1.
        -11    1    4    4    0    0 -0.35185227746E+02 -0.50134889771E+01  0.19884693514E+03  0.20199811617E+03  0.00000000000E+00 0.  1.
         12    1    4    4    0    0  0.41822915892E+02  0.29781236764E+01  0.14530326971E+03  0.15123182768E+03  0.00000000000E+00 0. -1.
         -5    1    5    5    0  502  0.42455612402E+02 -0.53203022943E+02  0.12726436860E+04  0.12744712951E+04  0.47000000000E+01 0.  1.
         11    1    6    6    0    0 -0.21632620999E+02  0.53814892567E+01  0.69227378966E+02  0.72727991285E+02  0.00000000000E+00 0. -1.
        -12    1    6    6    0    0  0.57540489892E+02  0.40537124571E+02  0.91477005285E+03  0.91747393208E+03  0.00000000000E+00 0.  1.
</event>
<event>
12    1  0.8271773E-002  0.1719025E+03  0.7818608E-02  0.1175986E+00
         21   -1    0    0  501  502  0.00000000000E+00  0.00000000000E+00  0.41166232147E+02  0.41166232147E+02  0.00000000000E+00 0. -1.
         21   -1    0    0  502  503 -0.00000000000E+00 -0.00000000000E+00 -0.77002246404E+03  0.77002246404E+03  0.00000000000E+00 0. -1.
         -6    2    1    2    0  503 -0.61403702114E+01  0.53552588920E+00 -0.47136300240E+03  0.50158694078E+03  0.17137207531E+03 0.  0.
        -24    2    3    3    0    0  0.16620651423E+02 -0.48877598294E+02 -0.40303318588E+03  0.41411823339E+03  0.79955591633E+02 0.  0.
          6    2    1    2  501    0  0.61403702114E+01 -0.53552588920E+00 -0.25749322948E+03  0.30960175540E+03  0.17179200442E+03 0.  0.
         24    2    5    5    0    0  0.63546363102E+02 -0.27326624493E+02 -0.18792535268E+03  0.21539458758E+03  0.79334768618E+02 0.  0.
          5    1    5    5  501    0 -0.57405992891E+02  0.26791098604E+02 -0.69567876806E+02  0.94207167814E+02  0.47000000000E+01 0. -1.
        -13    1    6    6    0    0  0.52291712662E+02 -0.22379635409E+01 -0.42583131646E+02  0.67474104623E+02  0.00000000000E+00 0.  1.
         14    1    6    6    0    0  0.11254650441E+02 -0.25088660952E+02 -0.14534222103E+03  0.14792048296E+03  0.00000000000E+00 0. -1.
         -5    1    3    3    0  503 -0.22761021635E+02  0.49413124183E+02 -0.68329816520E+02  0.87468707394E+02  0.47000000000E+01 0.  1.
         13    1    4    4    0    0 -0.23587164246E+02 -0.86057310687E+01 -0.24250825210E+03  0.24380456366E+03  0.00000000000E+00 0. -1.
        -14    1    4    4    0    0  0.40207815670E+02 -0.40271867225E+02 -0.16052493378E+03  0.17031366973E+03  0.00000000000E+00 0.  1.
</event>
<event>
12    1  0.8271773E-002  0.1860693E+03  0.7818608E-02  0.1163406E+00
         21   -1    0    0  503  502  0.00000000000E+00  0.00000000000E+00  0.47616313701E+03  0.47616313701E+03  0.00000000000E+00 0.  1.
         21   -1    0    0  501  503 -0.00000000000E+00 -0.00000000000E+00 -0.10225717915E+03  0.10225717915E+03  0.00000000000E+00 0.  1.
          6    2    1    2  501    0  0.34922107439E+02 -0.60759459365E+02  0.35016255197E+03  0.39652946339E+03  0.17236744774E+03 0.  0.
         24    2    3    3    0    0  0.36983384660E+02 -0.14374908619E+02  0.33609507014E+03  0.34778770042E+03  0.80137255120E+02 0.  0.
         -6    2    1    2    0  502 -0.34922107439E+02  0.60759459365E+02  0.23743405892E+02  0.18189085277E+03  0.16616036684E+03 0.  0.
        -24    2    5    5    0    0 -0.72369222957E+02  0.83450023678E+02  0.19704882105E+02  0.13766927609E+03  0.79770522863E+02 0.  0.
          5    1    3    3  501    0 -0.20612772213E+01 -0.46384550746E+02  0.14067481837E+02  0.48741762965E+02  0.47000000000E+01 0. -1.
        -13    1    4    4    0    0  0.53332920372E+02 -0.34316100956E+02  0.24956821614E+03  0.25750007706E+03  0.00000000000E+00 0.  1.
         14    1    4    4    0    0 -0.16349535712E+02  0.19941192337E+02  0.86526853996E+02  0.90287623362E+02  0.00000000000E+00 0. -1.
         -5    1    5    5    0  502  0.37447115518E+02 -0.22690564313E+02  0.40385237876E+01  0.44221576677E+02  0.47000000000E+01 0.  1.
         13    1    6    6    0    0 -0.59771793440E+02  0.39968609936E+02  0.45959644358E+02  0.85337248495E+02  0.00000000000E+00 0. -1.
        -14    1    6    6    0    0 -0.12597429517E+02  0.43481413742E+02 -0.26254762253E+02  0.52332027597E+02  0.00000000000E+00 0.  1.
</event>
<event>
12    1  0.8271773E-002  0.1796191E+03  0.7818608E-02  0.1168775E+00
         21   -1    0    0  503  502  0.00000000000E+00  0.00000000000E+00  0.76024183111E+03  0.76024183111E+03  0.00000000000E+00 0.  1.
         21   -1    0    0  501  503 -0.00000000000E+00 -0.00000000000E+00 -0.14055876109E+03  0.14055876109E+03  0.00000000000E+00 0.  1.
          6    2    1    2  501    0  0.36310311954E+02 -0.22063363313E+02 -0.68219295754E+02  0.18983457135E+03  0.17198273579E+03 0.  0.
         24    2    3    3    0    0  0.48702845043E+02 -0.27858795035E+02 -0.10894878833E+03  0.14661254606E+03  0.80481802960E+02 0.  0.
         -6    2    1    2    0  502 -0.36310311954E+02  0.22063363313E+02  0.68790236577E+03  0.71096602085E+03  0.17452159528E+03 0.  0.
        -24    2    5    5    0    0  0.48042029515E+01  0.49439279277E+02  0.20458129303E+03  0.22510473050E+03  0.79695116120E+02 0.  0.
          5    1    3    3  501    0 -0.12392533088E+02  0.57954317216E+01  0.40729492572E+02  0.43222025292E+02  0.47000000000E+01 0. -1.
        -13    1    4    4    0    0 -0.20757101463E+02  0.47828074690E+01 -0.25835329434E+02  0.33484276241E+02  0.00000000000E+00 0.  1.
         14    1    4    4    0    0  0.69459946506E+02 -0.32641602504E+02 -0.83113458892E+02  0.11312826982E+03  0.00000000000E+00 0. -1.
         -5    1    5    5    0  502 -0.41114514906E+02 -0.27375915964E+02  0.48332107273E+03  0.48586129035E+03  0.47000000000E+01 0.  1.
         11    1    6    6    0    0  0.27107936175E+01 -0.90395266193E+01 -0.26239775288E+01  0.97952387214E+01  0.00000000000E+00 0. -1.
        -12    1    6    6    0    0  0.20934093340E+01  0.58478805897E+02  0.20720527056E+03  0.21530949178E+03  0.00000000000E+00 0.  1.
</event>
<event>
12    1  0.8271773E-002  0.2442145E+03  0.7818608E-02  0.1117057E+00
         21   -1    0    0  503  502  0.00000000000E+00  0.00000000000E+00  0.32839997922E+03  0.32839997922E+03  0.00000000000E+00 0.  1.
         21   -1    0    0  501  503 -0.00000000000E+00 -0.00000000000E+00 -0.18176195927E+03  0.18176195927E+03  0.00000000000E+00 0.  1.
          6    2    1    2  501    0  0.16787761282E+03  0.42701284566E+02  0.62360549572E+02  0.25205070010E+03  0.17214652099E+03 0.  0.
         24    2    3    3    0    0  0.11850918165E+03  0.58364539464E+02  0.10341425432E+03  0.18579304979E+03  0.79835479278E+02 0.  0.
         -6    2    1    2    0  502 -0.16787761282E+03 -0.42701284566E+02  0.84277470384E+02  0.25811123839E+03  0.17179181231E+03 0.  0.
        -24    2    5    5    0    0 -0.63023449959E+02 -0.40757506337E+02 -0.33921887343E+01  0.12134050733E+03  0.95283168544E+02 0.  0.
          5    1    3    3  501    0  0.49368431179E+02 -0.15663254898E+02 -0.41053704752E+02  0.66257650313E+02  0.47000000000E+01 0. -1.
        -11    1    4    4    0    0  0.73681606581E+02 -0.73326070498E+01  0.40600277492E+02  0.84446011196E+02  0.00000000000E+00 0.  1.
         12    1    4    4    0    0  0.44827575066E+02  0.65697146514E+02  0.62813976832E+02  0.10134703859E+03  0.00000000000E+00 0. -1.
         -5    1    5    5    0  502 -0.10485416287E+03 -0.19437782292E+01  0.87669659118E+02  0.13677073106E+03  0.47000000000E+01 0.  1.
         11    1    6    6    0    0  0.11741304008E+01  0.27278511794E+02  0.35844203658E+01  0.27538043817E+02  0.00000000000E+00 0. -1.
        -12    1    6    6    0    0 -0.64197580360E+02 -0.68036018131E+02 -0.69766091001E+01  0.93802463516E+02  0.00000000000E+00 0.  1.
</event>
<event>
12    1  0.8271773E-002  0.1910427E+03  0.7818608E-02  0.1157955E+00
         21   -1    0    0  503  502  0.00000000000E+00  0.00000000000E+00  0.85330323050E+03  0.85330323050E+03  0.00000000000E+00 0.  1.
         21   -1    0    0  501  503 -0.00000000000E+00 -0.00000000000E+00 -0.20643281413E+03  0.20643281413E+03  0.00000000000E+00 0.  1.
          6    2    1    2  501    0  0.78443428319E+02 -0.17849497841E+02 -0.14930649721E+03  0.24095951960E+03  0.17116390962E+03 0.  0.
         24    2    3    3    0    0  0.29932906545E+01 -0.21089193348E+02 -0.14277570045E+03  0.16501243139E+03  0.79940527962E+02 0.  0.
         -6    2    1    2    0  502 -0.78443428319E+02  0.17849497841E+02  0.79617691358E+03  0.81877652503E+03  0.17327822770E+03 0.  0.
        -24    2    5    5    0    0 -0.41776668743E+02  0.78914684376E+02  0.42675040535E+03  0.44251671685E+03  0.75712078065E+02 0.  0.
          5    1    3    3  501    0  0.75450137664E+02  0.32396955073E+01 -0.65307967585E+01  0.75947088205E+02  0.47000000000E+01 0. -1.
        -13    1    4    4    0    0 -0.34988876061E+02 -0.25324164251E+02 -0.60956743187E+02  0.74707826116E+02  0.00000000000E+00 0.  1.
         14    1    4    4    0    0  0.37982166716E+02  0.42349709024E+01 -0.81818957262E+02  0.90304605278E+02  0.00000000000E+00 0. -1.
         -5    1    5    5    0  502 -0.36666759576E+02 -0.61065186535E+02  0.36942650823E+03  0.37625980817E+03  0.47000000000E+01 0.  1.
         11    1    6    6    0    0 -0.80277456905E+01  0.32120195620E+02  0.31515501796E+03  0.31688931350E+03  0.00000000000E+00 0. -1.
        -12    1    6    6    0    0 -0.33748923052E+02  0.46794488756E+02  0.11159538739E+03  0.12562740335E+03  0.00000000000E+00 0.  1.
</event>
<event>
12    1  0.8271773E-002  0.2199543E+03  0.7818608E-02  0.1134516E+00
         21   -1    0    0  501  502  0.00000000000E+00  0.00000000000E+00  0.27724426223E+03  0.27724426223E+03  0.00000000000E+00 0. -1.
         21   -1    0    0  502  503 -0.00000000000E+00 -0.00000000000E+00 -0.21695862238E+03  0.21695862238E+03  0.00000000000E+00 0.  1.
         -6    2    1    2    0  503  0.95975183667E+02  0.87159716839E+02 -0.82188152053E+02  0.23480798170E+03  0.17768467523E+03 0.  0.
        -24    2    3    3    0    0  0.73201651370E+02  0.70286426175E+02 -0.12722985702E+03  0.18138339094E+03  0.80086419089E+02 0.  0.
          6    2    1    2  501    0 -0.95975183667E+02 -0.87159716839E+02  0.14247379190E+03  0.25939490292E+03  0.17372070159E+03 0.  0.
         24    2    5    5    0    0  0.75418147365E+01 -0.52119377484E+02  0.10634784181E+03  0.14419608083E+03  0.81910547491E+02 0.  0.
          5    1    5    5  501    0 -0.10351699840E+03 -0.35040339355E+02  0.36125950090E+02  0.11519882209E+03  0.47000000000E+01 0. -1.
        -11    1    6    6    0    0 -0.28548600584E+01  0.22176271484E+02  0.24360975771E+02  0.33066514533E+02  0.00000000000E+00 0.  1.
         12    1    6    6    0    0  0.10396674795E+02 -0.74295648968E+02  0.81986866041E+02  0.11112956630E+03  0.00000000000E+00 0. -1.
         -5    1    3    3    0  503  0.22773532297E+02  0.16873290664E+02  0.45041704970E+02  0.53424590759E+02  0.47000000000E+01 0.  1.
         11    1    4    4    0    0  0.46321809354E+02  0.59123385199E+01 -0.14649774421E+02  0.48941614799E+02  0.00000000000E+00 0. -1.
        -12    1    4    4    0    0  0.26879842016E+02  0.64374087655E+02 -0.11258008260E+03  0.13244177614E+03  0.00000000000E+00 0.  1.
</event>
<event>
12    1  0.8271773E-002  0.2088034E+03  0.7818608E-02  0.1142635E+00
         21   -1    0    0  501  502  0.00000000000E+00  0.00000000000E+00  0.43145352419E+03  0.43145352419E+03  0.00000000000E+00 0.  1.
         21   -1    0    0  502  503 -0.00000000000E+00 -0.00000000000E+00 -0.11932602474E+03  0.11932602474E+03  0.00000000000E+00 0. -1.
         -6    2    1    2    0  503 -0.58736475873E+02 -0.10262646235E+03  0.47637031016E+02  0.21416851651E+03  0.17209503877E+03 0.  0.
        -24    2    3    3    0    0 -0.54953824782E+02 -0.55596648621E+02 -0.36878900927E+02  0.11726059847E+03  0.79240674044E+02 0.  0.
          6    2    1    2  501    0  0.58736475873E+02  0.10262646235E+03  0.26449046844E+03  0.33661103241E+03  0.17137565426E+03 0.  0.
         24    2    5    5    0    0  0.44890842619E+02 -0.89089780150E+01  0.15056078040E+03  0.17650506802E+03  0.79943309925E+02 0.  0.
          5    1    5    5  501    0  0.13845633254E+02  0.11153544036E+03  0.11392968804E+03  0.16010596439E+03  0.47000000000E+01 0. -1.
        -11    1    6    6    0    0  0.13199319991E+02  0.25214660478E+02  0.11342546601E+03  0.11694159863E+03  0.00000000000E+00 0.  1.
         12    1    6    6    0    0  0.31691522628E+02 -0.34123638493E+02  0.37135314388E+02  0.59563469385E+02  0.00000000000E+00 0. -1.
         -5    1    3    3    0  503 -0.37826510909E+01 -0.47029813727E+02  0.84515931943E+02  0.96907918049E+02  0.47000000000E+01 0.  1.
         11    1    4    4    0    0  0.94567827142E+01 -0.16354143754E+02 -0.37327530349E+02  0.41835789453E+02  0.00000000000E+00 0. -1.
        -12    1    4    4    0    0 -0.64410607496E+02 -0.39242504867E+02  0.44862942205E+00  0.75424809012E+02  0.00000000000E+00 0.  1.
</event>
<event>
12    1  0.8271773E-002  0.1754845E+03  0.7818608E-02  0.1172601E+00
         21   -1    0    0  503  502  0.00000000000E+00  0.00000000000E+00  0.18104794363E+03  0.18104794363E+03  0.00000000000E+00 0.  1.
         21   -1    0    0  501  503 -0.00000000000E+00 -0.00000000000E+00 -0.19732725197E+03  0.19732725197E+03  0.00000000000E+00 0.  1.
          6    2    1    2  501    0  0.29574954572E+02  0.69774811219E+01  0.63915011310E+02  0.18543495031E+03  0.17139903426E+03 0.  0.
         24    2    3    3    0    0  0.71359774904E+01 -0.19208520280E+02 -0.27477722718E+02  0.87639571101E+02  0.80658414012E+02 0.  0.
         -6    2    1    2    0  502 -0.29574954572E+02 -0.69774811219E+01 -0.80194319642E+02  0.19294024529E+03  0.17283357940E+03 0.  0.
        -24    2    5    5    0    0  0.65313441632E+01  0.26283206748E+02 -0.10720602805E+03  0.13671159995E+03  0.80395669638E+02 0.  0.
          5    1    3    3  501    0  0.22438977082E+02  0.26186001402E+02  0.91392734028E+02  0.97795379211E+02  0.47000000000E+01 0. -1.
        -13    1    4    4    0    0  0.34316811302E+02 -0.34089378858E+02 -0.29378699247E+02  0.56593614996E+02  0.00000000000E+00 0.  1.
         14    1    4    4    0    0 -0.27180833812E+02  0.14880858578E+02  0.19009765293E+01  0.31045956105E+02  0.00000000000E+00 0. -1.
         -5    1    5    5    0  502 -0.36106298735E+02 -0.33260687870E+02  0.27011708405E+02  0.56228645341E+02  0.47000000000E+01 0.  1.
         11    1    6    6    0    0  0.20976634799E+02 -0.18143471411E+02 -0.11138565715E+02  0.29887663149E+02  0.00000000000E+00 0. -1.
        -12    1    6    6    0    0 -0.14445290635E+02  0.44426678160E+02 -0.96067462332E+02  0.10682393680E+03  0.00000000000E+00 0.  1.
</event>
<event>
12    1  0.8271773E-002  0.2224085E+03  0.7818608E-02  0.1132132E+00
         21   -1    0    0  501  502  0.00000000000E+00  0.00000000000E+00  0.16689828459E+03  0.16689828459E+03  0.00000000000E+00 0. -1.
         21   -1    0    0  502  503 -0.00000000000E+00 -0.00000000000E+00 -0.54162861318E+03  0.54162861318E+03  0.00000000000E+00 0. -1.
         -6    2    1    2    0  503  0.11180030586E+03 -0.85664137367E+02 -0.42582078072E+03  0.48032577010E+03  0.17190653072E+03 0.  0.
        -24    2    3    3    0    0 -0.33961956432E+01 -0.25085349403E+02 -0.23655955306E+03  0.25058259652E+03  0.78679137225E+02 0.  0.
          6    2    1    2  501    0 -0.11180030586E+03  0.85664137367E+02  0.51090452128E+02  0.22820112767E+03  0.17212747471E+03 0.  0.
         24    2    5    5    0    0 -0.13571050834E+03  0.42236225860E+02  0.66064799094E+02  0.17620110511E+03  0.80504850247E+02 0.  0.
          5    1    5    5  501    0  0.23910202472E+02  0.43427911507E+02 -0.14974346966E+02  0.52000022569E+02  0.47000000000E+01 0. -1.
        -13    1    6    6    0    0  0.52950897346E+01  0.19347539607E+02  0.40213001276E+01  0.20458155314E+02  0.00000000000E+00 0.  1.
         14    1    6    6    0    0 -0.14100559807E+03  0.22888686253E+02  0.62043498966E+02  0.15574294979E+03  0.00000000000E+00 0. -1.
         -5    1    3    3    0  503  0.11519650151E+03 -0.60578787965E+02 -0.18926122766E+03  0.22974317358E+03  0.47000000000E+01 0.  1.
         11    1    4    4    0    0  0.34234426469E+02 -0.17389519302E+02 -0.16453916191E+03  0.16896013477E+03  0.00000000000E+00 0. -1.
        -12    1    4    4    0    0 -0.37630622112E+02 -0.76958301004E+01 -0.72020391147E+02  0.81622461752E+02  0.00000000000E+00 0.  1.
</event>
<event>
12    1  0.8271773E-002  0.3103131E+03  0.7818608E-02  0.1080673E+00
         21   -1    0    0  503  502  0.00000000000E+00  0.00000000000E+00  0.43904062588E+03  0.43904062588E+03  0.00000000000E+00 0. -1.
         21   -1    0    0  501  503 -0.00000000000E+00 -0.00000000000E+00 -0.33806258176E+03  0.33806258176E+03  0.00000000000E+00 0. -1.
          6    2    1    2  501    0 -0.24792249809E+03 -0.48843523526E+02 -0.18225808892E+03  0.35987806762E+03  0.18011928751E+03 0.  0.
         24    2    3    3    0    0 -0.89334931928E+02 -0.30330768699E+02 -0.15588904537E+03  0.19798256216E+03  0.77427481306E+02 0.  0.
         -6    2    1    2    0  502  0.24792249809E+03  0.48843523526E+02  0.28323613304E+03  0.41722514002E+03  0.17321332385E+03 0.  0.
        -24    2    5    5    0    0  0.24867614051E+03  0.74439533392E+02  0.22308609968E+03  0.35168248055E+03  0.80821360172E+02 0.  0.
          5    1    3    3  501    0 -0.15858756616E+03 -0.18512754828E+02 -0.26369043550E+02  0.16189550546E+03  0.47000000000E+01 0. -1.
        -11    1    4    4    0    0  0.71408817720E+01 -0.24209717348E+02 -0.36184204266E+02  0.44118014970E+02  0.00000000000E+00 0.  1.
         12    1    4    4    0    0 -0.96475813700E+02 -0.61210513505E+01 -0.11970484110E+03  0.15386454719E+03  0.00000000000E+00 0. -1.
         -5    1    5    5    0  502 -0.75364242825E+00 -0.25596009866E+02  0.60150033357E+02  0.65542659473E+02  0.47000000000E+01 0.  1.
         13    1    6    6    0    0  0.16726207797E+03  0.21504481855E+02  0.17602455285E+03  0.24376974520E+03  0.00000000000E+00 0. -1.
        -14    1    6    6    0    0  0.81414062541E+02  0.52935051537E+02  0.47061546836E+02  0.10791273535E+03  0.00000000000E+00 0.  1.
</event>
<event>
12    1  0.8271773E-002  0.2052601E+03  0.7818608E-02  0.1145419E+00
         21   -1    0    0  501  502  0.00000000000E+00  0.00000000000E+00  0.14655195478E+03  0.14655195478E+03  0.00000000000E+00 0.  1.
         21   -1    0    0  502  503 -0.00000000000E+00 -0.00000000000E+00 -0.28827324471E+03  0.28827324471E+03  0.00000000000E+00 0.  1.
         -6    2    1    2    0  503 -0.10352702879E+03 -0.41174077073E+02 -0.84148903166E+02  0.22164380519E+03  0.17213886301E+03 0.  0.
        -24    2    3    3    0    0 -0.12133293464E+03  0.13733191697E+02 -0.44403255684E+02  0.15140375293E+03  0.77724936191E+02 0.  0.
          6    2    1    2  501    0  0.10352702879E+03  0.41174077073E+02 -0.57572386771E+02  0.21318139430E+03  0.17239076786E+03 0.  0.
         24    2    5    5    0    0  0.82173027140E+02  0.28421665337E+02 -0.10582206880E+03  0.15869525655E+03  0.80160319081E+02 0.  0.
          5    1    5    5  501    0  0.21354001653E+02  0.12752411736E+02  0.48249682030E+02  0.54486137756E+02  0.47000000000E+01 0. -1.
        -13    1    6    6    0    0  0.64428116770E+02  0.55690707858E+02 -0.83289554461E+02  0.11912005312E+03  0.00000000000E+00 0.  1.
         14    1    6    6    0    0  0.17744910371E+02 -0.27269042521E+02 -0.22532514340E+02  0.39575203430E+02  0.00000000000E+00 0. -1.
         -5    1    3    3    0  503  0.17805905842E+02 -0.54907268769E+02 -0.39745647482E+02  0.70240052252E+02  0.47000000000E+01 0.  1.
         11    1    4    4    0    0 -0.42418999975E+01  0.16837779141E+02  0.12289580112E+02  0.21272947640E+02  0.00000000000E+00 0. -1.
        -12    1    4    4    0    0 -0.11709103464E+03 -0.31045874439E+01 -0.56692835796E+02  0.13013080529E+03  0.00000000000E+00 0.  1.
</event>
<event>
12    1  0.8271773E-002  0.3086991E+03  0.7818608E-02  0.1081145E+00
         21   -1    0    0  503  502  0.00000000000E+00  0.00000000000E+00  0.48362791391E+03  0.48362791391E+03  0.00000000000E+00 0. -1.
         21   -1    0    0  501  503 -0.00000000000E+00 -0.00000000000E+00 -0.22949755213E+03  0.22949755213E+03  0.00000000000E+00 0. -1.
          6    2    1    2  501    0 -0.25177963945E+03  0.41554449412E+02  0.26277935744E+03  0.40430523886E+03  0.17114314582E+03 0.  0.
         24    2    3    3    0    0 -0.20442637316E+03 -0.14173013964E+01  0.12442683193E+03  0.25181781475E+03  0.78345545721E+02 0.  0.
         -6    2    1    2    0  502  0.25177963945E+03 -0.41554449412E+02 -0.86489956605E+01  0.30882022718E+03  0.17371058828E+03 0.  0.
        -24    2    5    5    0    0  0.97584085699E+02  0.15168067337E+02  0.46991722814E+02  0.13529301820E+03  0.79644552305E+02 0.  0.
          5    1    3    3  501    0 -0.47353266294E+02  0.42971750809E+02  0.13835252551E+03  0.15248742411E+03  0.47000000000E+01 0. -1.
        -11    1    4    4    0    0 -0.50408095052E+02 -0.10615862408E+02 -0.31538122887E+01  0.51610261707E+02  0.00000000000E+00 0.  1.
         12    1    4    4    0    0 -0.15401827811E+03  0.91985610120E+01  0.12758064422E+03  0.20020755304E+03  0.00000000000E+00 0. -1.
         -5    1    5    5    0  502  0.15419555376E+03 -0.56722516750E+02 -0.55640718474E+02  0.17352720898E+03  0.47000000000E+01 0.  1.
         11    1    6    6    0    0  0.47735157283E+02 -0.24422474007E+02  0.47499467207E+02  0.71633105911E+02  0.00000000000E+00 0. -1.
        -12    1    6    6    0    0  0.49848928416E+02  0.39590541344E+02 -0.50774439303E+00  0.63659912288E+02  0.00000000000E+00 0.  1.
</event>
<event>
12    1  0.8271773E-002  0.2023415E+03  0.7818608E-02  0.1150332E+00
         21   -1    0    0  501  502  0.00000000000E+00  0.00000000000E+00  0.20671233318E+03  0.20671233318E+03  0.00000000000E+00 0. -1.
         21   -1    0    0  502  503 -0.00000000000E+00 -0.00000000000E+00 -0.32172658270E+03  0.32172658270E+03  0.00000000000E+00 0. -1.
         -6    2    1    2    0  503  0.49483079562E+02  0.92707163645E+02 -0.22769526583E+03  0.29683776389E+03  0.15882169449E+03 0.  0.
        -24    2    3    3    0    0 -0.26225432023E+02  0.42552580687E+02 -0.85311714475E+02  0.12789272368E+03  0.81116981792E+02 0.  0.
          6    2    1    2  501    0 -0.49483079562E+02 -0.92707163645E+02  0.11268101631E+03  0.23160115198E+03  0.17291295154E+03 0.  0.
         24    2    5    5    0    0  0.25916116256E+02 -0.54917658854E+02  0.16372506727E+02  0.10349766093E+03  0.82195574730E+02 0.  0.
          5    1    5    5  501    0 -0.75399195818E+02 -0.37789504791E+02  0.96308509586E+02  0.12810349106E+03  0.47000000000E+01 0. -1.
        -11    1    6    6    0    0  0.50471756075E+02 -0.27749846045E+02  0.29351720808E+02  0.64644996954E+02  0.00000000000E+00 0.  1.
         12    1    6    6    0    0 -0.24555639818E+02 -0.27167812809E+02 -0.12979214081E+02  0.38852663974E+02  0.00000000000E+00 0. -1.
         -5    1    3    3    0  503  0.75708511585E+02  0.50154582958E+02 -0.14238355135E+03  0.16894504022E+03  0.47000000000E+01 0.  1.
         11    1    4    4    0    0  0.19910791701E+02  0.25799759240E+02 -0.38901199717E+01  0.32820728761E+02  0.00000000000E+00 0. -1.
        -12    1    4    4    0    0 -0.46136223724E+02  0.16752821447E+02 -0.81421594503E+02  0.95071994916E+02  0.00000000000E+00 0.  1.
</event>
<event>
12    1  0.8271773E-002  0.1851628E+03  0.7818608E-02  0.1163487E+00
         21   -1    0    0  503  502  0.00000000000E+00  0.00000000000E+00  0.56606765840E+02  0.56606765840E+02  0.00000000000E+00 0. -1.
         21   -1    0    0  501  503 -0.00000000000E+00 -0.00000000000E+00 -0.59862905428E+03  0.59862905428E+03  0.00000000000E+00 0.  1.
          6    2    1    2  501    0 -0.54156195649E+02 -0.39248091573E+02 -0.28705966472E+03  0.34159698711E+03  0.17266135721E+03 0.  0.
         24    2    3    3    0    0  0.29690120030E+02 -0.50358899052E+02 -0.18219322944E+03  0.20679077826E+03  0.78425322305E+02 0.  0.
         -6    2    1    2    0  502  0.54156195649E+02  0.39248091573E+02 -0.25496262371E+03  0.31363883301E+03  0.16997079708E+03 0.  0.
        -24    2    5    5    0    0  0.72338040987E+02  0.40971248811E+02 -0.26749893630E+03  0.29099379152E+03  0.78805268695E+02 0.  0.
          5    1    3    3  501    0 -0.83846315678E+02  0.11110807479E+02 -0.10486643528E+03  0.13480620885E+03  0.47000000000E+01 0. -1.
        -13    1    4    4    0    0  0.31746156901E+02 -0.11455940869E+02 -0.15656075279E+03  0.16015719270E+03  0.00000000000E+00 0.  1.
         14    1    4    4    0    0 -0.20560368716E+01 -0.38902958184E+02 -0.25632476650E+02  0.46633585561E+02  0.00000000000E+00 0. -1.
         -5    1    5    5    0  502 -0.18181845339E+02 -0.17231572377E+01  0.12536312590E+02  0.22645041491E+02  0.47000000000E+01 0.  1.
         11    1    6    6    0    0  0.10711397533E+02 -0.23199569140E+02 -0.62332008095E+02  0.67366410611E+02  0.00000000000E+00 0. -1.
        -12    1    6    6    0    0  0.61626643455E+02  0.64170817951E+02 -0.20516692821E+03  0.22362738091E+03  0.00000000000E+00 0.  1.
</event>
<event>
12    1  0.8271773E-002  0.1750445E+03  0.7818608E-02  0.1173139E+00
         21   -1    0    0  501  502  0.00000000000E+00  0.00000000000E+00  0.24852519573E+03  0.24852519573E+03  0.00000000000E+00 0.  1.
         21   -1    0    0  502  503 -0.00000000000E+00 -0.00000000000E+00 -0.13073707005E+03  0.13073707005E+03  0.00000000000E+00 0.  1.
         -6    2    1    2    0  503 -0.10590277068E+02  0.60099871447E+01  0.96738279083E+01  0.17352146116E+03  0.17282314840E+03 0.  0.
        -24    2    3    3    0    0 -0.16242460588E+02  0.70215016180E+02  0.29528316963E+01  0.10854843044E+03  0.81117670774E+02 0.  0.
          6    2    1    2  501    0  0.10590277068E+02 -0.60099871447E+01  0.10811429777E+03  0.20574080462E+03  0.17462045525E+03 0.  0.
         24    2    5    5    0    0 -0.34127491698E+02 -0.55494457229E+02  0.87586388374E+02  0.13579885235E+03  0.80781386468E+02 0.  0.
          5    1    5    5  501    0  0.44717768766E+02  0.49484470084E+02  0.20527909399E+02  0.69941952269E+02  0.47000000000E+01 0. -1.
        -13    1    6    6    0    0  0.78092841144E+01 -0.37681871440E+02  0.16345113839E+01  0.38517268608E+02  0.00000000000E+00 0.  1.
         14    1    6    6    0    0 -0.41936775813E+02 -0.17812585789E+02  0.85951876990E+02  0.97281583746E+02  0.00000000000E+00 0. -1.
         -5    1    3    3    0  503  0.56521835200E+01 -0.64205029035E+02  0.67209962120E+01  0.64973030728E+02  0.47000000000E+01 0.  1.
         11    1    4    4    0    0 -0.36287718504E+02  0.13764723909E+01 -0.39067264931E+01  0.36523358311E+02  0.00000000000E+00 0. -1.
        -12    1    4    4    0    0  0.20045257916E+02  0.68838543789E+02  0.68595581894E+01  0.72025072124E+02  0.00000000000E+00 0.  1.
</event>
<event>
12    1  0.8271773E-002  0.2744627E+03  0.7818608E-02  0.1099238E+00
         21   -1    0    0  501  502  0.00000000000E+00  0.00000000000E+00  0.25430614545E+03  0.25430614545E+03  0.00000000000E+00 0. -1.
         21   -1    0    0  502  503 -0.00000000000E+00 -0.00000000000E+00 -0.29356900186E+03  0.29356900186E+03  0.00000000000E+00 0. -1.
         -6    2    1    2    0  503  0.21152932337E+03  0.15548659861E+02 -0.33120387318E+01  0.27448270927E+03  0.17419349190E+03 0.  0.
        -24    2    3    3    0    0  0.17370939119E+03 -0.12004088006E+02  0.55097417506E+02  0.19949433842E+03  0.80269638910E+02 0.  0.
          6    2    1    2  501    0 -0.21152932337E+03 -0.15548659861E+02 -0.35950817679E+02  0.27339243804E+03  0.16871439897E+03 0.  0.
         24    2    5    5    0    0 -0.12860962967E+03 -0.37703759076E+02 -0.84544838578E+02  0.17465038575E+03  0.73436484252E+02 0.  0.
          5    1    5    5  501    0 -0.82919693695E+02  0.22155099214E+02  0.48594020900E+02  0.98742052293E+02  0.47000000000E+01 0. -1.
        -11    1    6    6    0    0 -0.55369366307E+01 -0.22016848508E+02 -0.33553291726E+02  0.40512006506E+02  0.00000000000E+00 0.  1.
         12    1    6    6    0    0 -0.12307269304E+03 -0.15686910568E+02 -0.50991546852E+02  0.13413837924E+03  0.00000000000E+00 0. -1.
         -5    1    3    3    0  503  0.37819932181E+02  0.27552747868E+02 -0.58409456237E+02  0.74988370853E+02  0.47000000000E+01 0.  1.
         11    1    4    4    0    0  0.10898103945E+03 -0.29063879207E+02 -0.10226488478E-01  0.11278996471E+03  0.00000000000E+00 0. -1.
        -12    1    4    4    0    0  0.64728351736E+02  0.17059791200E+02  0.55107643994E+02  0.86704373712E+02  0.00000000000E+00 0.  1.
</event>
<event>
12    1  0.8271773E-002  0.3166148E+03  0.7818608E-02  0.1077270E+00
         21   -1    0    0  503  502  0.00000000000E+00  0.00000000000E+00  0.50566513570E+03  0.50566513570E+03  0.00000000000E+00 0.  1.
         21   -1    0    0  501  503 -0.00000000000E+00 -0.00000000000E+00 -0.28196677949E+03  0.28196677949E+03  0.00000000000E+00 0. -1.
          6    2    1    2  501    0 -0.18114880695E+03  0.19357195072E+03 -0.10315677866E+03  0.33257237717E+03  0.17227325594E+03 0.  0.
         24    2    3    3    0    0 -0.93088700155E+02  0.14921415023E+03 -0.12155956821E+03  0.23215848603E+03  0.90501189421E+02 0.  0.
         -6    2    1    2    0  502  0.18114880695E+03 -0.19357195072E+03  0.32685513488E+03  0.45505953801E+03  0.17308932253E+03 0.  0.
        -24    2    5    5    0    0  0.11642058945E+03 -0.20622534789E+03  0.26898561760E+03  0.36719133198E+03  0.79959765186E+02 0.  0.
          5    1    3    3  501    0 -0.88060106792E+02  0.44357800487E+02  0.18402789543E+02  0.10041389115E+03  0.47000000000E+01 0. -1.
        -11    1    4    4    0    0 -0.27571193498E+02  0.35169970117E+01  0.51375969229E+01  0.28265436155E+02  0.00000000000E+00 0.  1.
         12    1    4    4    0    0 -0.65517506656E+02  0.14569715322E+03 -0.12669716513E+03  0.20389304987E+03  0.00000000000E+00 0. -1.
         -5    1    5    5    0  502  0.64728217499E+02  0.12653397171E+02  0.57869517282E+02  0.87868206031E+02  0.47000000000E+01 0.  1.
         11    1    6    6    0    0  0.18618068449E+01 -0.52524663877E+02  0.28951594797E+02  0.60004178866E+02  0.00000000000E+00 0. -1.
        -12    1    6    6    0    0  0.11455878260E+03 -0.15370068401E+03  0.24003402280E+03  0.30718715312E+03  0.00000000000E+00 0.  1.
</event>
<event>
12    1  0.8271773E-002  0.1981041E+03  0.7818608E-02  0.1151604E+00
         21   -1    0    0  503  502  0.00000000000E+00  0.00000000000E+00  0.12778638684E+03  0.12778638684E+03  0.00000000000E+00 0.  1.
         21   -1    0    0  501  503 -0.00000000000E+00 -0.00000000000E+00 -0.67389160476E+03  0.67389160476E+03  0.00000000000E+00 0.  1.
          6    2    1    2  501    0 -0.81305384847E+02 -0.49645349022E+02 -0.56988622292E+03  0.60333700819E+03  0.17369517002E+03 0.  0.
         24    2    3    3    0    0 -0.80107793212E+02 -0.46001515684E+02 -0.57936809519E+03  0.59208055897E+03  0.79740834024E+02 0.  0.
         -6    2    1    2    0  502  0.81305384847E+02  0.49645349022E+02  0.23781005002E+02  0.19834098342E+03  0.17233218858E+03 0.  0.
        -24    2    5    5    0    0 -0.21046149809E+02  0.83416806262E+01  0.32023809899E+02  0.87562540111E+02  0.78288887927E+02 0.  0.
          5    1    3    3  501    0 -0.11975916347E+01 -0.36438333375E+01  0.94818722702E+01  0.11256449212E+02  0.47000000000E+01 0. -1.
        -13    1    4    4    0    0 -0.16982053801E+02  0.10990891282E+02 -0.28380025486E+03  0.28452025324E+03  0.00000000000E+00 0.  1.
         14    1    4    4    0    0 -0.63125739411E+02 -0.56992406966E+02 -0.29556784033E+03  0.30756030574E+03  0.00000000000E+00 0. -1.
         -5    1    5    5    0  502  0.10235153466E+03  0.41303668396E+02 -0.82428048969E+01  0.11077844331E+03  0.47000000000E+01 0.  1.
         11    1    6    6    0    0  0.44691339445E+01 -0.55482386638E+01 -0.23685364035E+02  0.24733632567E+02  0.00000000000E+00 0. -1.
        -12    1    6    6    0    0 -0.25515283753E+02  0.13889919290E+02  0.55709173933E+02  0.62828907544E+02  0.00000000000E+00 0.  1.
</event>
<event>
12    1  0.8271773E-002  0.2388216E+03  0.7818608E-02  0.1120651E+00
         21   -1    0    0  503  502  0.00000000000E+00  0.00000000000E+00  0.88241260655E+02  0.88241260655E+02  0.00000000000E+00 0.  1.
         21   -1    0    0  501  503 -0.00000000000E+00 -0.00000000000E+00 -0.65017345301E+03  0.65017345301E+03  0.00000000000E+00 0. -1.
          6    2    1    2  501    0 -0.10948886060E+03  0.12423643400E+03 -0.24851512651E+03  0.34437665523E+03  0.17150221700E+03 0.  0.
         24    2    3    3    0    0 -0.80958786919E+02  0.20007098681E+02 -0.69293767805E+02  0.13504413301E+03  0.80502685829E+02 0.  0.
         -6    2    1    2    0  502  0.10948886060E+03 -0.12423643400E+03 -0.31341706584E+03  0.39403805843E+03  0.17208495635E+03 0.  0.
        -24    2    5    5    0    0  0.13735156355E+03 -0.89465341672E+02 -0.29291655926E+03  0.34476616129E+03  0.78702578817E+02 0.  0.
          5    1    3    3  501    0 -0.28530073678E+02  0.10422933532E+03 -0.17922135871E+03  0.20933252223E+03  0.47000000000E+01 0. -1.
        -11    1    4    4    0    0 -0.57936459167E+02  0.50930341609E+02 -0.50069391413E+02  0.91964541829E+02  0.00000000000E+00 0.  1.
         12    1    4    4    0    0 -0.23022327752E+02 -0.30923242929E+02 -0.19224376392E+02  0.43079591177E+02  0.00000000000E+00 0. -1.
         -5    1    5    5    0  502 -0.27862702951E+02 -0.34771092327E+02 -0.20500506576E+02  0.49271897135E+02  0.47000000000E+01 0.  1.
         13    1    6    6    0    0  0.36757291139E+00  0.36073497406E+01 -0.53667090182E+02  0.53789447391E+02  0.00000000000E+00 0. -1.
        -14    1    6    6    0    0  0.13698399064E+03 -0.93072691413E+02 -0.23924946908E+03  0.29097671390E+03  0.00000000000E+00 0.  1.
</event>
<event>
12    1  0.8271773E-002  0.1798813E+03  0.7818608E-02  0.1169711E+00
         21   -1    0    0  501  502  0.00000000000E+00  0.00000000000E+00  0.45565695877E+02  0.45565695877E+02  0.00000000000E+00 0. -1.
         21   -1    0    0  502  503 -0.00000000000E+00 -0.00000000000E+00 -0.10395345791E+04  0.10395345791E+04  0.00000000000E+00 0. -1.
         -6    2    1    2    0  503  0.11472153736E+02 -0.13067478872E+02 -0.18546016744E+03  0.25836551585E+03  0.17903881356E+03 0.  0.
        -24    2    3    3    0    0  0.44470688908E+02  0.50679858749E+02 -0.12561636591E+03  0.16479203158E+03  0.82648968739E+02 0.  0.
          6    2    1    2  501    0 -0.11472153736E+02  0.13067478872E+02 -0.80850871583E+03  0.82673475917E+03  0.17176044110E+03 0.  0.
         24    2    5    5    0    0 -0.59530180444E+02  0.38342734300E+02 -0.66073313019E+03  0.66922880316E+03  0.79277449412E+02 0.  0.
          5    1    5    5  501    0  0.48058026708E+02 -0.25275255428E+02 -0.14777558564E+03  0.15750595601E+03  0.47000000000E+01 0. -1.
        -13    1    6    6    0    0 -0.68282745384E+02  0.30294242810E+02 -0.33282669160E+03  0.34110684705E+03  0.00000000000E+00 0.  1.
         14    1    6    6    0    0  0.87525649394E+01  0.80484914898E+01 -0.32790643860E+03  0.32812195611E+03  0.00000000000E+00 0. -1.
         -5    1    3    3    0  503 -0.32998535172E+02 -0.63747337621E+02 -0.59843801526E+02  0.93573484270E+02  0.47000000000E+01 0.  1.
         11    1    4    4    0    0  0.58090082782E+01 -0.10423982228E+02  0.69342496724E+01  0.13801731818E+02  0.00000000000E+00 0. -1.
        -12    1    4    4    0    0  0.38661680630E+02  0.61103840977E+02 -0.13255061558E+03  0.15099029976E+03  0.00000000000E+00 0.  1.
</event>
<event>
12    1  0.8271773E-002  0.1891986E+03  0.7818608E-02  0.1159364E+00
         21   -1    0    0  503  502  0.00000000000E+00  0.00000000000E+00  0.13894803942E+04  0.13894803942E+04  0.00000000000E+00 0. -1.
         21   -1    0    0  501  503 -0.00000000000E+00 -0.00000000000E+00 -0.40455737495E+02  0.40455737495E+02  0.00000000000E+00 0.  1.
          6    2    1    2  501    0  0.27948304294E+02 -0.73512718716E+02  0.24295798806E+03  0.30793619419E+03  0.17207814564E+03 0.  0.
         24    2    3    3    0    0  0.28637593131E+02 -0.10459204219E+03  0.24074256580E+03  0.27641798418E+03  0.81794327189E+02 0.  0.
         -6    2    1    2    0  502 -0.27948304294E+02  0.73512718716E+02  0.11060666687E+04  0.11219999375E+04  0.17121669524E+03 0.  0.
        -24    2    5    5    0    0 -0.29149375467E+02  0.11099190377E+03  0.99023633168E+03  0.10001603346E+04  0.81140701494E+02 0.  0.
          5    1    3    3  501    0 -0.68928883700E+00  0.31079323472E+02  0.22154222528E+01  0.31518210011E+02  0.47000000000E+01 0. -1.
        -13    1    4    4    0    0 -0.16975533387E+02 -0.11840754450E+02  0.88053862684E+01  0.22492377088E+02  0.00000000000E+00 0.  1.
         14    1    4    4    0    0  0.45613126517E+02 -0.92751287738E+02  0.23193717954E+03  0.25392560709E+03  0.00000000000E+00 0. -1.
         -5    1    5    5    0  502  0.12010711737E+01 -0.37479185058E+02  0.11583033699E+03  0.12183960297E+03  0.47000000000E+01 0.  1.
         13    1    6    6    0    0 -0.13135409471E+02  0.10838223968E+03  0.61791352949E+03  0.62748416617E+03  0.00000000000E+00 0. -1.
        -14    1    6    6    0    0 -0.16013965997E+02  0.26096640933E+01  0.37232280219E+03  0.37267616838E+03  0.00000000000E+00 0.  1.
</event>
<event>
12    1  0.8271773E-002  0.2024393E+03  0.7818608E-02  0.1147984E+00
         21   -1    0    0  501  502  0.00000000000E+00  0.00000000000E+00  0.40900707591E+03  0.40900707591E+03  0.00000000000E+00 0. -1.
         21   -1    0    0  502  503 -0.00000000000E+00 -0.00000000000E+00 -0.11539547962E+03  0.11539547962E+03  0.00000000000E+00 0. -1.
         -6    2    1    2    0  503  0.80573833907E+02  0.65230875909E+02  0.49113165608E+02  0.20697359840E+03  0.17227523768E+03 0.  0.
        -24    2    3    3    0    0  0.75463977365E+02  0.10808685536E+03  0.54353987428E+02  0.16324372507E+03  0.79476900060E+02 0.  0.
          6    2    1    2  501    0 -0.80573833907E+02 -0.65230875909E+02  0.24449843069E+03  0.31742895713E+03  0.17388056341E+03 0.  0.
         24    2    5    5    0    0 -0.61598752999E+02  0.25609936513E+02  0.93965750452E+02  0.14052705008E+03  0.80423966127E+02 0.  0.
          5    1    5    5  501    0 -0.18975080908E+02 -0.90840812422E+02  0.15053268024E+03  0.17690190705E+03  0.47000000000E+01 0. -1.
        -11    1    6    6    0    0 -0.21218167540E+02  0.51719609480E+02  0.57335808737E+02  0.80078234259E+02  0.00000000000E+00 0.  1.
         12    1    6    6    0    0 -0.40380585458E+02 -0.26109672967E+02  0.36629941715E+02  0.60448815824E+02  0.00000000000E+00 0. -1.
         -5    1    3    3    0  503  0.51098565415E+01 -0.42855979450E+02 -0.52408218196E+01  0.43729873335E+02  0.47000000000E+01 0.  1.
         11    1    4    4    0    0  0.60782531657E+01  0.16041734078E+02 -0.19789029897E+02  0.26189465402E+02  0.00000000000E+00 0. -1.
        -12    1    4    4    0    0  0.69385724199E+02  0.92045121281E+02  0.74143017324E+02  0.13705425966E+03  0.00000000000E+00 0.  1.
</event>
<event>
12    1  0.8271773E-002  0.2400494E+03  0.7818608E-02  0.1119805E+00
         21   -1    0    0  501  502  0.00000000000E+00  0.00000000000E+00  0.54470503138E+02  0.54470503138E+02  0.00000000000E+00 0.  1.
         21   -1    0    0  502  503 -0.00000000000E+00 -0.00000000000E+00 -0.13107808947E+04  0.13107808947E+04  0.00000000000E+00 0. -1.
         -6    2    1    2    0  503 -0.16646855093E+03  0.14014985356E+02 -0.92897774810E+03  0.95949121115E+03  0.17238192929E+03 0.  0.
        -24    2    3    3    0    0 -0.11876152671E+02  0.19560634118E+02 -0.38594629646E+03  0.39483661648E+03  0.80110851616E+02 0.  0.
          6    2    1    2  501    0  0.16646855093E+03 -0.14014985356E+02 -0.32733264341E+03  0.40576018664E+03  0.17200718401E+03 0.  0.
         24    2    5    5    0    0  0.12342025877E+03  0.44416290505E+02 -0.27907719298E+03  0.31847875703E+03  0.79619544726E+02 0.  0.
          5    1    5    5  501    0  0.43048292168E+02 -0.58431275861E+02 -0.48255450427E+02  0.87281429601E+02  0.47000000000E+01 0. -1.
        -11    1    6    6    0    0  0.10476438045E+03  0.55952288860E+02 -0.17101123702E+03  0.20820921504E+03  0.00000000000E+00 0.  1.
         12    1    6    6    0    0  0.18655878317E+02 -0.11535998356E+02 -0.10806595596E+03  0.11026954199E+03  0.00000000000E+00 0. -1.
         -5    1    3    3    0  503 -0.15459239826E+03 -0.55456487621E+01 -0.54303145164E+03  0.56465459468E+03  0.47000000000E+01 0.  1.
         13    1    4    4    0    0 -0.32627847770E+02 -0.15450752587E+02 -0.25956807514E+03  0.26206657138E+03  0.00000000000E+00 0. -1.
        -14    1    4    4    0    0  0.20751695099E+02  0.35011386705E+02 -0.12637822132E+03  0.13277004509E+03  0.00000000000E+00 0.  1.
</event>
<event>
12    1  0.8271773E-002  0.1974244E+03  0.7818608E-02  0.1152403E+00
         21   -1    0    0  503  502  0.00000000000E+00  0.00000000000E+00  0.90611548509E+03  0.90611548509E+03  0.00000000000E+00 0.  1.
         21   -1    0    0  501  503 -0.00000000000E+00 -0.00000000000E+00 -0.71748449251E+02  0.71748449251E+02  0.00000000000E+00 0.  1.
          6    2    1    2  501    0 -0.93296502500E+02  0.20393954133E+02  0.10660231587E+03  0.22436675064E+03  0.17278956652E+03 0.  0.
         24    2    3    3    0    0 -0.18150015417E+02  0.54948375427E+02  0.13111886436E+02  0.99452568305E+02  0.79813186597E+02 0.  0.
         -6    2    1    2    0  502  0.93296502500E+02 -0.20393954133E+02  0.72776471997E+03  0.75349718370E+03  0.17028319786E+03 0.  0.
        -24    2    5    5    0    0  0.92958185670E+02 -0.71932788123E+02  0.48222248939E+03  0.50256005440E+03  0.78819595988E+02 0.  0.
          5    1    3    3  501    0 -0.75146487083E+02 -0.34554421295E+02  0.93490429437E+02  0.12491418233E+03  0.47000000000E+01 0. -1.
        -13    1    4    4    0    0  0.21886858069E+02  0.46401835508E+02  0.24649510984E+02  0.56918918528E+02  0.00000000000E+00 0.  1.
         14    1    4    4    0    0 -0.40036873486E+02  0.85465399191E+01 -0.11537624548E+02  0.42533649777E+02  0.00000000000E+00 0. -1.
         -5    1    5    5    0  502  0.33831683051E+00  0.51538833991E+02  0.24554223058E+03  0.25093712930E+03  0.47000000000E+01 0.  1.
         11    1    6    6    0    0  0.10034775528E+03 -0.47014007596E+02  0.43229575860E+03  0.44627302384E+03  0.00000000000E+00 0. -1.
        -12    1    6    6    0    0 -0.73895696108E+01 -0.24918780527E+02  0.49926730792E+02  0.56287030563E+02  0.00000000000E+00 0.  1.
</event>
<event>
12    1  0.8271773E-002  0.4460131E+03  0.7818608E-02  0.1028922E+00
         21   -1    0    0  503  502  0.00000000000E+00  0.00000000000E+00  0.25189227325E+03  0.25189227325E+03  0.00000000000E+00 0.  1.
         21   -1    0    0  501  503 -0.00000000000E+00 -0.00000000000E+00 -0.15766633390E+04  0.15766633390E+04  0.00000000000E+00 0. -1.
          6    2    1    2  501    0 -0.32706433336E+02  0.41024490401E+03 -0.13083652237E+04  0.13822978056E+04  0.17192170505E+03 0.  0.
         24    2    3    3    0    0 -0.38052857465E+02  0.11406896688E+03 -0.54903086690E+03  0.56721527883E+03  0.76410277877E+02 0.  0.
         -6    2    1    2    0  502  0.32706433336E+02 -0.41024490401E+03 -0.16405842065E+02  0.44625780668E+03  0.17177393959E+03 0.  0.
        -24    2    5    5    0    0  0.48147193426E+02 -0.37270722182E+03 -0.57584616357E+02  0.38824680679E+03  0.78681443221E+02 0.  0.
          5    1    3    3  501    0  0.53464241293E+01  0.29617593713E+03 -0.75933435678E+03  0.81508252673E+03  0.47000000000E+01 0. -1.
        -13    1    4    4    0    0 -0.16892410151E+02  0.23171986021E+02 -0.37326607180E+02  0.47069842366E+02  0.00000000000E+00 0.  1.
         14    1    4    4    0    0 -0.21160447315E+02  0.90896980855E+02 -0.51170425972E+03  0.52014543647E+03  0.00000000000E+00 0. -1.
         -5    1    5    5    0  502 -0.15440760090E+02 -0.37537682187E+02  0.41178774293E+02  0.58010999891E+02  0.47000000000E+01 0.  1.
         11    1    6    6    0    0  0.34096059320E+02 -0.10661953787E+03 -0.47493750127E+02  0.12159738245E+03  0.00000000000E+00 0. -1.
        -12    1    6    6    0    0  0.14051134106E+02 -0.26608768395E+03 -0.10090866230E+02  0.26664942434E+03  0.00000000000E+00 0.  1.
</event>
<event>
12    1  0.8271773E-002  0.1834714E+03  0.7818608E-02  0.1164590E+00
         21   -1    0    0  503  502  0.00000000000E+00  0.00000000000E+00  0.62859972030E+02  0.62859972030E+02  0.00000000000E+00 0.  1.
         21   -1    0    0  501  503 -0.00000000000E+00 -0.00000000000E+00 -0.58532735575E+03  0.58532735575E+03  0.00000000000E+00 0.  1.
          6    2    1    2  501    0 -0.31684663767E+02 -0.45137925896E+02 -0.35729716519E+03  0.40165034771E+03  0.17498682033E+03 0.  0.
         24    2    3    3    0    0 -0.18486892243E+02 -0.51022508212E+02 -0.83328425887E+02  0.12726053449E+03  0.79413824674E+02 0.  0.
         -6    2    1    2    0  502  0.31684663767E+02  0.45137925896E+02 -0.16517021853E+03  0.24653698008E+03  0.17452200773E+03 0.  0.
        -24    2    5    5    0    0 -0.40785062845E+01 -0.29619210326E+02 -0.12720671984E+03  0.15526293677E+03  0.83851643560E+02 0.  0.
          5    1    3    3  501    0 -0.13197771523E+02  0.58845823167E+01 -0.27396873930E+03  0.27438981321E+03  0.47000000000E+01 0. -1.
        -11    1    4    4    0    0 -0.28136122105E+02 -0.58845878616E+02 -0.91516718744E+02  0.11238233227E+03  0.00000000000E+00 0.  1.
         12    1    4    4    0    0  0.96492298618E+01  0.78233704037E+01  0.81882928570E+01  0.14878202220E+02  0.00000000000E+00 0. -1.
         -5    1    5    5    0  502  0.35763170051E+02  0.74757136222E+02 -0.37963498692E+02  0.91274043304E+02  0.47000000000E+01 0.  1.
         13    1    6    6    0    0  0.30444116707E+02 -0.22103718550E+02 -0.10941987705E+03  0.11570707891E+03  0.00000000000E+00 0. -1.
        -14    1    6    6    0    0 -0.34522622991E+02 -0.75154917755E+01 -0.17786842796E+02  0.39555857865E+02  0.00000000000E+00 0.  1.
</event>
<event>
12    1  0.8271773E-002  0.2003423E+03  0.7818608E-02  0.1149492E+00
         21   -1    0    0  503  502  0.00000000000E+00  0.00000000000E+00  0.67023154682E+02  0.67023154682E+02  0.00000000000E+00 0.  1.
         21   -1    0    0  501  503 -0.00000000000E+00 -0.00000000000E+00 -0.64720605128E+03  0.64720605128E+03  0.00000000000E+00 0.  1.
          6    2    1    2  501    0 -0.98753310862E+02  0.27737828319E+02 -0.38815916668E+03  0.43672220633E+03  0.17186373467E+03 0.  0.
         24    2    3    3    0    0 -0.19480882421E+02 -0.44152226043E+02 -0.16050063815E+03  0.18512174241E+03  0.78617306137E+02 0.  0.
         -6    2    1    2    0  502  0.98753310862E+02 -0.27737828319E+02 -0.19202372992E+03  0.27750699963E+03  0.17209130852E+03 0.  0.
        -24    2    5    5    0    0 -0.27679662858E+01  0.28647775073E+02 -0.69842350248E+02  0.10887638106E+03  0.78407625969E+02 0.  0.
          5    1    3    3  501    0 -0.79272428441E+02  0.71890054362E+02 -0.22765852853E+03  0.25160046391E+03  0.47000000000E+01 0. -1.
        -13    1    4    4    0    0 -0.80777205920E+01  0.19627039176E+02 -0.15430144594E+02  0.26240419184E+02  0.00000000000E+00 0.  1.
         14    1    4    4    0    0 -0.11403161829E+02 -0.63779265218E+02 -0.14507049355E+03  0.15888132323E+03  0.00000000000E+00 0. -1.
         -5    1    5    5    0  502  0.10152127715E+03 -0.56385603392E+02 -0.12218137967E+03  0.16863061858E+03  0.47000000000E+01 0.  1.
         11    1    6    6    0    0  0.32472667160E+02  0.34659133917E+02 -0.35414155087E+02  0.59244341981E+02  0.00000000000E+00 0. -1.
        -12    1    6    6    0    0 -0.35240633446E+02 -0.60113588437E+01 -0.34428195162E+02  0.49632039076E+02  0.00000000000E+00 0.  1.
</event>
<event>
12    1  0.8271773E-002  0.1957180E+03  0.7818608E-02  0.1154247E+00
         21   -1    0    0  501  502  0.00000000000E+00  0.00000000000E+00  0.22390287122E+02  0.22390287122E+02  0.00000000000E+00 0. -1.
         21   -1    0    0  502  503 -0.00000000000E+00 -0.00000000000E+00 -0.16948740049E+04  0.16948740049E+04  0.00000000000E+00 0. -1.
         -6    2    1    2    0  503  0.78681317544E+02  0.33691775520E+02 -0.75709561173E+03  0.78198421117E+03  0.17601038536E+03 0.  0.
        -24    2    3    3    0    0  0.65557832509E+02  0.89505729236E+02 -0.48642044523E+03  0.50526312587E+03  0.79855318302E+02 0.  0.
          6    2    1    2  501    0 -0.78681317544E+02 -0.33691775520E+02 -0.91538810603E+03  0.93528008083E+03  0.17171942078E+03 0.  0.
         24    2    5    5    0    0 -0.74968173081E+02 -0.80148246951E+02 -0.79068171751E+03  0.80206685132E+03  0.78036447352E+02 0.  0.
          5    1    5    5  501    0 -0.37131444638E+01  0.46456471431E+02 -0.12470638851E+03  0.13321322951E+03  0.47000000000E+01 0. -1.
        -13    1    6    6    0    0  0.10922935926E+01 -0.41966305203E+02 -0.15023271971E+03  0.15598792886E+03  0.00000000000E+00 0.  1.
         14    1    6    6    0    0 -0.76060466673E+02 -0.38181941748E+02 -0.64044899780E+03  0.64607892246E+03  0.00000000000E+00 0. -1.
         -5    1    3    3    0  503  0.13123485035E+02 -0.55813953716E+02 -0.27067516650E+03  0.27672108530E+03  0.47000000000E+01 0.  1.
         11    1    4    4    0    0  0.81217701568E+01  0.15121786630E+02 -0.25375224660E+03  0.25433213371E+03  0.00000000000E+00 0. -1.
        -12    1    4    4    0    0  0.57436062353E+02  0.74383942606E+02 -0.23266819863E+03  0.25093099216E+03  0.00000000000E+00 0.  1.
</event>
<event>
12    1  0.8271773E-002  0.3034605E+03  0.7818608E-02  0.1083842E+00
         21   -1    0    0  503  502  0.00000000000E+00  0.00000000000E+00  0.10354653502E+03  0.10354653502E+03  0.00000000000E+00 0. -1.
         21   -1    0    0  501  503 -0.00000000000E+00 -0.00000000000E+00 -0.89474029342E+03  0.89474029342E+03  0.00000000000E+00 0.  1.
          6    2    1    2  501    0  0.16153901281E+03 -0.19207663770E+03 -0.33726799063E+03  0.45369368880E+03  0.17058715763E+03 0.  0.
         24    2    3    3    0    0  0.12462946243E+03 -0.14119213823E+03 -0.33410367665E+03  0.39057752543E+03  0.73877018168E+02 0.  0.
         -6    2    1    2    0  502 -0.16153901281E+03  0.19207663770E+03 -0.45392576777E+03  0.54459313963E+03  0.16596625464E+03 0.  0.
        -24    2    5    5    0    0 -0.10838647912E+02  0.52468557495E+02 -0.14539726114E+03  0.17390061820E+03  0.78934375596E+02 0.  0.
          5    1    3    3  501    0  0.36909550384E+02 -0.50884499471E+02 -0.31643139710E+01  0.63116163372E+02  0.47000000000E+01 0. -1.
        -13    1    4    4    0    0  0.70999823105E+02 -0.12499494101E+03 -0.21086921628E+03  0.25520685048E+03  0.00000000000E+00 0.  1.
         14    1    4    4    0    0  0.53629639322E+02 -0.16197197222E+02 -0.12323446038E+03  0.13537067495E+03  0.00000000000E+00 0. -1.
         -5    1    5    5    0  502 -0.15070036490E+03  0.13960808021E+03 -0.30852850663E+03  0.37069252143E+03  0.47000000000E+01 0.  1.
         11    1    6    6    0    0  0.86220554003E+01  0.68556777585E+02 -0.11718461810E+03  0.13603898820E+03  0.00000000000E+00 0. -1.
        -12    1    6    6    0    0 -0.19460703312E+02 -0.16088220090E+02 -0.28212643043E+02  0.37861630004E+02  0.00000000000E+00 0.  1.
</event>
<event>
12    1  0.8271773E-002  0.2196126E+03  0.7818608E-02  0.1134298E+00
         21   -1    0    0  501  502  0.00000000000E+00  0.00000000000E+00  0.48889835153E+03  0.48889835153E+03  0.00000000000E+00 0.  1.
         21   -1    0    0  502  503 -0.00000000000E+00 -0.00000000000E+00 -0.10449224342E+03  0.10449224342E+03  0.00000000000E+00 0. -1.
         -6    2    1    2    0  503  0.54280171055E+02  0.12295377999E+03  0.12053455302E+03  0.25051603309E+03  0.17368285863E+03 0.  0.
        -24    2    3    3    0    0 -0.30789279061E+02  0.25908765705E+02  0.61526800665E+02  0.10853522109E+03  0.79844243191E+02 0.  0.
          6    2    1    2  501    0 -0.54280171055E+02 -0.12295377999E+03  0.26387155508E+03  0.34287456185E+03  0.17283170601E+03 0.  0.
         24    2    5    5    0    0 -0.86201768162E+02 -0.68093744575E+02  0.23445623800E+03  0.27276063509E+03  0.85797049099E+02 0.  0.
          5    1    5    5  501    0  0.31921597106E+02 -0.54860035411E+02  0.29415317087E+02  0.70113926765E+02  0.47000000000E+01 0. -1.
        -13    1    6    6    0    0 -0.92663646079E+02 -0.82201332096E+02  0.20819855281E+03  0.24226070192E+03  0.00000000000E+00 0.  1.
         14    1    6    6    0    0  0.64618779177E+01  0.14107587521E+02  0.26257685183E+02  0.30499933165E+02  0.00000000000E+00 0. -1.
         -5    1    3    3    0  503  0.85069450116E+02  0.97045014282E+02  0.59007752357E+02  0.14198081201E+03  0.47000000000E+01 0.  1.
         11    1    4    4    0    0 -0.81561567009E+01  0.53276355231E+02  0.37022861980E+02  0.65387959350E+02  0.00000000000E+00 0. -1.
        -12    1    4    4    0    0 -0.22633122360E+02 -0.27367589526E+02  0.24503938685E+02  0.43147261736E+02  0.00000000000E+00 0.  1.
</event>
<event>
12    1  0.8271773E-002  0.1906220E+03  0.7818608E-02  0.1158311E+00
         21   -1    0    0  501  502  0.00000000000E+00  0.00000000000E+00  0.26063865829E+03  0.26063865829E+03  0.00000000000E+00 0.  1.
         21   -1    0    0  502  503 -0.00000000000E+00 -0.00000000000E+00 -0.20473298116E+03  0.20473298116E+03  0.00000000000E+00 0.  1.
         -6    2    1    2    0  503 -0.84860318282E+02 -0.14947247021E+02 -0.10488989333E+03  0.21598848451E+03  0.16800131519E+03 0.  0.
        -24    2    3    3    0    0 -0.12169614287E+03 -0.74525419174E+01 -0.10296764285E+03  0.17805652405E+03  0.78970239392E+02 0.  0.
          6    2    1    2  501    0  0.84860318282E+02  0.14947247021E+02  0.16079557046E+03  0.24938315493E+03  0.17003543358E+03 0.  0.
         24    2    5    5    0    0  0.63004295545E+01 -0.44792637742E+02  0.73784476744E+02  0.11772628888E+03  0.79807607892E+02 0.  0.
          5    1    5    5  501    0  0.78559888728E+02  0.59739884763E+02  0.87011093717E+02  0.13165686605E+03  0.47000000000E+01 0. -1.
        -13    1    6    6    0    0  0.22937504992E+02  0.54745577094E+01 -0.37082801945E+01  0.23871557540E+02  0.00000000000E+00 0.  1.
         14    1    6    6    0    0 -0.16637075438E+02 -0.50267195451E+02  0.77492756938E+02  0.93854731343E+02  0.00000000000E+00 0. -1.
         -5    1    3    3    0  503  0.36835824589E+02 -0.74947051040E+01 -0.19222504731E+01  0.37931960464E+02  0.47000000000E+01 0.  1.
         13    1    4    4    0    0 -0.63513482199E+01 -0.10169431106E+02 -0.49430124734E+02  0.50863485768E+02  0.00000000000E+00 0. -1.
        -14    1    4    4    0    0 -0.11534479465E+03  0.27168891881E+01 -0.53537518120E+02  0.12719303828E+03  0.00000000000E+00 0.  1.
</event>
<event>
12    1  0.8271773E-002  0.2427765E+03  0.7818608E-02  0.1118003E+00
         21   -1    0    0  503  502  0.00000000000E+00  0.00000000000E+00  0.39961787568E+03  0.39961787568E+03  0.00000000000E+00 0.  1.
         21   -1    0    0  501  503 -0.00000000000E+00 -0.00000000000E+00 -0.23537127206E+03  0.23537127206E+03  0.00000000000E+00 0.  1.
          6    2    1    2  501    0 -0.14483586162E+03 -0.91900291566E+02 -0.11203564974E+03  0.26738067809E+03  0.17180614017E+03 0.  0.
         24    2    3    3    0    0 -0.16842865454E+03 -0.69610094704E+02 -0.63970566136E+02  0.20919292151E+03  0.80347172450E+02 0.  0.
         -6    2    1    2    0  502  0.14483586162E+03  0.91900291566E+02  0.27628225336E+03  0.36760846964E+03  0.17140890592E+03 0.  0.
        -24    2    5    5    0    0  0.96587700680E+02  0.11025746482E+03  0.26673032429E+03  0.31489983475E+03  0.80814278184E+02 0.  0.
          5    1    3    3  501    0  0.23592792922E+02 -0.22290196862E+02 -0.48065083607E+02  0.58187756582E+02  0.47000000000E+01 0. -1.
        -11    1    4    4    0    0 -0.76680457881E+02 -0.55525615435E+02 -0.67549474045E+02  0.11630098037E+03  0.00000000000E+00 0.  1.
         12    1    4    4    0    0 -0.91748196662E+02 -0.14084479269E+02  0.35789079092E+01  0.92891941140E+02  0.00000000000E+00 0. -1.
         -5    1    5    5    0  502  0.48248160941E+02 -0.18357173249E+02  0.95519290761E+01  0.52708634899E+02  0.47000000000E+01 0.  1.
         13    1    6    6    0    0  0.59699555692E+01 -0.19227334801E+01  0.73617556699E+02  0.73884246818E+02  0.00000000000E+00 0. -1.
        -14    1    6    6    0    0  0.90617745111E+02  0.11218019830E+03  0.19311276759E+03  0.24101558793E+03  0.00000000000E+00 0.  1.
</event>
<event>
12    1  0.8271773E-002  0.1978017E+03  0.7818608E-02  0.1151652E+00
         21   -1    0    0  501  502  0.00000000000E+00  0.00000000000E+00  0.15159924618E+04  0.15159924618E+04  0.00000000000E+00 0.  1.
         21   -1    0    0  502  503 -0.00000000000E+00 -0.00000000000E+00 -0.33458354078E+02  0.33458354078E+02  0.00000000000E+00 0.  1.
         -6    2    1    2    0  503  0.70118350328E+02  0.67204254129E+02  0.11126845430E+04  0.11301293768E+04  0.17231517985E+03 0.  0.
        -24    2    3    3    0    0  0.57808663154E+02  0.30486946070E+02  0.31729785403E+03  0.33378663392E+03  0.80400829591E+02 0.  0.
          6    2    1    2  501    0 -0.70118350328E+02 -0.67204254129E+02  0.36984956471E+03  0.41932143908E+03  0.17207200218E+03 0.  0.
         24    2    5    5    0    0  0.27310888455E+02 -0.16035270552E+02  0.13627754663E+03  0.16107988727E+03  0.79825721664E+02 0.  0.
          5    1    5    5  501    0 -0.97429238784E+02 -0.51168983576E+02  0.23357201808E+03  0.25824155181E+03  0.47000000000E+01 0. -1.
        -13    1    6    6    0    0  0.26265507101E+02 -0.79925229627E+01  0.30700968554E+01  0.27625762999E+02  0.00000000000E+00 0.  1.
         14    1    6    6    0    0  0.10453813542E+01 -0.80427475898E+01  0.13320744977E+03  0.13345412427E+03  0.00000000000E+00 0. -1.
         -5    1    3    3    0  503  0.12309687175E+02  0.36717308059E+02  0.79538668895E+03  0.79634274283E+03  0.47000000000E+01 0.  1.
         13    1    4    4    0    0  0.50521149858E+02  0.54422252264E+02  0.18885366143E+03  0.20292824732E+03  0.00000000000E+00 0. -1.
        -14    1    4    4    0    0  0.72875132963E+01 -0.23935306194E+02  0.12844419259E+03  0.13085838660E+03  0.00000000000E+00 0.  1.
</event>
<event>
12    1  0.8271773E-002  0.1890892E+03  0.7818608E-02  0.1159421E+00
         21   -1    0    0  501  502  0.00000000000E+00  0.00000000000E+00  0.13283495857E+03  0.13283495857E+03  0.00000000000E+00 0. -1.
         21   -1    0    0  502  503 -0.00000000000E+00 -0.00000000000E+00 -0.27639597017E+03  0.27639597017E+03  0.00000000000E+00 0. -1.
         -6    2    1    2    0  503 -0.64729417000E+02  0.40379905415E+02 -0.10665112962E+03  0.21657299022E+03  0.17236288016E+03 0.  0.
        -24    2    3    3    0    0 -0.11035900863E+03  0.37482228026E+02 -0.69322832236E+02  0.15736194436E+03  0.79831687064E+02 0.  0.
          6    2    1    2  501    0  0.64729417000E+02 -0.40379905415E+02 -0.36909881982E+02  0.19265793852E+03  0.17301533949E+03 0.  0.
         24    2    5    5    0    0  0.88308348864E+02  0.76669448902E+00 -0.64904797334E+02  0.13738756674E+03  0.82847803093E+02 0.  0.
          5    1    5    5  501    0 -0.23578931864E+02 -0.41146599904E+02  0.27994915352E+02  0.55270371783E+02  0.47000000000E+01 0. -1.
        -13    1    6    6    0    0  0.49799125585E+02 -0.29520529561E+01 -0.81286563851E+02  0.95373859041E+02  0.00000000000E+00 0.  1.
         14    1    6    6    0    0  0.38509223279E+02  0.37187474451E+01  0.16381766517E+02  0.42013707696E+02  0.00000000000E+00 0. -1.
         -5    1    3    3    0  503  0.45629591627E+02  0.28976773887E+01 -0.37328297387E+02  0.59211045862E+02  0.47000000000E+01 0.  1.
         13    1    4    4    0    0 -0.20278842708E+02  0.40489562679E+02 -0.28560269422E+01  0.45373924642E+02  0.00000000000E+00 0. -1.
        -14    1    4    4    0    0 -0.90080165918E+02 -0.30073346525E+01 -0.66466805294E+02  0.11198801971E+03  0.00000000000E+00 0.  1.
</event>
<event>
12    1  0.8271773E-002  0.1763818E+03  0.7818608E-02  0.1172354E+00
         21   -1    0    0  503  502  0.00000000000E+00  0.00000000000E+00  0.28750232421E+02  0.28750232421E+02  0.00000000000E+00 0.  1.
         21   -1    0    0  501  503 -0.00000000000E+00 -0.00000000000E+00 -0.12869598432E+04  0.12869598432E+04  0.00000000000E+00 0.  1.
          6    2    1    2  501    0  0.24806631300E+02 -0.99890929083E+01 -0.91260404100E+03  0.92949269590E+03  0.17434272327E+03 0.  0.
         24    2    3    3    0    0  0.77482920401E+02  0.56202605320E+00 -0.74990759735E+03  0.75809158645E+03  0.79608605445E+02 0.  0.
         -6    2    1    2    0  502 -0.24806631300E+02  0.99890929083E+01 -0.34560556978E+03  0.38621737972E+03  0.17031002201E+03 0.  0.
        -24    2    5    5    0    0  0.18298933688E+02  0.54668452650E+00 -0.32850202347E+03  0.33865825751E+03  0.80253885363E+02 0.  0.
          5    1    3    3  501    0 -0.52676289101E+02 -0.10551118962E+02 -0.16269644365E+03  0.17140110945E+03  0.47000000000E+01 0. -1.
        -13    1    4    4    0    0  0.24633217991E+02  0.38670578022E+02 -0.32451352367E+03  0.32773653455E+03  0.00000000000E+00 0.  1.
         14    1    4    4    0    0  0.52849702410E+02 -0.38108551968E+02 -0.42539407367E+03  0.43035505190E+03  0.00000000000E+00 0. -1.
         -5    1    5    5    0  502 -0.43105564988E+02  0.94424083818E+01 -0.17103546310E+02  0.47559122210E+02  0.47000000000E+01 0.  1.
         13    1    6    6    0    0  0.17654305538E+02  0.22869526704E+02 -0.40266323697E+02  0.49558718504E+02  0.00000000000E+00 0. -1.
        -14    1    6    6    0    0  0.64462815038E+00 -0.22322842178E+02 -0.28823569977E+03  0.28909953900E+03  0.00000000000E+00 0.  1.
</event>
<event>
12    1  0.8271773E-002  0.1909782E+03  0.7818608E-02  0.1158001E+00
         21   -1    0    0  501  502  0.00000000000E+00  0.00000000000E+00  0.20940332352E+03  0.20940332352E+03  0.00000000000E+00 0. -1.
         21   -1    0    0  502  503 -0.00000000000E+00 -0.00000000000E+00 -0.27819542860E+03  0.27819542860E+03  0.00000000000E+00 0. -1.
         -6    2    1    2    0  503  0.50787778916E+02  0.66161707196E+02 -0.18457809513E+03  0.26426251370E+03  0.16973164985E+03 0.  0.
        -24    2    3    3    0    0  0.59141151772E+02 -0.94591586162E+01 -0.14900657265E+03  0.18014523013E+03  0.81622262462E+02 0.  0.
          6    2    1    2  501    0 -0.50787778916E+02 -0.66161707196E+02  0.11578599005E+03  0.22333623842E+03  0.17180194968E+03 0.  0.
         24    2    5    5    0    0  0.21368786414E+02  0.70252393241E+01  0.50784359585E+02  0.10163906908E+03  0.85120327568E+02 0.  0.
          5    1    5    5  501    0 -0.72156565330E+02 -0.73186946520E+02  0.65001630467E+02  0.12169716934E+03  0.47000000000E+01 0. -1.
        -11    1    6    6    0    0  0.17298263414E+02  0.27535185014E+02  0.67463628589E+02  0.74891638474E+02  0.00000000000E+00 0.  1.
         12    1    6    6    0    0  0.40705229999E+01 -0.20509945690E+02 -0.16679269004E+02  0.26747430609E+02  0.00000000000E+00 0. -1.
         -5    1    3    3    0  503 -0.83533728559E+01  0.75620865812E+02 -0.35571522475E+02  0.84117283572E+02  0.47000000000E+01 0.  1.
         11    1    4    4    0    0  0.55891972434E+01 -0.77425410213E+01 -0.11770650105E+03  0.11809321088E+03  0.00000000000E+00 0. -1.
        -12    1    4    4    0    0  0.53551954529E+02 -0.17166175948E+01 -0.31300071600E+02  0.62052019242E+02  0.00000000000E+00 0.  1.
</event>
<event>
12    1  0.8271773E-002  0.1780049E+03  0.7818608E-02  0.1170238E+00
         21   -1    0    0  501  502  0.00000000000E+00  0.00000000000E+00  0.16074448409E+03  0.16074448409E+03  0.00000000000E+00 0. -1.
         21   -1    0    0  502  503 -0.00000000000E+00 -0.00000000000E+00 -0.21587721099E+03  0.21587721099E+03  0.00000000000E+00 0. -1.
         -6    2    1    2    0  503 -0.37207567196E+02 -0.17141442886E+02  0.30955302667E+02  0.18067642137E+03  0.17322674838E+03 0.  0.
        -24    2    3    3    0    0  0.66396827321E+00 -0.58160228707E+02 -0.24172071221E+02  0.10207673090E+03  0.80326315164E+02 0.  0.
          6    2    1    2  501    0  0.37207567196E+02  0.17141442886E+02 -0.86088029565E+02  0.19594527372E+03  0.17118752681E+03 0.  0.
         24    2    5    5    0    0  0.10451930636E+01  0.43473200261E+02  0.70085128557E+01  0.92552164855E+02  0.81398847642E+02 0.  0.
          5    1    5    5  501    0  0.36162374133E+02 -0.26331757374E+02 -0.93096542421E+02  0.10339310886E+03  0.47000000000E+01 0. -1.
        -13    1    6    6    0    0 -0.34478010513E+02  0.53292975132E+01 -0.12263343732E+02  0.36980051655E+02  0.00000000000E+00 0.  1.
         14    1    6    6    0    0  0.35523203577E+02  0.38143902747E+02  0.19271856588E+02  0.55572113200E+02  0.00000000000E+00 0. -1.
         -5    1    3    3    0  503 -0.37871535470E+02  0.41018785820E+02  0.55127373888E+02  0.78599690462E+02  0.47000000000E+01 0.  1.
         13    1    4    4    0    0 -0.24970277023E+02 -0.59182279238E+02  0.35157656755E+01  0.64330533331E+02  0.00000000000E+00 0. -1.
        -14    1    4    4    0    0  0.25634245296E+02  0.10220505310E+01 -0.27687836896E+02  0.37746197573E+02  0.00000000000E+00 0.  1.
</event>
<event>
12    1  0.8271773E-002  0.3011438E+03  0.7818608E-02  0.1084735E+00
         21   -1    0    0  503  502  0.00000000000E+00  0.00000000000E+00  0.24811270268E+03  0.24811270268E+03  0.00000000000E+00 0. -1.
         21   -1    0    0  501  503 -0.00000000000E+00 -0.00000000000E+00 -0.46970350040E+03  0.46970350040E+03  0.00000000000E+00 0. -1.
          6    2    1    2  501    0 -0.22900385072E+03 -0.90688502817E+02 -0.28027301511E+03  0.41100809985E+03  0.17235871594E+03 0.  0.
         24    2    3    3    0    0 -0.39157330735E+02  0.72073642175E+01 -0.84948073444E+02  0.12152714233E+03  0.77249132628E+02 0.  0.
         -6    2    1    2    0  502  0.22900385072E+03  0.90688502817E+02  0.58682217383E+02  0.30680810322E+03  0.17326407989E+03 0.  0.
        -24    2    5    5    0    0  0.16247936651E+03 -0.85597698387E+01  0.41349784764E+02  0.18598496866E+03  0.80048670620E+02 0.  0.
          5    1    3    3  501    0 -0.18984651998E+03 -0.97895867034E+02 -0.19532494166E+03  0.28948095752E+03  0.47000000000E+01 0. -1.
        -13    1    4    4    0    0 -0.41081263095E+02 -0.25984347219E+02 -0.29456549532E+02  0.56837881630E+02  0.00000000000E+00 0.  1.
         14    1    4    4    0    0  0.19239323599E+01  0.33191711437E+02 -0.55491523912E+02  0.64689260700E+02  0.00000000000E+00 0. -1.
         -5    1    5    5    0  502  0.66524484211E+02  0.99248272656E+02  0.17332432619E+02  0.12082313456E+03  0.47000000000E+01 0.  1.
         11    1    6    6    0    0  0.97324517396E+02 -0.14640419978E+02  0.63236291932E+02  0.11698389719E+03  0.00000000000E+00 0. -1.
        -12    1    6    6    0    0  0.65154849113E+02  0.60806501397E+01 -0.21886507168E+02  0.69001071478E+02  0.00000000000E+00 0.  1.
</event>
<event>
12    1  0.8271773E-002  0.1833860E+03  0.7818608E-02  0.1164889E+00
         21   -1    0    0  503  502  0.00000000000E+00  0.00000000000E+00  0.22602906483E+03  0.22602906483E+03  0.00000000000E+00 0. -1.
         21   -1    0    0  501  503 -0.00000000000E+00 -0.00000000000E+00 -0.23244323955E+03  0.23244323955E+03  0.00000000000E+00 0. -1.
          6    2    1    2  501    0  0.54879825140E+02  0.28887960952E+02 -0.14164099412E+03  0.23171659192E+03  0.17258070072E+03 0.  0.
         24    2    3    3    0    0  0.10887406663E+02 -0.24050460154E+02 -0.12213619877E+02  0.85049129560E+02  0.79920095538E+02 0.  0.
         -6    2    1    2    0  502 -0.54879825140E+02 -0.28887960952E+02  0.13522681940E+03  0.22675571245E+03  0.17113021635E+03 0.  0.
        -24    2    5    5    0    0 -0.60111048473E+02  0.87126061108E+01  0.15421537364E+03  0.18404946545E+03  0.80016102186E+02 0.  0.
          5    1    3    3  501    0  0.43992418477E+02  0.52938421106E+02 -0.12942737424E+03  0.14666746236E+03  0.47000000000E+01 0. -1.
        -13    1    4    4    0    0  0.40033648974E+02 -0.34133348813E+02 -0.13022712345E+02  0.54197505369E+02  0.00000000000E+00 0.  1.
         14    1    4    4    0    0 -0.29146242311E+02  0.10082888659E+02  0.80909246784E+00  0.30851624191E+02  0.00000000000E+00 0. -1.
         -5    1    5    5    0  502  0.52312233333E+01 -0.37600567063E+02 -0.18988554244E+02  0.42706247005E+02  0.47000000000E+01 0.  1.
         13    1    6    6    0    0 -0.16933198781E+02 -0.29085440907E+02  0.22800132516E+02  0.40651471517E+02  0.00000000000E+00 0. -1.
        -14    1    6    6    0    0 -0.43177849692E+02  0.37798047018E+02  0.13141524113E+03  0.14339799393E+03  0.00000000000E+00 0.  1.
</event>
<event>
12    1  0.8271773E-002  0.2178731E+03  0.7818608E-02  0.1135512E+00
         21   -1    0    0  501  502  0.00000000000E+00  0.00000000000E+00  0.20721244658E+04  0.20721244658E+04  0.00000000000E+00 0.  1.
         21   -1    0    0  502  503 -0.00000000000E+00 -0.00000000000E+00 -0.27175685473E+02  0.27175685473E+02  0.00000000000E+00 0. -1.
         -6    2    1    2    0  503  0.44672123495E+02  0.12480055946E+03  0.60597991371E+03  0.64395677625E+03  0.17291007953E+03 0.  0.
        -24    2    3    3    0    0 -0.14193826709E+02  0.10728891738E+03  0.53438851953E+03  0.54951486065E+03  0.68433294238E+02 0.  0.
          6    2    1    2  501    0 -0.44672123495E+02 -0.12480055946E+03  0.14389688666E+04  0.14553433750E+04  0.17269094321E+03 0.  0.
         24    2    5    5    0    0 -0.29413095108E+02 -0.12813627891E+03  0.72906003900E+03  0.74524718541E+03  0.81122073183E+02 0.  0.
          5    1    5    5  501    0 -0.15259028387E+02  0.33357194546E+01  0.70990882760E+03  0.71009618960E+03  0.47000000000E+01 0. -1.
        -13    1    6    6    0    0  0.25591542473E+02 -0.31747508986E+02  0.26387863793E+03  0.26701079927E+03  0.00000000000E+00 0.  1.
         14    1    6    6    0    0 -0.55004637581E+02 -0.96388769925E+02  0.46518140107E+03  0.47823638614E+03  0.00000000000E+00 0. -1.
         -5    1    3    3    0  503  0.58865950204E+02  0.17511642073E+02  0.71591394174E+02  0.94441915595E+02  0.47000000000E+01 0.  1.
         11    1    4    4    0    0 -0.18397730531E+02  0.11450809182E+03  0.44966374070E+03  0.46437921926E+03  0.00000000000E+00 0. -1.
        -12    1    4    4    0    0  0.42039038216E+01 -0.72191744390E+01  0.84724778833E+02  0.85135641392E+02  0.00000000000E+00 0.  1.
</event>
<event>
12    1  0.8271773E-002  0.1990597E+03  0.7818608E-02  0.1151392E+00
         21   -1    0    0  501  502  0.00000000000E+00  0.00000000000E+00  0.33951049853E+02  0.33951049853E+02  0.00000000000E+00 0. -1.
         21   -1    0    0  502  503 -0.00000000000E+00 -0.00000000000E+00 -0.16618262718E+04  0.16618262718E+04  0.00000000000E+00 0.  1.
         -6    2    1    2    0  503  0.85180757680E+02 -0.29722001543E+02 -0.12929946121E+04  0.13082277501E+04  0.17744187888E+03 0.  0.
        -24    2    3    3    0    0 -0.11102096888E+02 -0.56668941771E+02 -0.51677450149E+03  0.52558078258E+03  0.76450298281E+02 0.  0.
          6    2    1    2  501    0 -0.85180757680E+02  0.29722001543E+02 -0.33488060992E+03  0.38754957162E+03  0.17294649087E+03 0.  0.
         24    2    5    5    0    0 -0.40686176099E+02 -0.44541052776E+02 -0.23369912865E+03  0.25430336650E+03  0.80097747605E+02 0.  0.
          5    1    5    5  501    0 -0.44494581581E+02  0.74263054319E+02 -0.10118148126E+03  0.13324620512E+03  0.47000000000E+01 0. -1.
        -11    1    6    6    0    0 -0.44749394781E+02  0.75565753686E+01 -0.80159214533E+02  0.92114655941E+02  0.00000000000E+00 0.  1.
         12    1    6    6    0    0  0.40632186820E+01 -0.52097628145E+02 -0.15353991412E+03  0.16218871056E+03  0.00000000000E+00 0. -1.
         -5    1    3    3    0  503  0.96282854569E+02  0.26946940227E+02 -0.77622011057E+03  0.78264696749E+03  0.47000000000E+01 0.  1.
         11    1    4    4    0    0  0.30970233342E+01 -0.63213415145E+02 -0.49350448109E+03  0.49754617903E+03  0.00000000000E+00 0. -1.
        -12    1    4    4    0    0 -0.14199120223E+02  0.65444733746E+01 -0.23270020403E+02  0.28034603553E+02  0.00000000000E+00 0.  1.
</event>
<event>
12    1  0.8271773E-002  0.2122629E+03  0.7818608E-02  0.1139902E+00
         21   -1    0    0  503  502  0.00000000000E+00  0.00000000000E+00  0.24226753622E+03  0.24226753622E+03  0.00000000000E+00 0. -1.
         21   -1    0    0  501  503 -0.00000000000E+00 -0.00000000000E+00 -0.27897732890E+03  0.27897732890E+03  0.00000000000E+00 0. -1.
          6    2    1    2  501    0  0.11659569694E+03  0.39605364782E+02 -0.16923624955E+03  0.27100735626E+03  0.17216543648E+03 0.  0.
         24    2    3    3    0    0  0.84705070073E+02  0.14334374218E+02 -0.22840289986E+02  0.11898925857E+03  0.79097039320E+02 0.  0.
         -6    2    1    2    0  502 -0.11659569694E+03 -0.39605364782E+02  0.13252645688E+03  0.25023750886E+03  0.17289420927E+03 0.  0.
        -24    2    5    5    0    0 -0.86676858985E+02  0.29093577476E+02  0.33515354959E+02  0.12597983370E+03  0.79927000111E+02 0.  0.
          5    1    3    3  501    0  0.31890626869E+02  0.25270990564E+02 -0.14639595957E+03  0.15201809769E+03  0.47000000000E+01 0. -1.
        -13    1    4    4    0    0  0.17312752236E+02 -0.28878320986E+02  0.53941699800E+01  0.34099646373E+02  0.00000000000E+00 0.  1.
         14    1    4    4    0    0  0.67392317837E+02  0.43212695204E+02 -0.28234459966E+02  0.84889612202E+02  0.00000000000E+00 0. -1.
         -5    1    5    5    0  502 -0.29918837957E+02 -0.68698942258E+02  0.99011101920E+02  0.12425767516E+03  0.47000000000E+01 0.  1.
         13    1    6    6    0    0 -0.66864014181E+02 -0.92206721273E+01  0.45270811699E+02  0.81272772678E+02  0.00000000000E+00 0. -1.
        -14    1    6    6    0    0 -0.19812844805E+02  0.38314249604E+02 -0.11755456740E+02  0.44707061021E+02  0.00000000000E+00 0.  1.
</event>
<event>
12    1  0.8271773E-002  0.1808003E+03  0.7818608E-02  0.1167105E+00
         21   -1    0    0  501  502  0.00000000000E+00  0.00000000000E+00  0.18371278722E+04  0.18371278722E+04  0.00000000000E+00 0. -1.
         21   -1    0    0  502  503 -0.00000000000E+00 -0.00000000000E+00 -0.30886424379E+02  0.30886424379E+02  0.00000000000E+00 0. -1.
         -6    2    1    2    0  503  0.52640440203E+02 -0.17298139309E+02  0.29385246123E+03  0.34485665919E+03  0.17177486676E+03 0.  0.
        -24    2    3    3    0    0 -0.19389115475E+02 -0.41469579792E+02  0.96006849634E+02  0.13287201009E+03  0.79636625006E+02 0.  0.
          6    2    1    2  501    0 -0.52640440203E+02  0.17298139309E+02  0.15123889866E+04  0.15231576374E+04  0.17210026147E+03 0.  0.
         24    2    5    5    0    0 -0.10264175580E+03  0.30376386350E+02  0.10758338290E+04  0.10835286260E+04  0.71817829782E+02 0.  0.
          5    1    5    5  501    0  0.50001315602E+02 -0.13078247041E+02  0.43655515759E+03  0.43962901147E+03  0.47000000000E+01 0. -1.
        -13    1    6    6    0    0 -0.43382013300E+02 -0.15438829198E+02  0.24235495040E+03  0.24669065347E+03  0.00000000000E+00 0.  1.
         14    1    6    6    0    0 -0.59259742505E+02  0.45815215548E+02  0.83347887864E+03  0.83683797249E+03  0.00000000000E+00 0. -1.
         -5    1    3    3    0  503  0.72029555677E+02  0.24171440483E+02  0.19784561159E+03  0.21198464910E+03  0.47000000000E+01 0.  1.
         11    1    4    4    0    0  0.21399745771E-01  0.23669888999E+02  0.20910746925E+02  0.31583594478E+02  0.00000000000E+00 0. -1.
        -12    1    4    4    0    0 -0.19410515221E+02 -0.65139468791E+02  0.75096102709E+02  0.10128841561E+03  0.00000000000E+00 0.  1.
</event>
<event>
12    1  0.8271773E-002  0.1759917E+03  0.7818608E-02  0.1171936E+00
         21   -1    0    0  503  502  0.00000000000E+00  0.00000000000E+00  0.22545298946E+03  0.22545298946E+03  0.00000000000E+00 0. -1.
         21   -1    0    0  501  503 -0.00000000000E+00 -0.00000000000E+00 -0.16256539440E+03  0.16256539440E+03  0.00000000000E+00 0. -1.
          6    2    1    2  501    0  0.84596287727E+01 -0.33223985383E+02 -0.45901825645E+02  0.18111691576E+03  0.17181664952E+03 0.  0.
         24    2    3    3    0    0  0.22304632037E+02 -0.20312733221E+02  0.38788260112E+02  0.94209579054E+02  0.80379175921E+02 0.  0.
         -6    2    1    2    0  502 -0.84596287727E+01  0.33223985383E+02  0.10878942071E+03  0.20690146810E+03  0.17262004785E+03 0.  0.
        -24    2    5    5    0    0  0.50705979874E+02  0.30226883643E+02  0.11053056160E+03  0.14744834844E+03  0.77712608503E+02 0.  0.
          5    1    3    3  501    0 -0.13845003264E+02 -0.12911252162E+02 -0.84690085757E+02  0.86907336706E+02  0.47000000000E+01 0. -1.
        -13    1    4    4    0    0 -0.11303625155E+02 -0.43510602342E+02  0.22114019220E+02  0.50099643750E+02  0.00000000000E+00 0.  1.
         14    1    4    4    0    0  0.33608257191E+02  0.23197869121E+02  0.16674240892E+02  0.44109935304E+02  0.00000000000E+00 0. -1.
         -5    1    5    5    0  502 -0.59165608647E+02  0.29971017407E+01 -0.17411408901E+01  0.59453119658E+02  0.47000000000E+01 0.  1.
         13    1    6    6    0    0  0.62082344081E+02  0.35287408084E+02  0.53909188327E+02  0.89474125880E+02  0.00000000000E+00 0. -1.
        -14    1    6    6    0    0 -0.11376364206E+02 -0.50605244415E+01  0.56621373273E+02  0.57974222560E+02  0.00000000000E+00 0.  1.
</event>
<event>
12    1  0.8271773E-002  0.2217103E+03  0.7818608E-02  0.1136169E+00
         21   -1    0    0  501  502  0.00000000000E+00  0.00000000000E+00  0.11399801422E+03  0.11399801422E+03  0.00000000000E+00 0. -1.
         21   -1    0    0  502  503 -0.00000000000E+00 -0.00000000000E+00 -0.61132432116E+03  0.61132432116E+03  0.00000000000E+00 0. -1.
         -6    2    1    2    0  503  0.98643236302E+02 -0.43605351032E+02 -0.45671102237E+03  0.49992259591E+03  0.17235350082E+03 0.  0.
        -24    2    3    3    0    0  0.11189243246E+03 -0.55123132703E+02 -0.45916501714E+03  0.48158376870E+03  0.74376993150E+02 0.  0.
          6    2    1    2  501    0 -0.98643236302E+02  0.43605351032E+02 -0.40615284575E+02  0.22539973946E+03  0.19370990295E+03 0.  0.
         24    2    5    5    0    0  0.83430554704E+01 -0.35333592448E+02 -0.46500294366E+01  0.87584598779E+02  0.79569905364E+02 0.  0.
          5    1    5    5  501    0 -0.10698629177E+03  0.78938943480E+02 -0.35965255138E+02  0.13781514069E+03  0.47000000000E+01 0. -1.
        -13    1    6    6    0    0  0.12118355571E+02 -0.30614404559E+02 -0.39950774758E+02  0.51770268610E+02  0.00000000000E+00 0.  1.
         14    1    6    6    0    0 -0.37753001010E+01 -0.47191878886E+01  0.35300745321E+02  0.35814330168E+02  0.00000000000E+00 0. -1.
         -5    1    3    3    0  503 -0.13249196154E+02  0.11517781670E+02  0.24539947694E+01  0.18338827216E+02  0.47000000000E+01 0.  1.
         13    1    4    4    0    0  0.26780205036E+02  0.16984172760E+02 -0.72115485074E+02  0.78779976476E+02  0.00000000000E+00 0. -1.
        -14    1    4    4    0    0  0.85112227420E+02 -0.72107305462E+02 -0.38704953206E+03  0.40280379222E+03  0.00000000000E+00 0.  1.
</event>
<event>
12    1  0.8271773E-002  0.2643814E+03  0.7818608E-02  0.1104561E+00
         21   -1    0    0  503  502  0.00000000000E+00  0.00000000000E+00  0.53380156509E+03  0.53380156509E+03  0.00000000000E+00 0. -1.
         21   -1    0    0  501  503 -0.00000000000E+00 -0.00000000000E+00 -0.38751779589E+03  0.38751779589E+03  0.00000000000E+00 0. -1.
          6    2    1    2  501    0  0.19379443282E+03 -0.51056310189E+02 -0.30174197608E+03  0.40118043716E+03  0.17243692767E+03 0.  0.
         24    2    3    3    0    0  0.17789822880E+03 -0.21084279556E+02 -0.30899394487E+03  0.36617053893E+03  0.80692496325E+02 0.  0.
         -6    2    1    2    0  502 -0.19379443282E+03  0.51056310189E+02  0.44802574529E+03  0.52013892382E+03  0.17220453720E+03 0.  0.
        -24    2    5    5    0    0 -0.15939513195E+03  0.42125624612E+02  0.44819629611E+03  0.48428940314E+03  0.80466948538E+02 0.  0.
          5    1    3    3  501    0  0.15896204023E+02 -0.29972030633E+02  0.72519687819E+01  0.35009898226E+02  0.47000000000E+01 0. -1.
        -13    1    4    4    0    0  0.33831210774E+02  0.19905505834E+02 -0.11213422769E+03  0.11880599734E+03  0.00000000000E+00 0.  1.
         14    1    4    4    0    0  0.14406701803E+03 -0.40989785390E+02 -0.19685971718E+03  0.24736454159E+03  0.00000000000E+00 0. -1.
         -5    1    5    5    0  502 -0.34399300877E+02  0.89306855770E+01 -0.17055082358E+00  0.35849520684E+02  0.47000000000E+01 0.  1.
         11    1    6    6    0    0 -0.94081106535E+02  0.60552485797E+02  0.22974848693E+03  0.25554300105E+03  0.00000000000E+00 0. -1.
        -12    1    6    6    0    0 -0.65314025412E+02 -0.18426861185E+02  0.21844780919E+03  0.22874640209E+03  0.00000000000E+00 0.  1.
</event>
<event>
12    1  0.8271773E-002  0.2587953E+03  0.7818608E-02  0.1107907E+00
         21   -1    0    0  501  502  0.00000000000E+00  0.00000000000E+00  0.43047488208E+03  0.43047488208E+03  0.00000000000E+00 0.  1.
         21   -1    0    0  502  503 -0.00000000000E+00 -0.00000000000E+00 -0.15679518707E+03  0.15679518707E+03  0.00000000000E+00 0.  1.
         -6    2    1    2    0  503  0.18366949616E+03  0.61289036609E+02  0.10939445607E+03  0.28073356889E+03  0.17132822258E+03 0.  0.
        -24    2    3    3    0    0  0.65550990187E+02  0.57970707083E+02  0.11294074231E+03  0.16242186655E+03  0.77250995246E+02 0.  0.
          6    2    1    2  501    0 -0.18366949616E+03 -0.61289036609E+02  0.16428523895E+03  0.30653650026E+03  0.17170951176E+03 0.  0.
         24    2    5    5    0    0 -0.12652473977E+03 -0.10738935983E+03  0.13588674193E+03  0.22767378654E+03  0.76348949349E+02 0.  0.
          5    1    5    5  501    0 -0.57144756387E+02  0.46100323216E+02  0.28398497022E+02  0.78862713726E+02  0.47000000000E+01 0. -1.
        -11    1    6    6    0    0 -0.11017506526E+03 -0.10461905996E+03  0.84871821437E+02  0.17403137300E+03  0.00000000000E+00 0.  1.
         12    1    6    6    0    0 -0.16349674514E+02 -0.27702998612E+01  0.51014920491E+02  0.53642413544E+02  0.00000000000E+00 0. -1.
         -5    1    3    3    0  503  0.11811850597E+03  0.33183295258E+01 -0.35462862379E+01  0.11831170234E+03  0.47000000000E+01 0.  1.
         13    1    4    4    0    0 -0.81273149655E+01 -0.12175685397E+02  0.18699333676E+02  0.23747960825E+02  0.00000000000E+00 0. -1.
        -14    1    4    4    0    0  0.73678305153E+02  0.70146392481E+02  0.94241408630E+02  0.13867390572E+03  0.00000000000E+00 0.  1.
</event>
<event>
12    1  0.8271773E-002  0.2484285E+03  0.7818608E-02  0.1114665E+00
         21   -1    0    0  501  502  0.00000000000E+00  0.00000000000E+00  0.89799868735E+02  0.89799868735E+02  0.00000000000E+00 0.  1.
         21   -1    0    0  502  503 -0.00000000000E+00 -0.00000000000E+00 -0.72372870210E+03  0.72372870210E+03  0.00000000000E+00 0.  1.
         -6    2    1    2    0  503 -0.16945883733E+03 -0.48952350527E+02 -0.41714878049E+03  0.48552016136E+03  0.17494025225E+03 0.  0.
        -24    2    3    3    0    0 -0.28135273073E+02 -0.57688696921E+02 -0.12234934257E+03  0.15844605331E+03  0.77564236853E+02 0.  0.
          6    2    1    2  501    0  0.16945883733E+03  0.48952350527E+02 -0.21678005288E+03  0.32800840948E+03  0.17170700390E+03 0.  0.
         24    2    5    5    0    0  0.13134432465E+03  0.91149233810E+02 -0.11854679343E+03  0.21440754549E+03  0.79735430579E+02 0.  0.
          5    1    5    5  501    0  0.38114512682E+02 -0.42196883283E+02 -0.98233259453E+02  0.11360086399E+03  0.47000000000E+01 0. -1.
        -13    1    6    6    0    0  0.73780365205E+02  0.54153206427E+01 -0.62888507787E+02  0.97097025697E+02  0.00000000000E+00 0.  1.
         14    1    6    6    0    0  0.57563959442E+02  0.85733913168E+02 -0.55658285644E+02  0.11731051979E+03  0.00000000000E+00 0. -1.
         -5    1    3    3    0  503 -0.14132356426E+03  0.87363463937E+01 -0.29479943792E+03  0.32707410806E+03  0.47000000000E+01 0.  1.
         11    1    4    4    0    0 -0.27945111452E+01  0.18653389925E+02 -0.13939147412E+02  0.23453317011E+02  0.00000000000E+00 0. -1.
        -12    1    4    4    0    0 -0.25340761928E+02 -0.76342086846E+02 -0.10841019515E+03  0.13499273629E+03  0.00000000000E+00 0.  1.
</event>
<event>
12    1  0.8271773E-002  0.1872503E+03  0.7818608E-02  0.1161044E+00
         21   -1    0    0  503  502  0.00000000000E+00  0.00000000000E+00  0.10128775455E+03  0.10128775455E+03  0.00000000000E+00 0. -1.
         21   -1    0    0  501  503 -0.00000000000E+00 -0.00000000000E+00 -0.45671119626E+03  0.45671119626E+03  0.00000000000E+00 0. -1.
          6    2    1    2  501    0 -0.75138782515E+02  0.40831098168E+01 -0.31548742169E+03  0.36687188301E+03  0.17146473944E+03 0.  0.
         24    2    3    3    0    0  0.16303578702E+02 -0.16930809186E+02 -0.85287975033E+02  0.11824130271E+03  0.78450672418E+02 0.  0.
         -6    2    1    2    0  502  0.75138782515E+02 -0.40831098168E+01 -0.39936020015E+02  0.19112706780E+03  0.17109109248E+03 0.  0.
        -24    2    5    5    0    0  0.72064830196E+02  0.44880770093E+02  0.11008272875E+02  0.12024461795E+03  0.84439107044E+02 0.  0.
          5    1    3    3  501    0 -0.91442361217E+02  0.21013919003E+02 -0.23019944666E+03  0.24863058030E+03  0.47000000000E+01 0. -1.
        -11    1    4    4    0    0  0.43986585461E+01  0.31260446980E+02 -0.25855755146E+02  0.40805438566E+02  0.00000000000E+00 0.  1.
         12    1    4    4    0    0  0.11904920156E+02 -0.48191256166E+02 -0.59432219887E+02  0.77435864142E+02  0.00000000000E+00 0. -1.
         -5    1    5    5    0  502  0.30739523189E+01 -0.48963879910E+02 -0.50944292891E+02  0.70882449850E+02  0.47000000000E+01 0.  1.
         11    1    6    6    0    0  0.43404147358E+02 -0.48956263023E+01  0.36957793659E+02  0.57216830364E+02  0.00000000000E+00 0. -1.
        -12    1    6    6    0    0  0.28660682839E+02  0.49776396395E+02 -0.25949520783E+02  0.63027787584E+02  0.00000000000E+00 0.  1.
</event>
<event>
12    1  0.8271773E-002  0.2345756E+03  0.7818608E-02  0.1123558E+00
         21   -1    0    0  503  502  0.00000000000E+00  0.00000000000E+00  0.31422642917E+03  0.31422642917E+03  0.00000000000E+00 0. -1.
         21   -1    0    0  501  503 -0.00000000000E+00 -0.00000000000E+00 -0.17825194988E+03  0.17825194988E+03  0.00000000000E+00 0.  1.
          6    2    1    2  501    0  0.13762448476E+03 -0.80385050460E+02  0.33264061407E+02  0.23692233863E+03  0.17211461768E+03 0.  0.
         24    2    3    3    0    0  0.11440671325E+03  0.98152182198E+01  0.70281339851E+01  0.14004320119E+03  0.79859057006E+02 0.  0.
         -6    2    1    2    0  502 -0.13762448476E+03  0.80385050460E+02  0.10271041788E+03  0.25555604043E+03  0.17133944296E+03 0.  0.
        -24    2    5    5    0    0 -0.55182480468E+02  0.10594117900E+03  0.87455874242E+02  0.16778024149E+03  0.78949603772E+02 0.  0.
          5    1    3    3  501    0  0.23217771506E+02 -0.90200268680E+02  0.26235927422E+02  0.96879137442E+02  0.47000000000E+01 0. -1.
        -11    1    4    4    0    0  0.91132932652E+02  0.11007375280E+02 -0.29756536276E+02  0.96497798812E+02  0.00000000000E+00 0.  1.
         12    1    4    4    0    0  0.23273780598E+02 -0.11921570604E+01  0.36784670261E+02  0.43545402375E+02  0.00000000000E+00 0. -1.
         -5    1    5    5    0  502 -0.82442004289E+02 -0.25556128544E+02  0.15254543642E+02  0.87775798937E+02  0.47000000000E+01 0.  1.
         13    1    6    6    0    0 -0.28419344723E+02  0.29325123916E+02  0.75380018679E+02  0.85730795303E+02  0.00000000000E+00 0. -1.
        -14    1    6    6    0    0 -0.26763135745E+02  0.76616055088E+02  0.12075855563E+02  0.82049446188E+02  0.00000000000E+00 0.  1.
</event>
<event>
12    1  0.8271773E-002  0.2357973E+03  0.7818608E-02  0.1122683E+00
         21   -1    0    0  503  502  0.00000000000E+00  0.00000000000E+00  0.15140936544E+03  0.15140936544E+03  0.00000000000E+00 0. -1.
         21   -1    0    0  501  503 -0.00000000000E+00 -0.00000000000E+00 -0.49829290623E+03  0.49829290623E+03  0.00000000000E+00 0. -1.
          6    2    1    2  501    0 -0.88678197491E+02  0.13427611340E+03 -0.65870195621E+01  0.23588926861E+03  0.17235562328E+03 0.  0.
         24    2    3    3    0    0 -0.33992632184E+02  0.12995956478E+03 -0.51931887323E+02  0.16456332188E+03  0.79618957957E+02 0.  0.
         -6    2    1    2    0  502  0.88678197491E+02 -0.13427611340E+03 -0.34029652122E+03  0.41381300306E+03  0.17188828292E+03 0.  0.
        -24    2    5    5    0    0  0.88519638239E+02 -0.99591746580E+02 -0.34576615068E+03  0.37838649760E+03  0.76602012137E+02 0.  0.
          5    1    3    3  501    0 -0.54685565307E+02  0.43165486253E+01  0.45344867761E+02  0.71325946733E+02  0.47000000000E+01 0. -1.
        -11    1    4    4    0    0  0.69673851693E+01  0.49631636479E+02  0.14947204455E+02  0.52299739164E+02  0.00000000000E+00 0.  1.
         12    1    4    4    0    0 -0.40960017353E+02  0.80327928299E+02 -0.66879091778E+02  0.11226358271E+03  0.00000000000E+00 0. -1.
         -5    1    5    5    0  502  0.15855925203E+00 -0.34684366822E+02  0.54696294613E+01  0.35426505463E+02  0.47000000000E+01 0.  1.
         11    1    6    6    0    0  0.60913834388E+02 -0.17068495551E+02 -0.10755949339E+03  0.12478330569E+03  0.00000000000E+00 0. -1.
        -12    1    6    6    0    0  0.27605803850E+02 -0.82523251029E+02 -0.23820665729E+03  0.25360319190E+03  0.00000000000E+00 0.  1.
</event>
<event>
12    1  0.8271773E-002  0.2095440E+03  0.7818608E-02  0.1144456E+00
         21   -1    0    0  503  502  0.00000000000E+00  0.00000000000E+00  0.21416957175E+03  0.21416957175E+03  0.00000000000E+00 0. -1.
         21   -1    0    0  501  503 -0.00000000000E+00 -0.00000000000E+00 -0.54087601438E+03  0.54087601438E+03  0.00000000000E+00 0. -1.
          6    2    1    2  501    0  0.89425905320E+02 -0.49204526125E+02 -0.46778038474E+03  0.51256917259E+03  0.18300434533E+03 0.  0.
         24    2    3    3    0    0  0.85260156138E+02  0.49700839490E+01 -0.15294698806E+03  0.19304703015E+03  0.81119533622E+02 0.  0.
         -6    2    1    2    0  502 -0.89425905320E+02  0.49204526125E+02  0.14107394211E+03  0.24247641354E+03  0.16874500303E+03 0.  0.
        -24    2    5    5    0    0 -0.11139674463E+02 -0.26047645250E+02  0.81466944240E+02  0.11851388923E+03  0.81277959907E+02 0.  0.
          5    1    3    3  501    0  0.41657491815E+01 -0.54174610074E+02 -0.31483339668E+03  0.31952214244E+03  0.47000000000E+01 0. -1.
        -13    1    4    4    0    0  0.70917721606E+01  0.31070983039E+02 -0.23516531515E+02  0.39607151802E+02  0.00000000000E+00 0.  1.
         14    1    4    4    0    0  0.78168383978E+02 -0.26100899089E+02 -0.12943045654E+03  0.15343987835E+03  0.00000000000E+00 0. -1.
         -5    1    5    5    0  502 -0.78286230857E+02  0.75252171374E+02  0.59606997875E+02  0.12396252431E+03  0.47000000000E+01 0.  1.
         11    1    6    6    0    0  0.39687821425E+01  0.82266121874E+01  0.80529299745E+02  0.81045644529E+02  0.00000000000E+00 0. -1.
        -12    1    6    6    0    0 -0.15108456605E+02 -0.34274257437E+02  0.93764449523E+00  0.37468244702E+02  0.00000000000E+00 0.  1.
</event>
<event>
12    1  0.8271773E-002  0.2095225E+03  0.7818608E-02  0.1142971E+00
         21   -1    0    0  501  502  0.00000000000E+00  0.00000000000E+00  0.21162938528E+03  0.21162938528E+03  0.00000000000E+00 0.  1.
         21   -1    0    0  502  503 -0.00000000000E+00 -0.00000000000E+00 -0.22264100673E+03  0.22264100673E+03  0.00000000000E+00 0.  1.
         -6    2    1    2    0  503  0.98502543762E+02  0.49131385335E+02 -0.70884292721E+02  0.21636121853E+03  0.17225257553E+03 0.  0.
        -24    2    3    3    0    0  0.96750178285E+02 -0.20909002367E+02 -0.26264065561E+02  0.13316397479E+03  0.85117916232E+02 0.  0.
          6    2    1    2  501    0 -0.98502543762E+02 -0.49131385335E+02  0.59872671270E+02  0.21790917349E+03  0.17827794864E+03 0.  0.
         24    2    5    5    0    0 -0.67093790985E+02 -0.10072102732E+03  0.60843344376E+02  0.15732012236E+03  0.80008788335E+02 0.  0.
          5    1    5    5  501    0 -0.31408752778E+02  0.51589641981E+02 -0.97067310619E+00  0.60589051132E+02  0.47000000000E+01 0. -1.
        -13    1    6    6    0    0 -0.14467760226E+02 -0.50365842774E+02  0.66032579400E+02  0.84299085087E+02  0.00000000000E+00 0.  1.
         14    1    6    6    0    0 -0.52626030759E+02 -0.50355184541E+02 -0.51892350237E+01  0.73021037269E+02  0.00000000000E+00 0. -1.
         -5    1    3    3    0  503  0.17523654777E+01  0.70040387702E+02 -0.44620227159E+02  0.83197243740E+02  0.47000000000E+01 0.  1.
         13    1    4    4    0    0  0.10390443730E+03  0.37046898256E+01 -0.27353557438E+02  0.10750848302E+03  0.00000000000E+00 0. -1.
        -14    1    4    4    0    0 -0.71542590127E+01 -0.24613692192E+02  0.10894918761E+01  0.25655491769E+02  0.00000000000E+00 0.  1.
</event>
<event>
12    1  0.8271773E-002  0.3211791E+03  0.7818608E-02  0.1075187E+00
         21   -1    0    0  503  502  0.00000000000E+00  0.00000000000E+00  0.81678055450E+02  0.81678055450E+02  0.00000000000E+00 0. -1.
         21   -1    0    0  501  503 -0.00000000000E+00 -0.00000000000E+00 -0.13550231862E+04  0.13550231862E+04  0.00000000000E+00 0. -1.
          6    2    1    2  501    0  0.26900078686E+03 -0.30022494627E+02 -0.82729930202E+03  0.88745712180E+03  0.17289660028E+03 0.  0.
         24    2    3    3    0    0  0.88560264062E+02 -0.51347904131E+02 -0.23056498357E+03  0.26365627844E+03  0.76647856344E+02 0.  0.
         -6    2    1    2    0  502 -0.26900078686E+03  0.30022494627E+02 -0.44604582870E+03  0.54924411982E+03  0.17160841571E+03 0.  0.
        -24    2    5    5    0    0 -0.21301078417E+03 -0.25229354215E+02 -0.25455319866E+03  0.34217127138E+03  0.79206903264E+02 0.  0.
          5    1    3    3  501    0  0.18044052280E+03  0.21325409504E+02 -0.59673431845E+03  0.62380084336E+03  0.47000000000E+01 0. -1.
        -13    1    4    4    0    0  0.62347054815E+02 -0.72703818788E+00 -0.72488092653E+02  0.95614891127E+02  0.00000000000E+00 0.  1.
         14    1    4    4    0    0  0.26213209247E+02 -0.50620865943E+02 -0.15807689092E+03  0.16804138731E+03  0.00000000000E+00 0. -1.
         -5    1    5    5    0  502 -0.55990002692E+02  0.55251848842E+02 -0.19149263004E+03  0.20707284844E+03  0.47000000000E+01 0.  1.
         11    1    6    6    0    0 -0.13777564652E+03  0.22348638260E+02 -0.15933884608E+03  0.21182648153E+03  0.00000000000E+00 0. -1.
        -12    1    6    6    0    0 -0.75235137646E+02 -0.47577992475E+02 -0.95214352578E+02  0.13034478985E+03  0.00000000000E+00 0.  1.
</event>
<event>
12    1  0.8271773E-002  0.2087509E+03  0.7818608E-02  0.1143550E+00
         21   -1    0    0  501  502  0.00000000000E+00  0.00000000000E+00  0.60861152679E+02  0.60861152679E+02  0.00000000000E+00 0.  1.
         21   -1    0    0  502  503 -0.00000000000E+00 -0.00000000000E+00 -0.16268834594E+04  0.16268834594E+04  0.00000000000E+00 0.  1.
         -6    2    1    2    0  503 -0.10779233037E+03  0.14534777514E+02 -0.14242017555E+04  0.14394191839E+04  0.17817547673E+03 0.  0.
        -24    2    3    3    0    0 -0.64115356225E+01  0.57601378959E+02 -0.64315919239E+03  0.65063380560E+03  0.79445425234E+02 0.  0.
          6    2    1    2  501    0  0.10779233037E+03 -0.14534777514E+02 -0.14182055123E+03  0.24832542814E+03  0.17240070553E+03 0.  0.
         24    2    5    5    0    0  0.75296084471E+02  0.52545402343E+02 -0.54670922614E+02  0.13355215471E+03  0.80104610372E+02 0.  0.
          5    1    5    5  501    0  0.32496245898E+02 -0.67080179856E+02 -0.87149628618E+02  0.11477327344E+03  0.47000000000E+01 0. -1.
        -13    1    6    6    0    0  0.27252750861E+02  0.52886872346E+02  0.16555822884E+01  0.59518691591E+02  0.00000000000E+00 0.  1.
         14    1    6    6    0    0  0.48043333610E+02 -0.34147000280E+00 -0.56326504902E+02  0.74033463114E+02  0.00000000000E+00 0. -1.
         -5    1    3    3    0  503 -0.10138079475E+03 -0.43066601445E+02 -0.78104256308E+03  0.78878537832E+03  0.47000000000E+01 0.  1.
         13    1    4    4    0    0  0.58701133361E+00 -0.18178792096E+02 -0.65329396725E+02  0.67814033510E+02  0.00000000000E+00 0. -1.
        -14    1    4    4    0    0 -0.69985469561E+01  0.75780171055E+02 -0.57782979566E+03  0.58281977209E+03  0.00000000000E+00 0.  1.
</event>
<event>
12    1  0.8271773E-002  0.1948990E+03  0.7818608E-02  0.1154129E+00
         21   -1    0    0  503  502  0.00000000000E+00  0.00000000000E+00  0.16667285302E+03  0.16667285302E+03  0.00000000000E+00 0.  1.
         21   -1    0    0  501  503 -0.00000000000E+00 -0.00000000000E+00 -0.23261708428E+03  0.23261708428E+03  0.00000000000E+00 0.  1.
          6    2    1    2  501    0 -0.48904897340E+02  0.77640516441E+02 -0.43430151407E+01  0.19494738230E+03  0.17194732132E+03 0.  0.
         24    2    3    3    0    0 -0.26518421615E+02  0.11091287403E+03  0.29719120564E+02  0.14212197967E+03  0.79438898963E+02 0.  0.
         -6    2    1    2    0  502  0.48904897340E+02 -0.77640516441E+02 -0.61601216115E+02  0.20434255500E+03  0.17187620888E+03 0.  0.
        -24    2    5    5    0    0  0.33900220745E+02  0.20193116435E+02 -0.54189637207E+02  0.10497665771E+03  0.80787344091E+02 0.  0.
          5    1    3    3  501    0 -0.22386475725E+02 -0.33272357585E+02 -0.34062135705E+02  0.52825402634E+02  0.47000000000E+01 0. -1.
        -11    1    4    4    0    0 -0.42740273557E+02  0.10165164975E+03  0.43880388128E+02  0.11868141111E+03  0.00000000000E+00 0.  1.
         12    1    4    4    0    0  0.16221851941E+02  0.92612242795E+01 -0.14161267564E+02  0.23440568564E+02  0.00000000000E+00 0. -1.
         -5    1    5    5    0  502  0.15004676595E+02 -0.97833632876E+02 -0.74115789075E+01  0.99365897285E+02  0.47000000000E+01 0.  1.
         13    1    6    6    0    0 -0.24323701483E+02  0.19190733525E+02 -0.25146853924E+02  0.39903520764E+02  0.00000000000E+00 0. -1.
        -14    1    6    6    0    0  0.58223922229E+02  0.10023829099E+01 -0.29042783283E+02  0.65073136946E+02  0.00000000000E+00 0.  1.
</event>
<event>
12    1  0.8271773E-002  0.1849493E+03  0.7818608E-02  0.1163210E+00
         21   -1    0    0  501  502  0.00000000000E+00  0.00000000000E+00  0.59519495480E+02  0.59519495480E+02  0.00000000000E+00 0.  1.
         21   -1    0    0  502  503 -0.00000000000E+00 -0.00000000000E+00 -0.13140998076E+04  0.13140998076E+04  0.00000000000E+00 0.  1.
         -6    2    1    2    0  503 -0.51712864320E+01 -0.71585495539E+02 -0.11426348158E+04  0.11574294980E+04  0.16993379617E+03 0.  0.
        -24    2    3    3    0    0  0.50231055642E+02 -0.13981425027E+02 -0.35540758515E+03  0.36614165454E+03  0.70897957764E+02 0.  0.
          6    2    1    2  501    0  0.51712864320E+01  0.71585495539E+02 -0.11194549629E+03  0.21618980510E+03  0.17045530884E+03 0.  0.
         24    2    5    5    0    0  0.30218885379E+02  0.31680653845E+01 -0.11500817348E+03  0.14311589078E+03  0.79574245553E+02 0.  0.
          5    1    5    5  501    0 -0.25047598947E+02  0.68417430155E+02  0.30626771864E+01  0.73073914317E+02  0.47000000000E+01 0. -1.
        -13    1    6    6    0    0  0.42683948346E+02  0.28447222892E+02 -0.47295066419E+02  0.69770962759E+02  0.00000000000E+00 0.  1.
         14    1    6    6    0    0 -0.12465062967E+02 -0.25279157508E+02 -0.67713107058E+02  0.73344928022E+02  0.00000000000E+00 0. -1.
         -5    1    3    3    0  503 -0.55402342074E+02 -0.57604070512E+02 -0.78722723068E+03  0.79128784344E+03  0.47000000000E+01 0.  1.
         11    1    4    4    0    0  0.44547040894E+01  0.24616754862E+02 -0.65491662920E+02  0.70106967703E+02  0.00000000000E+00 0. -1.
        -12    1    4    4    0    0  0.45776351553E+02 -0.38598179889E+02 -0.28991592223E+03  0.29603468684E+03  0.00000000000E+00 0.  1.
</event>
<event>
12    1  0.8271773E-002  0.2414465E+03  0.7818608E-02  0.1118980E+00
         21   -1    0    0  501  502  0.00000000000E+00  0.00000000000E+00  0.15641473106E+03  0.15641473106E+03  0.00000000000E+00 0.  1.
         21   -1    0    0  502  503 -0.00000000000E+00 -0.00000000000E+00 -0.55376503471E+03  0.55376503471E+03  0.00000000000E+00 0. -1.
         -6    2    1    2    0  503 -0.13305710225E+03  0.10316544080E+03 -0.40272996628E+03  0.46956130704E+03  0.17305806739E+03 0.  0.
        -24    2    3    3    0    0 -0.11871996474E+03  0.66041112659E+02 -0.39669436692E+03  0.42903615791E+03  0.90828109423E+02 0.  0.
          6    2    1    2  501    0  0.13305710225E+03 -0.10316544080E+03  0.53796626254E+01  0.24061845874E+03  0.17181676658E+03 0.  0.
         24    2    5    5    0    0  0.16111135622E+03 -0.10524857170E+03  0.18362370736E+02  0.20928123950E+03  0.80170628034E+02 0.  0.
          5    1    5    5  501    0 -0.28054253965E+02  0.20831308970E+01 -0.12982708111E+02  0.31337219241E+02  0.47000000000E+01 0. -1.
        -13    1    6    6    0    0  0.15757886636E+02  0.12405308777E+02 -0.54140356870E+01  0.20772926118E+02  0.00000000000E+00 0.  1.
         14    1    6    6    0    0  0.14535346958E+03 -0.11765388047E+03  0.23776406423E+02  0.18850831338E+03  0.00000000000E+00 0. -1.
         -5    1    3    3    0  503 -0.14337137515E+02  0.37124328141E+02 -0.60355993649E+01  0.40525149127E+02  0.47000000000E+01 0.  1.
         11    1    4    4    0    0 -0.10762245930E+02  0.29159668111E+01 -0.16809996106E+03  0.16846936133E+03  0.00000000000E+00 0. -1.
        -12    1    4    4    0    0 -0.10795771881E+03  0.63125145848E+02 -0.22859440586E+03  0.26056679658E+03  0.00000000000E+00 0.  1.
</event>
<event>
12    1  0.8271773E-002  0.3015910E+03  0.7818608E-02  0.1084836E+00
         21   -1    0    0  501  502  0.00000000000E+00  0.00000000000E+00  0.23019319762E+03  0.23019319762E+03  0.00000000000E+00 0.  1.
         21   -1    0    0  502  503 -0.00000000000E+00 -0.00000000000E+00 -0.53356698334E+03  0.53356698334E+03  0.00000000000E+00 0. -1.
         -6    2    1    2    0  503 -0.22456222393E+03 -0.10376127303E+03 -0.34845799030E+03  0.45881799267E+03  0.16702210992E+03 0.  0.
        -24    2    3    3    0    0 -0.17239972127E+03 -0.19469736678E+02 -0.22348932404E+03  0.29923965037E+03  0.97448221412E+02 0.  0.
          6    2    1    2  501    0  0.22456222393E+03  0.10376127303E+03  0.45084204570E+02  0.30494218829E+03  0.17251828455E+03 0.  0.
         24    2    5    5    0    0  0.15873497865E+03  0.13213460915E+03  0.70399501907E+02  0.22877640397E+03  0.68747398202E+02 0.  0.
          5    1    5    5  501    0  0.65827245271E+02 -0.28373336120E+02 -0.25315297337E+02  0.76165784325E+02  0.47000000000E+01 0. -1.
        -11    1    6    6    0    0  0.13325918406E+03  0.85008581145E+02  0.28155070893E+02  0.16055272349E+03  0.00000000000E+00 0.  1.
         12    1    6    6    0    0  0.25475794599E+02  0.47126028004E+02  0.42244431014E+02  0.68223680475E+02  0.00000000000E+00 0. -1.
         -5    1    3    3    0  503 -0.52162502658E+02 -0.84291536350E+02 -0.12496866626E+03  0.15957834230E+03  0.47000000000E+01 0.  1.
         13    1    4    4    0    0 -0.13645021486E+03 -0.55926945806E+02 -0.17316564015E+03  0.22744850699E+03  0.00000000000E+00 0. -1.
        -14    1    4    4    0    0 -0.35949506412E+02  0.36457209128E+02 -0.50323683885E+02  0.71791143384E+02  0.00000000000E+00 0.  1.
</event>
<event>
12    1  0.8271773E-002  0.1812087E+03  0.7818608E-02  0.1167149E+00
         21   -1    0    0  503  502  0.00000000000E+00  0.00000000000E+00  0.40741892326E+03  0.40741892326E+03  0.00000000000E+00 0. -1.
         21   -1    0    0  501  503 -0.00000000000E+00 -0.00000000000E+00 -0.83442269827E+02  0.83442269827E+02  0.00000000000E+00 0. -1.
          6    2    1    2  501    0 -0.56527592671E+02  0.14150818001E+02  0.21334219474E+03  0.27854871256E+03  0.16934839482E+03 0.  0.
         24    2    3    3    0    0 -0.71321513599E+02  0.44992045594E+02  0.80127666673E+02  0.14093242753E+03  0.79564211145E+02 0.  0.
         -6    2    1    2    0  502  0.56527592671E+02 -0.14150818001E+02  0.11063445869E+03  0.21231248053E+03  0.17158377416E+03 0.  0.
        -24    2    5    5    0    0 -0.17575737517E+02 -0.53042164727E+02  0.63413066427E+02  0.11610546268E+03  0.79604545620E+02 0.  0.
          5    1    3    3  501    0  0.14793920929E+02 -0.30841227593E+02  0.13321452807E+03  0.13761628503E+03  0.47000000000E+01 0. -1.
        -13    1    4    4    0    0  0.32281283455E+01  0.26817629350E+02  0.53105818478E+02  0.59580483489E+02  0.00000000000E+00 0.  1.
         14    1    4    4    0    0 -0.74549641945E+02  0.18174416244E+02  0.27021848196E+02  0.81351944045E+02  0.00000000000E+00 0. -1.
         -5    1    5    5    0  502  0.74103330187E+02  0.38891346726E+02  0.47221392264E+02  0.96207017844E+02  0.47000000000E+01 0.  1.
         11    1    6    6    0    0  0.18319668058E+02 -0.59371035445E+01  0.52453494541E+02  0.55876905120E+02  0.00000000000E+00 0. -1.
        -12    1    6    6    0    0 -0.35895405575E+02 -0.47105061183E+02  0.10959571887E+02  0.60228557565E+02  0.00000000000E+00 0.  1.
</event>
<event>
12    1  0.8271773E-002  0.2071735E+03  0.7818608E-02  0.1143850E+00
         21   -1    0    0  501  502  0.00000000000E+00  0.00000000000E+00  0.65437626404E+02  0.65437626404E+02  0.00000000000E+00 0.  1.
         21   -1    0    0  502  503 -0.00000000000E+00 -0.00000000000E+00 -0.65570616196E+03  0.65570616196E+03  0.00000000000E+00 0.  1.
         -6    2    1    2    0  503 -0.57998574463E+02 -0.10004293491E+03 -0.30155538951E+03  0.36579026339E+03  0.17173945493E+03 0.  0.
        -24    2    3    3    0    0 -0.61234003632E+02 -0.13469099857E+03 -0.22080130501E+03  0.27773193907E+03  0.80563921146E+02 0.  0.
          6    2    1    2  501    0  0.57998574463E+02  0.10004293491E+03 -0.28871314604E+03  0.35535352498E+03  0.17189654897E+03 0.  0.
         24    2    5    5    0    0 -0.34316238896E+01  0.90961857180E+02 -0.26073804449E+03  0.28708324191E+03  0.78400410969E+02 0.  0.
          5    1    5    5  501    0  0.61430198352E+02  0.90810777323E+01 -0.27975101556E+02  0.68270283063E+02  0.47000000000E+01 0. -1.
        -11    1    6    6    0    0 -0.59647541358E+01  0.58074599299E+02 -0.60229942949E+02  0.83880172886E+02  0.00000000000E+00 0.  1.
         12    1    6    6    0    0  0.25331302462E+01  0.32887257881E+02 -0.20050810154E+03  0.20320306903E+03  0.00000000000E+00 0. -1.
         -5    1    3    3    0  503  0.32354291686E+01  0.34648063659E+02 -0.80754084506E+02  0.88058324318E+02  0.47000000000E+01 0.  1.
         13    1    4    4    0    0 -0.68172022571E+02 -0.71300977504E+02 -0.96344910975E+02  0.13788979631E+03  0.00000000000E+00 0. -1.
        -14    1    4    4    0    0  0.69380189392E+01 -0.63390021068E+02 -0.12445639403E+03  0.13984214277E+03  0.00000000000E+00 0.  1.
</event>
<event>
12    1  0.8271773E-002  0.1774832E+03  0.7818608E-02  0.1170559E+00
         21   -1    0    0  501  502  0.00000000000E+00  0.00000000000E+00  0.25863618163E+03  0.25863618163E+03  0.00000000000E+00 0. -1.
         21   -1    0    0  502  503 -0.00000000000E+00 -0.00000000000E+00 -0.26053275380E+03  0.26053275380E+03  0.00000000000E+00 0. -1.
         -6    2    1    2    0  503  0.39212175215E+02  0.69179133285E+01 -0.19093983421E+03  0.26068815561E+03  0.17295907601E+03 0.  0.
        -24    2    3    3    0    0  0.50396117715E+01 -0.19698598934E+02 -0.19980319862E+03  0.21622635126E+03  0.80119188184E+02 0.  0.
          6    2    1    2  501    0 -0.39212175215E+02 -0.69179133285E+01  0.18904326204E+03  0.25848077981E+03  0.17172508960E+03 0.  0.
         24    2    5    5    0    0  0.69319376337E+01  0.53243460544E+01  0.19414792650E+03  0.21023868549E+03  0.80190317946E+02 0.  0.
          5    1    5    5  501    0 -0.46144112848E+02 -0.12242259383E+02 -0.51046644550E+01  0.48242094322E+02  0.47000000000E+01 0. -1.
        -11    1    6    6    0    0  0.35365239456E-01  0.34992700070E+02  0.16284427851E+03  0.16656154824E+03  0.00000000000E+00 0.  1.
         12    1    6    6    0    0  0.68965723943E+01 -0.29668354015E+02  0.31303647985E+02  0.43677137245E+02  0.00000000000E+00 0. -1.
         -5    1    3    3    0  503  0.34172563443E+02  0.26616512262E+02  0.88633644033E+01  0.44461804347E+02  0.47000000000E+01 0.  1.
         13    1    4    4    0    0  0.38398712812E+02  0.76159120639E+01 -0.10570281912E+03  0.11271889474E+03  0.00000000000E+00 0. -1.
        -14    1    4    4    0    0 -0.33359101041E+02 -0.27314510997E+02 -0.94100379499E+02  0.10350745652E+03  0.00000000000E+00 0.  1.
</event>
<event>
12    1  0.8271773E-002  0.1956465E+03  0.7818608E-02  0.1153492E+00
         21   -1    0    0  501  502  0.00000000000E+00  0.00000000000E+00  0.10091590653E+04  0.10091590653E+04  0.00000000000E+00 0. -1.
         21   -1    0    0  502  503 -0.00000000000E+00 -0.00000000000E+00 -0.99909212292E+02  0.99909212292E+02  0.00000000000E+00 0.  1.
         -6    2    1    2    0  503  0.68888080708E+02  0.63717961313E+02  0.17720958526E+02  0.19632443846E+03  0.17153339765E+03 0.  0.
        -24    2    3    3    0    0  0.11227801306E+03  0.51263737455E+02 -0.32607880911E+00  0.14748204419E+03  0.80724990149E+02 0.  0.
          6    2    1    2  501    0 -0.68888080708E+02 -0.63717961313E+02  0.89152889446E+03  0.91274383911E+03  0.17167410964E+03 0.  0.
         24    2    5    5    0    0 -0.11203416067E+03 -0.34233896216E+02  0.69660874628E+03  0.71088535285E+03  0.79816205692E+02 0.  0.
          5    1    5    5  501    0  0.43146079958E+02 -0.29484065096E+02  0.19492014818E+03  0.20185848627E+03  0.47000000000E+01 0. -1.
        -11    1    6    6    0    0  0.61098222895E+01 -0.18680765238E+00  0.17015038182E+03  0.17026014584E+03  0.00000000000E+00 0.  1.
         12    1    6    6    0    0 -0.11814398296E+03 -0.34047088564E+02  0.52645836446E+03  0.54062520701E+03  0.00000000000E+00 0. -1.
         -5    1    3    3    0  503 -0.43389932357E+02  0.12454223857E+02  0.18047037335E+02  0.48842394274E+02  0.47000000000E+01 0.  1.
         13    1    4    4    0    0 -0.12928254179E+02  0.59910643089E+01  0.15165310229E+01  0.14329426856E+02  0.00000000000E+00 0. -1.
        -14    1    4    4    0    0  0.12520626724E+03  0.45272673146E+02 -0.18426098320E+01  0.13315261733E+03  0.00000000000E+00 0.  1.
</event>
<event>
12    1  0.8271773E-002  0.3103625E+03  0.7818608E-02  0.1080310E+00
         21   -1    0    0  501  502  0.00000000000E+00  0.00000000000E+00  0.15664099157E+03  0.15664099157E+03  0.00000000000E+00 0. -1.
         21   -1    0    0  502  503 -0.00000000000E+00 -0.00000000000E+00 -0.85066700210E+03  0.85066700210E+03  0.00000000000E+00 0. -1.
         -6    2    1    2    0  503 -0.14340051008E+03 -0.21351354094E+03 -0.61388573598E+03  0.68788120676E+03  0.17370411431E+03 0.  0.
        -24    2    3    3    0    0 -0.61162055666E+02 -0.29456564736E+02 -0.16354491854E+03  0.19445535040E+03  0.80358301759E+02 0.  0.
          6    2    1    2  501    0  0.14340051008E+03  0.21351354094E+03 -0.80140274554E+02  0.31942678690E+03  0.17163703019E+03 0.  0.
         24    2    5    5    0    0  0.17074332774E+01  0.74013145693E+02 -0.10677731645E+02  0.10875067731E+03  0.78941971079E+02 0.  0.
          5    1    5    5  501    0  0.14169307680E+03  0.13950039525E+03 -0.69462542909E+02  0.21067610960E+03  0.47000000000E+01 0. -1.
        -11    1    6    6    0    0  0.74984678079E+00 -0.12039032070E+02 -0.18771929708E+02  0.22313357173E+02  0.00000000000E+00 0.  1.
         12    1    6    6    0    0  0.95758649663E+00  0.86052177763E+02  0.80941980629E+01  0.86437320134E+02  0.00000000000E+00 0. -1.
         -5    1    3    3    0  503 -0.82238454414E+02 -0.18405697620E+03 -0.45034081744E+03  0.49342585636E+03  0.47000000000E+01 0.  1.
         13    1    4    4    0    0 -0.47533196697E+02 -0.54640160540E+02 -0.13902191079E+03  0.15675472437E+03  0.00000000000E+00 0. -1.
        -14    1    4    4    0    0 -0.13628858969E+02  0.25183595804E+02 -0.24523007745E+02  0.37700626033E+02  0.00000000000E+00 0.  1.
</event>
<event>
12    1  0.8271773E-002  0.1839734E+03  0.7818608E-02  0.1164175E+00
         21   -1    0    0  503  502  0.00000000000E+00  0.00000000000E+00  0.23624977665E+03  0.23624977665E+03  0.00000000000E+00 0.  1.
         21   -1    0    0  501  503 -0.00000000000E+00 -0.00000000000E+00 -0.15165878880E+03  0.15165878880E+03  0.00000000000E+00 0.  1.
          6    2    1    2  501    0  0.61445259250E+02 -0.10609288361E+02 -0.48512954064E+01  0.18334528142E+03  0.17234813683E+03 0.  0.
         24    2    3    3    0    0 -0.32233168549E+01 -0.47492128485E+02  0.33159336880E+02  0.99623917377E+02  0.80990686203E+02 0.  0.
         -6    2    1    2    0  502 -0.61445259250E+02  0.10609288361E+02  0.89442283256E+02  0.20456328402E+03  0.17308419411E+03 0.  0.
        -24    2    5    5    0    0 -0.49819385689E+02  0.73645480177E+02  0.52751549305E+02  0.13055637642E+03  0.79728373423E+02 0.  0.
          5    1    3    3  501    0  0.64668576105E+02  0.36882840123E+02 -0.38010632287E+02  0.83721364047E+02  0.47000000000E+01 0. -1.
        -11    1    4    4    0    0  0.32729243568E+02 -0.45422019300E+02  0.29887252548E+02  0.63463462612E+02  0.00000000000E+00 0.  1.
         12    1    4    4    0    0 -0.35952560423E+02 -0.20701091848E+01  0.32720843327E+01  0.36160454766E+02  0.00000000000E+00 0. -1.
         -5    1    5    5    0  502 -0.11625873561E+02 -0.63036191816E+02  0.36690733951E+02  0.74006907600E+02  0.47000000000E+01 0.  1.
         11    1    6    6    0    0 -0.27347850879E+02  0.15164157579E+00  0.45860087342E+02  0.53395463795E+02  0.00000000000E+00 0. -1.
        -12    1    6    6    0    0 -0.22471534810E+02  0.73493838601E+02  0.68914619632E+01  0.77160912625E+02  0.00000000000E+00 0.  1.
</event>
<event>
12    1  0.8271773E-002  0.4222514E+03  0.7818608E-02  0.1036361E+00
         21   -1    0    0  503  502  0.00000000000E+00  0.00000000000E+00  0.53715775950E+03  0.53715775950E+03  0.00000000000E+00 0.  1.
         21   -1    0    0  501  503 -0.00000000000E+00 -0.00000000000E+00 -0.47677175095E+03  0.47677175095E+03  0.00000000000E+00 0. -1.
          6    2    1    2  501    0  0.65532026088E+02  0.37989558467E+03  0.30986220549E+03  0.52374687601E+03  0.17228204213E+03 0.  0.
         24    2    3    3    0    0 -0.25207495019E+02  0.15150563718E+03  0.99948668938E+02  0.20051103079E+03  0.81397549986E+02 0.  0.
         -6    2    1    2    0  502 -0.65532026088E+02 -0.37989558467E+03 -0.24947619694E+03  0.49018263445E+03  0.17153874366E+03 0.  0.
        -24    2    5    5    0    0 -0.53430773914E+02 -0.30666219843E+03 -0.26257137993E+03  0.41466347806E+03  0.78137820086E+02 0.  0.
          5    1    3    3  501    0  0.90739521107E+02  0.22838994749E+03  0.20991353655E+03  0.32323584521E+03  0.47000000000E+01 0. -1.
        -13    1    4    4    0    0 -0.25282840554E+02  0.92318499782E+02  0.10380308978E+03  0.14119847335E+03  0.00000000000E+00 0.  1.
         14    1    4    4    0    0  0.75345534938E-01  0.59187137401E+02 -0.38544208390E+01  0.59312557445E+02  0.00000000000E+00 0. -1.
         -5    1    5    5    0  502 -0.12101252175E+02 -0.73233386239E+02  0.13095182991E+02  0.75519156390E+02  0.47000000000E+01 0.  1.
         11    1    6    6    0    0 -0.12901478210E+02 -0.25221271561E+03 -0.19706148043E+03  0.32032940721E+03  0.00000000000E+00 0. -1.
        -12    1    6    6    0    0 -0.40529295704E+02 -0.54449482825E+02 -0.65509899502E+02  0.94334070849E+02  0.00000000000E+00 0.  1.
</event>
<event>
12    1  0.8271773E-002  0.1921784E+03  0.7818608E-02  0.1156827E+00
         21   -1    0    0  501  502  0.00000000000E+00  0.00000000000E+00  0.18248626121E+03  0.18248626121E+03  0.00000000000E+00 0. -1.
         21   -1    0    0  502  503 -0.00000000000E+00 -0.00000000000E+00 -0.32445887630E+03  0.32445887630E+03  0.00000000000E+00 0.  1.
         -6    2    1    2    0  503  0.93779919044E+00 -0.85614425798E+02 -0.22756862762E+03  0.29785904244E+03  0.17205179312E+03 0.  0.
        -24    2    3    3    0    0  0.31801758229E+02  0.11722493354E+02 -0.13446001416E+03  0.15958987127E+03  0.78997866593E+02 0.  0.
          6    2    1    2  501    0 -0.93779919044E+00  0.85614425798E+02  0.85596012534E+02  0.20908609506E+03  0.17046879015E+03 0.  0.
         24    2    5    5    0    0 -0.61646630484E+02  0.36719121728E+02  0.77392042287E+02  0.13056407213E+03  0.76869029992E+02 0.  0.
          5    1    5    5  501    0  0.60708831294E+02  0.48895304069E+02  0.82039702467E+01  0.78522022929E+02  0.47000000000E+01 0. -1.
        -13    1    6    6    0    0  0.65634617023E+01  0.94585295547E+01  0.51355918135E+02  0.52630534278E+02  0.00000000000E+00 0.  1.
         14    1    6    6    0    0 -0.68210092186E+02  0.27260592174E+02  0.26036124152E+02  0.77933537855E+02  0.00000000000E+00 0. -1.
         -5    1    3    3    0  503 -0.30863959038E+02 -0.97336919152E+02 -0.93108613462E+02  0.13826917118E+03  0.47000000000E+01 0.  1.
         11    1    4    4    0    0  0.13995944142E+02  0.16165183651E+02  0.23895182305E+01  0.21515329704E+02  0.00000000000E+00 0. -1.
        -12    1    4    4    0    0  0.17805814087E+02 -0.44426902977E+01 -0.13684953239E+03  0.13807454156E+03  0.00000000000E+00 0.  1.
</event>
<event>
12    1  0.8271773E-002  0.2272603E+03  0.7818608E-02  0.1128816E+00
         21   -1    0    0  503  502  0.00000000000E+00  0.00000000000E+00  0.27597261098E+03  0.27597261098E+03  0.00000000000E+00 0.  1.
         21   -1    0    0  501  503 -0.00000000000E+00 -0.00000000000E+00 -0.60766439162E+03  0.60766439162E+03  0.00000000000E+00 0. -1.
          6    2    1    2  501    0  0.57181509201E+02 -0.13806303839E+03 -0.53399652479E+03  0.58034433605E+03  0.17121954423E+03 0.  0.
         24    2    3    3    0    0 -0.18822987138E+02 -0.10968089595E+03 -0.24952167433E+03  0.28448920254E+03  0.79302185485E+02 0.  0.
         -6    2    1    2    0  502 -0.57181509201E+02  0.13806303839E+03  0.20230474415E+03  0.30329266655E+03  0.16949367103E+03 0.  0.
        -24    2    5    5    0    0 -0.38773153109E+02  0.12810148350E+02  0.45554983995E+02  0.10174929320E+03  0.81303165968E+02 0.  0.
          5    1    3    3  501    0  0.76004496338E+02 -0.28382142432E+02 -0.28447485046E+03  0.29585513350E+03  0.47000000000E+01 0. -1.
        -11    1    4    4    0    0 -0.70892462435E+01 -0.11129473393E+03 -0.16506773923E+03  0.19920876926E+03  0.00000000000E+00 0.  1.
         12    1    4    4    0    0 -0.11733740894E+02  0.16138379797E+01 -0.84453935098E+02  0.85280433289E+02  0.00000000000E+00 0. -1.
         -5    1    5    5    0  502 -0.18408356091E+02  0.12525289004E+03  0.15674976015E+03  0.20154337336E+03  0.47000000000E+01 0.  1.
         13    1    6    6    0    0 -0.42323501707E+02  0.32211283754E+02  0.11928510534E+01  0.53200267776E+02  0.00000000000E+00 0. -1.
        -14    1    6    6    0    0  0.35503485977E+01 -0.19401135404E+02  0.44362132942E+02  0.48549025421E+02  0.00000000000E+00 0.  1.
</event>
<event>
12    1  0.8271773E-002  0.1999626E+03  0.7818608E-02  0.1149952E+00
         21   -1    0    0  503  502  0.00000000000E+00  0.00000000000E+00  0.49290761486E+02  0.49290761486E+02  0.00000000000E+00 0.  1.
         21   -1    0    0  501  503 -0.00000000000E+00 -0.00000000000E+00 -0.90204743907E+03  0.90204743907E+03  0.00000000000E+00 0.  1.
          6    2    1    2  501    0  0.85939025032E+01  0.10082761978E+03 -0.57936488284E+03  0.61262281390E+03  0.17147297328E+03 0.  0.
         24    2    3    3    0    0 -0.44366372700E+02  0.47155197702E+02 -0.21070954984E+03  0.23630597373E+03  0.85146997189E+02 0.  0.
         -6    2    1    2    0  502 -0.85939025032E+01 -0.10082761978E+03 -0.27339179475E+03  0.33871538666E+03  0.17246731765E+03 0.  0.
        -24    2    5    5    0    0  0.36441208797E+00  0.18172453470E+02 -0.31896594236E+02  0.69302523752E+02  0.58779896336E+02 0.  0.
          5    1    3    3  501    0  0.52960275203E+02  0.53672422074E+02 -0.36865533300E+03  0.37631684016E+03  0.47000000000E+01 0. -1.
        -13    1    4    4    0    0 -0.32067180413E+02  0.10482530471E+02 -0.15193370446E+02  0.37000351488E+02  0.00000000000E+00 0.  1.
         14    1    4    4    0    0 -0.12299192287E+02  0.36672667232E+02 -0.19551617940E+03  0.19930562225E+03  0.00000000000E+00 0. -1.
         -5    1    5    5    0  502 -0.89583145912E+01 -0.11900007325E+03 -0.24149520051E+03  0.26941286291E+03  0.47000000000E+01 0.  1.
         13    1    6    6    0    0 -0.35028426535E+00 -0.20416732877E+02 -0.20691062247E+01  0.20524299769E+02  0.00000000000E+00 0. -1.
        -14    1    6    6    0    0  0.71469635332E+00  0.38589186348E+02 -0.29827488011E+02  0.48778223983E+02  0.00000000000E+00 0.  1.
</event>
<event>
12    1  0.8271773E-002  0.1767707E+03  0.7818608E-02  0.1170969E+00
         21   -1    0    0  501  502  0.00000000000E+00  0.00000000000E+00  0.11973426193E+03  0.11973426193E+03  0.00000000000E+00 0.  1.
         21   -1    0    0  502  503 -0.00000000000E+00 -0.00000000000E+00 -0.10065976401E+04  0.10065976401E+04  0.00000000000E+00 0.  1.
         -6    2    1    2    0  503 -0.45679777540E+01 -0.40118286216E+02 -0.92812785762E+03  0.94480876419E+03  0.17208119448E+03 0.  0.
        -24    2    3    3    0    0 -0.60314324743E+02  0.13682064805E+02 -0.58497235555E+03  0.59298505610E+03  0.74923983723E+02 0.  0.
          6    2    1    2  501    0  0.45679777540E+01  0.40118286216E+02  0.41264479427E+02  0.18152313786E+03  0.17209749854E+03 0.  0.
         24    2    5    5    0    0 -0.53285961619E+02  0.46374287373E+02  0.58292599857E+02  0.12070979445E+03  0.78631158213E+02 0.  0.
          5    1    5    5  501    0  0.57853939373E+02 -0.62560011565E+01 -0.17028120430E+02  0.60813343411E+02  0.47000000000E+01 0. -1.
        -13    1    6    6    0    0 -0.13055903758E+02  0.13662898720E+01  0.58894521141E+02  0.60339771224E+02  0.00000000000E+00 0.  1.
         14    1    6    6    0    0 -0.40230057861E+02  0.45007997500E+02 -0.60192128342E+00  0.60370023221E+02  0.00000000000E+00 0. -1.
         -5    1    3    3    0  503  0.55746346989E+02 -0.53800351021E+02 -0.34315550207E+03  0.35182370809E+03  0.47000000000E+01 0.  1.
         13    1    4    4    0    0 -0.75455591800E+02  0.91538790189E+01 -0.53986097186E+03  0.54518548107E+03  0.00000000000E+00 0. -1.
        -14    1    4    4    0    0  0.15141267057E+02  0.45281857862E+01 -0.45111383687E+02  0.47799575027E+02  0.00000000000E+00 0.  1.
</event>
<event>
12    1  0.8271773E-002  0.1807614E+03  0.7818608E-02  0.1168534E+00
         21   -1    0    0  501  502  0.00000000000E+00  0.00000000000E+00  0.18247380986E+03  0.18247380986E+03  0.00000000000E+00 0.  1.
         21   -1    0    0  502  503 -0.00000000000E+00 -0.00000000000E+00 -0.18698582065E+03  0.18698582065E+03  0.00000000000E+00 0.  1.
         -6    2    1    2    0  503 -0.10114615330E+02  0.37105803408E+02 -0.52469114428E+02  0.18822248328E+03  0.17662261790E+03 0.  0.
        -24    2    3    3    0    0  0.35666952323E+02  0.74395091370E+02 -0.63312933417E+02  0.12800519885E+03  0.74632715936E+02 0.  0.
          6    2    1    2  501    0  0.10114615330E+02 -0.37105803408E+02  0.47957103636E+02  0.18123714723E+03  0.17049303111E+03 0.  0.
         24    2    5    5    0    0 -0.48452120308E+01 -0.84233156163E+02  0.59412041557E+02  0.13026569036E+03  0.79502570567E+02 0.  0.
          5    1    5    5  501    0  0.14959827361E+02  0.47127352755E+02 -0.11454937921E+02  0.50971456867E+02  0.47000000000E+01 0. -1.
        -13    1    6    6    0    0 -0.27403915520E+02 -0.48997998477E+02 -0.17442115250E+01  0.56167790721E+02  0.00000000000E+00 0.  1.
         14    1    6    6    0    0  0.22558703489E+02 -0.35235157686E+02  0.61156253082E+02  0.74097899642E+02  0.00000000000E+00 0. -1.
         -5    1    3    3    0  503 -0.45781567653E+02 -0.37289287962E+02  0.10843818988E+02  0.60217284427E+02  0.47000000000E+01 0.  1.
         13    1    4    4    0    0 -0.10491367913E+02  0.44305781275E+01  0.11113002705E+02  0.15912185656E+02  0.00000000000E+00 0. -1.
        -14    1    4    4    0    0  0.46158320236E+02  0.69964513242E+02 -0.74425936122E+02  0.11209301320E+03  0.00000000000E+00 0.  1.
</event>
<event>
12    1  0.8271773E-002  0.2143216E+03  0.7818608E-02  0.1138211E+00
         21   -1    0    0  501  502  0.00000000000E+00  0.00000000000E+00  0.23959755631E+03  0.23959755631E+03  0.00000000000E+00 0.  1.
         21   -1    0    0  502  503 -0.00000000000E+00 -0.00000000000E+00 -0.20188519547E+03  0.20188519547E+03  0.00000000000E+00 0.  1.
         -6    2    1    2    0  503 -0.87148706167E+02  0.93732504706E+02  0.68669194693E+02  0.22505379315E+03  0.17191006977E+03 0.  0.
        -24    2    3    3    0    0 -0.76483071989E+02  0.13318710473E+03  0.52817777206E+02  0.18096548799E+03  0.79814316299E+02 0.  0.
          6    2    1    2  501    0  0.87148706167E+02 -0.93732504706E+02 -0.30956833855E+02  0.21642895863E+03  0.17176288640E+03 0.  0.
         24    2    5    5    0    0  0.12830223578E+02 -0.28733179016E+02 -0.68963701766E+02  0.11052918902E+03  0.80439413539E+02 0.  0.
          5    1    5    5  501    0  0.74318482588E+02 -0.64999325691E+02  0.38006867911E+02  0.10589976961E+03  0.47000000000E+01 0. -1.
        -11    1    6    6    0    0 -0.14888456893E+02 -0.18483258604E+02  0.10347023407E+02  0.25891270549E+02  0.00000000000E+00 0.  1.
         12    1    6    6    0    0  0.27718680471E+02 -0.10249920412E+02 -0.79310725173E+02  0.84637918470E+02  0.00000000000E+00 0. -1.
         -5    1    3    3    0  503 -0.10665634178E+02 -0.39454600029E+02  0.15851417487E+02  0.44088305163E+02  0.47000000000E+01 0.  1.
         13    1    4    4    0    0 -0.81456701224E+01  0.16410682810E+01 -0.15619844593E+02  0.17692501009E+02  0.00000000000E+00 0. -1.
        -14    1    4    4    0    0 -0.68337401866E+02  0.13154603645E+03  0.68437621799E+02  0.16327298698E+03  0.00000000000E+00 0.  1.
</event>
<event>
12    1  0.8271773E-002  0.1762402E+03  0.7818608E-02  0.1171718E+00
         21   -1    0    0  501  502  0.00000000000E+00  0.00000000000E+00  0.61810291034E+03  0.61810291034E+03  0.00000000000E+00 0.  1.
         21   -1    0    0  502  503 -0.00000000000E+00 -0.00000000000E+00 -0.59638158050E+02  0.59638158050E+02  0.00000000000E+00 0.  1.
         -6    2    1    2    0  503  0.25963372841E+02  0.17051081380E+02  0.14356150965E+03  0.22731146153E+03  0.17348128828E+03 0.  0.
        -24    2    3    3    0    0  0.61449155640E+02 -0.21633951480E+02  0.14049235253E+03  0.17451674329E+03  0.80460959380E+02 0.  0.
          6    2    1    2  501    0 -0.25963372841E+02 -0.17051081380E+02  0.41490324264E+03  0.45042960686E+03  0.17256098597E+03 0.  0.
         24    2    5    5    0    0 -0.45772387380E+02  0.39207510486E+02  0.34175404875E+03  0.35592923235E+03  0.79104034545E+02 0.  0.
          5    1    5    5  501    0  0.19809014539E+02 -0.56258591865E+02  0.73149193888E+02  0.94500374508E+02  0.47000000000E+01 0. -1.
        -13    1    6    6    0    0  0.13282402620E+02  0.33672890876E+02  0.18094449398E+03  0.18452966076E+03  0.00000000000E+00 0.  1.
         14    1    6    6    0    0 -0.59054790000E+02  0.55346196095E+01  0.16080955477E+03  0.17139957159E+03  0.00000000000E+00 0. -1.
         -5    1    3    3    0  503 -0.35485782799E+02  0.38685032860E+02  0.30691571216E+01  0.52794718237E+02  0.47000000000E+01 0.  1.
         13    1    4    4    0    0  0.11877019336E+02 -0.11581751405E+02  0.11799962212E+03  0.11916002423E+03  0.00000000000E+00 0. -1.
        -14    1    4    4    0    0  0.49572136304E+02 -0.10052200075E+02  0.22492730410E+02  0.55356719063E+02  0.00000000000E+00 0.  1.
</event>
<event>
12    1  0.8271773E-002  0.2381295E+03  0.7818608E-02  0.1121196E+00
         21   -1    0    0  501  502  0.00000000000E+00  0.00000000000E+00  0.96337779977E+03  0.96337779977E+03  0.00000000000E+00 0.  1.
         21   -1    0    0  502  503 -0.00000000000E+00 -0.00000000000E+00 -0.29529807727E+03  0.29529807727E+03  0.00000000000E+00 0.  1.
         -6    2    1    2    0  503 -0.55692947830E+01  0.16475812815E+03 -0.22923146676E+03  0.33053400867E+03  0.17184122816E+03 0.  0.
        -24    2    3    3    0    0 -0.29118197518E+02  0.20738193848E+02 -0.57769297799E+02  0.10532819684E+03  0.80490963283E+02 0.  0.
          6    2    1    2  501    0  0.55692947830E+01 -0.16475812815E+03  0.89731118926E+03  0.92814186837E+03  0.17059806448E+03 0.  0.
         24    2    5    5    0    0 -0.36023063755E+02 -0.17593763114E+03  0.72369031828E+03  0.74919717742E+03  0.72917917647E+02 0.  0.
          5    1    5    5  501    0  0.41592358538E+02  0.11179502990E+02  0.17362087098E+03  0.17894469094E+03  0.47000000000E+01 0. -1.
        -13    1    6    6    0    0 -0.35738241896E+02 -0.11865605104E+03  0.60301633043E+03  0.61561771835E+03  0.00000000000E+00 0.  1.
         14    1    6    6    0    0 -0.28482185934E+00 -0.57281580105E+02  0.12067398785E+03  0.13357945907E+03  0.00000000000E+00 0. -1.
         -5    1    3    3    0  503  0.23548902735E+02  0.14401993430E+03 -0.17146216897E+03  0.22520581183E+03  0.47000000000E+01 0.  1.
         13    1    4    4    0    0 -0.40882273687E+02  0.18822232696E+02 -0.73139568656E+02  0.85878013768E+02  0.00000000000E+00 0. -1.
        -14    1    4    4    0    0  0.11764076169E+02  0.19159611522E+01  0.15370270857E+02  0.19450183070E+02  0.00000000000E+00 0.  1.
</event>
<event>
12    1  0.8271773E-002  0.2814516E+03  0.7818608E-02  0.1095209E+00
         21   -1    0    0  501  502  0.00000000000E+00  0.00000000000E+00  0.36548423466E+03  0.36548423466E+03  0.00000000000E+00 0.  1.
         21   -1    0    0  502  503 -0.00000000000E+00 -0.00000000000E+00 -0.21699601933E+03  0.21699601933E+03  0.00000000000E+00 0. -1.
         -6    2    1    2    0  503  0.15713772193E+03 -0.15616787416E+03  0.45925620758E+02  0.28292379156E+03  0.16987065849E+03 0.  0.
        -24    2    3    3    0    0  0.28280716579E+02 -0.38007111084E+02 -0.20498141968E+02  0.95840120402E+02  0.80751566123E+02 0.  0.
          6    2    1    2  501    0 -0.15713772193E+03  0.15616787416E+03  0.10256259458E+03  0.29955646242E+03  0.17359239557E+03 0.  0.
         24    2    5    5    0    0 -0.39665944609E+02  0.64523582780E+02 -0.12638783821E+02  0.11116394082E+03  0.80380364432E+02 0.  0.
          5    1    5    5  501    0 -0.11747177732E+03  0.91644291385E+02  0.11520137840E+03  0.18839252160E+03  0.47000000000E+01 0. -1.
        -11    1    6    6    0    0 -0.14635500310E+02  0.24832406862E+02  0.34292693444E+02  0.44797713374E+02  0.00000000000E+00 0.  1.
         12    1    6    6    0    0 -0.25030444299E+02  0.39691175917E+02 -0.46931477265E+02  0.66366227448E+02  0.00000000000E+00 0. -1.
         -5    1    3    3    0  503  0.12885700535E+03 -0.11816076308E+03  0.66423762726E+02  0.18708367116E+03  0.47000000000E+01 0.  1.
         13    1    4    4    0    0 -0.48689867539E+01 -0.35850882379E+02 -0.42637329511E+02  0.55919000950E+02  0.00000000000E+00 0. -1.
        -14    1    4    4    0    0  0.33149703333E+02 -0.21562287057E+01  0.22139187543E+02  0.39921119453E+02  0.00000000000E+00 0.  1.
</event>
<event>
12    1  0.8271773E-002  0.3194497E+03  0.7818608E-02  0.1075972E+00
         21   -1    0    0  501  502  0.00000000000E+00  0.00000000000E+00  0.33542302808E+03  0.33542302808E+03  0.00000000000E+00 0. -1.
         21   -1    0    0  502  503 -0.00000000000E+00 -0.00000000000E+00 -0.63321362200E+03  0.63321362200E+03  0.00000000000E+00 0.  1.
         -6    2    1    2    0  503  0.17460019555E+01  0.26863844307E+03 -0.49822118214E+03  0.59151527279E+03  0.17174489802E+03 0.  0.
        -24    2    3    3    0    0  0.45184535271E+02  0.69684759772E+02 -0.19995316299E+03  0.23032920506E+03  0.78566324488E+02 0.  0.
          6    2    1    2  501    0 -0.17460019555E+01 -0.26863844307E+03  0.20043058821E+03  0.37712137729E+03  0.17285384259E+03 0.  0.
         24    2    5    5    0    0 -0.26918287494E+02 -0.10433984118E+03  0.15668305716E+03  0.20518065781E+03  0.77059232270E+02 0.  0.
          5    1    5    5  501    0  0.25172285538E+02 -0.16429860189E+03  0.43747531051E+02  0.17194071948E+03  0.47000000000E+01 0. -1.
        -13    1    6    6    0    0  0.31558840732E+01 -0.21316145114E+02 -0.39207254576E+01  0.21902276935E+02  0.00000000000E+00 0.  1.
         14    1    6    6    0    0 -0.30074171567E+02 -0.83023696064E+02  0.16060378262E+03  0.18327838087E+03  0.00000000000E+00 0. -1.
         -5    1    3    3    0  503 -0.43438533316E+02  0.19895368330E+03 -0.29826801914E+03  0.36118606772E+03  0.47000000000E+01 0.  1.
         13    1    4    4    0    0  0.20768748329E+02 -0.55303474431E+01 -0.83656856677E+01  0.23063181625E+02  0.00000000000E+00 0. -1.
        -14    1    4    4    0    0  0.24415786943E+02  0.75215107216E+02 -0.19158747732E+03  0.20726602344E+03  0.00000000000E+00 0.  1.
</event>
<event>
12    1  0.8271773E-002  0.3981488E+03  0.7818608E-02  0.1044495E+00
         21   -1    0    0  503  502  0.00000000000E+00  0.00000000000E+00  0.20187252041E+03  0.20187252041E+03  0.00000000000E+00 0. -1.
         21   -1    0    0  501  503 -0.00000000000E+00 -0.00000000000E+00 -0.10219994029E+04  0.10219994029E+04  0.00000000000E+00 0.  1.
          6    2    1    2  501    0  0.25964259391E+03 -0.24724818050E+03 -0.70593446287E+03  0.81047265272E+03  0.17313727387E+03 0.  0.
         24    2    3    3    0    0  0.42760383148E+02 -0.44762680575E+02 -0.18559199027E+03  0.21145958958E+03  0.80241032095E+02 0.  0.
         -6    2    1    2    0  502 -0.25964259391E+03  0.24724818050E+03 -0.11419241959E+03  0.41339927057E+03  0.17121071485E+03 0.  0.
        -24    2    5    5    0    0 -0.27745065049E+03  0.21553581848E+03 -0.10809072024E+03  0.37622237561E+03  0.80156843744E+02 0.  0.
          5    1    3    3  501    0  0.21688221077E+03 -0.20248549992E+03 -0.52034247260E+03  0.59901306315E+03  0.47000000000E+01 0. -1.
        -13    1    4    4    0    0  0.40137128458E+02 -0.67455825010E+02 -0.14272827218E+03  0.16288841914E+03  0.00000000000E+00 0.  1.
         14    1    4    4    0    0  0.26232546896E+01  0.22693144434E+02 -0.42863718088E+02  0.48571170439E+02  0.00000000000E+00 0. -1.
         -5    1    5    5    0  502  0.17808056578E+02  0.31712362019E+02 -0.61016993532E+01  0.37176894961E+02  0.47000000000E+01 0.  1.
         11    1    6    6    0    0 -0.15776429734E+03  0.15916743311E+03 -0.40778144547E+02  0.22778652803E+03  0.00000000000E+00 0. -1.
        -12    1    6    6    0    0 -0.11968635315E+03  0.56368385366E+02 -0.67312575693E+02  0.14843584757E+03  0.00000000000E+00 0.  1.
</event>
<event>
12    1  0.8271773E-002  0.2378655E+03  0.7818608E-02  0.1121467E+00
         21   -1    0    0  503  502  0.00000000000E+00  0.00000000000E+00  0.20540491841E+03  0.20540491841E+03  0.00000000000E+00 0. -1.
         21   -1    0    0  501  503 -0.00000000000E+00 -0.00000000000E+00 -0.46542640839E+03  0.46542640839E+03  0.00000000000E+00 0.  1.
          6    2    1    2  501    0  0.15945280651E+03  0.38100100209E+02 -0.34500707059E+03  0.41823962832E+03  0.17034580357E+03 0.  0.
         24    2    3    3    0    0  0.33004952770E+02  0.53689616681E+02 -0.23299762191E+03  0.24853311891E+03  0.59236116812E+02 0.  0.
         -6    2    1    2    0  502 -0.15945280651E+03 -0.38100100209E+02  0.84985580609E+02  0.25259169849E+03  0.17234616936E+03 0.  0.
        -24    2    5    5    0    0 -0.15635885820E+03 -0.70789946918E+02  0.34971274186E+02  0.19257737152E+03  0.80023402083E+02 0.  0.
          5    1    3    3  501    0  0.12644785374E+03 -0.15589516472E+02 -0.11200944869E+03  0.16970650940E+03  0.47000000000E+01 0. -1.
        -13    1    4    4    0    0  0.16675287130E+02 -0.58715213599E+00 -0.12915877604E+03  0.13023209810E+03  0.00000000000E+00 0.  1.
         14    1    4    4    0    0  0.16329665640E+02  0.54276768817E+02 -0.10383884587E+03  0.11830102081E+03  0.00000000000E+00 0. -1.
         -5    1    5    5    0  502 -0.30939483051E+01  0.32689846709E+02  0.50014306424E+02  0.60014326965E+02  0.47000000000E+01 0.  1.
         11    1    6    6    0    0 -0.45767523017E+02 -0.23979938609E+02  0.49571150321E+02  0.71603090457E+02  0.00000000000E+00 0. -1.
        -12    1    6    6    0    0 -0.11059133519E+03 -0.46810008309E+02 -0.14599876135E+02  0.12097428107E+03  0.00000000000E+00 0.  1.
</event>
<event>
12    1  0.8271773E-002  0.1776151E+03  0.7818608E-02  0.1170654E+00
         21   -1    0    0  503  502  0.00000000000E+00  0.00000000000E+00  0.16765481775E+03  0.16765481775E+03  0.00000000000E+00 0.  1.
         21   -1    0    0  501  503 -0.00000000000E+00 -0.00000000000E+00 -0.18993001226E+03  0.18993001226E+03  0.00000000000E+00 0.  1.
          6    2    1    2  501    0 -0.34327553833E+02 -0.16499552163E+02  0.14719707176E+02  0.17822395637E+03  0.17348340748E+03 0.  0.
         24    2    3    3    0    0 -0.53999010790E+01  0.46621271716E+02  0.45567955550E+02  0.10210068839E+03  0.78392666034E+02 0.  0.
         -6    2    1    2    0  502  0.34327553833E+02  0.16499552163E+02 -0.36994901688E+02  0.17936087363E+03  0.17132158085E+03 0.  0.
        -24    2    5    5    0    0 -0.25910836295E+02 -0.22741729787E+02 -0.58381456716E+02  0.10420758634E+03  0.79134498494E+02 0.  0.
          5    1    3    3  501    0 -0.28927652754E+02 -0.63120823880E+02 -0.30848248374E+02  0.76123267986E+02  0.47000000000E+01 0. -1.
        -13    1    4    4    0    0  0.19359417059E+02 -0.14436811416E+02  0.20251431212E+02  0.31517122630E+02  0.00000000000E+00 0.  1.
         14    1    4    4    0    0 -0.24759318138E+02  0.61058083132E+02  0.25316524337E+02  0.70583565757E+02  0.00000000000E+00 0. -1.
         -5    1    5    5    0  502  0.60238390127E+02  0.39241281950E+02  0.21386555028E+02  0.75153287288E+02  0.47000000000E+01 0.  1.
         13    1    6    6    0    0  0.51974768689E+01  0.16092475806E+02  0.99943710886E+01  0.19643548478E+02  0.00000000000E+00 0. -1.
        -14    1    6    6    0    0 -0.31108313163E+02 -0.38834205593E+02 -0.68375827804E+02  0.84564037864E+02  0.00000000000E+00 0.  1.
</event>
<event>
12    1  0.8271773E-002  0.2633331E+03  0.7818608E-02  0.1105315E+00
         21   -1    0    0  501  502  0.00000000000E+00  0.00000000000E+00  0.17186322924E+03  0.17186322924E+03  0.00000000000E+00 0.  1.
         21   -1    0    0  502  503 -0.00000000000E+00 -0.00000000000E+00 -0.64287958006E+03  0.64287958006E+03  0.00000000000E+00 0.  1.
         -6    2    1    2    0  503 -0.37739941413E+02  0.19503012257E+03 -0.48464404495E+03  0.55105728099E+03  0.17124025442E+03 0.  0.
        -24    2    3    3    0    0  0.39999696021E+02  0.11275321452E+03 -0.23556215992E+03  0.27742099634E+03  0.84614507945E+02 0.  0.
          6    2    1    2  501    0  0.37739941413E+02 -0.19503012257E+03  0.13627694137E+02  0.26368552831E+03  0.17286784520E+03 0.  0.
         24    2    5    5    0    0 -0.49306934397E+01 -0.88945466506E+02  0.66018945885E+02  0.13782182984E+03  0.81858095604E+02 0.  0.
          5    1    5    5  501    0  0.42670634853E+02 -0.10608465607E+03 -0.52391251748E+02  0.12586369847E+03  0.47000000000E+01 0. -1.
        -13    1    6    6    0    0  0.33254667381E+01 -0.98065015852E+02  0.74226029972E+02  0.12303377418E+03  0.00000000000E+00 0.  1.
         14    1    6    6    0    0 -0.82561601778E+01  0.91195493463E+01 -0.82070840869E+01  0.14788055666E+02  0.00000000000E+00 0. -1.
         -5    1    3    3    0  503 -0.77739637435E+02  0.82276908055E+02 -0.24908188503E+03  0.27363628465E+03  0.47000000000E+01 0.  1.
         13    1    4    4    0    0  0.37365879406E+02  0.10276915195E+02 -0.10158085900E+03  0.10872209915E+03  0.00000000000E+00 0. -1.
        -14    1    4    4    0    0  0.26338166153E+01  0.10247629932E+03 -0.13398130093E+03  0.16869889718E+03  0.00000000000E+00 0.  1.
</event>
<event>
12    1  0.8271773E-002  0.3405775E+03  0.7818608E-02  0.1066619E+00
         21   -1    0    0  501  502  0.00000000000E+00  0.00000000000E+00  0.45715274617E+03  0.45715274617E+03  0.00000000000E+00 0.  1.
         21   -1    0    0  502  503 -0.00000000000E+00 -0.00000000000E+00 -0.25442362869E+03  0.25442362869E+03  0.00000000000E+00 0. -1.
         -6    2    1    2    0  503  0.21167379716E+03  0.20341231096E+03  0.12567007979E+03  0.36302343338E+03  0.17265769479E+03 0.  0.
        -24    2    3    3    0    0  0.12075948740E+03  0.19982655535E+03  0.11386025208E+03  0.27115487840E+03  0.77764420262E+02 0.  0.
          6    2    1    2  501    0 -0.21167379716E+03 -0.20341231096E+03  0.77059037696E+02  0.34855294148E+03  0.17137296482E+03 0.  0.
         24    2    5    5    0    0 -0.46109988660E+02 -0.11630158406E+03  0.60126156436E+02  0.16064747085E+03  0.80871909171E+02 0.  0.
          5    1    5    5  501    0 -0.16556380850E+03 -0.87110726901E+02  0.16932881259E+02  0.18790547064E+03  0.47000000000E+01 0. -1.
        -13    1    6    6    0    0 -0.56027191762E+02 -0.10958055031E+03  0.27801161332E+02  0.12617387921E+03  0.00000000000E+00 0.  1.
         14    1    6    6    0    0  0.99172031029E+01 -0.67210337501E+01  0.32324995104E+02  0.34473591640E+02  0.00000000000E+00 0. -1.
         -5    1    3    3    0  503  0.90914309760E+02  0.35857556138E+01  0.11809827709E+02  0.91868554974E+02  0.47000000000E+01 0.  1.
         11    1    4    4    0    0  0.23021950183E+01  0.12291432228E+02 -0.10963625014E+02  0.16630708992E+02  0.00000000000E+00 0. -1.
        -12    1    4    4    0    0  0.11845729238E+03  0.18753512312E+03  0.12482387709E+03  0.25452416941E+03  0.00000000000E+00 0.  1.
</event>
<event>
12    1  0.8271773E-002  0.2272402E+03  0.7818608E-02  0.1128622E+00
         21   -1    0    0  501  502  0.00000000000E+00  0.00000000000E+00  0.18120602142E+03  0.18120602142E+03  0.00000000000E+00 0.  1.
         21   -1    0    0  502  503 -0.00000000000E+00 -0.00000000000E+00 -0.34935704154E+03  0.34935704154E+03  0.00000000000E+00 0. -1.
         -6    2    1    2    0  503  0.26904923169E+02  0.14520090639E+03 -0.19809413114E+03  0.30135859800E+03  0.17253562441E+03 0.  0.
        -24    2    3    3    0    0 -0.46690149831E+02  0.76909875338E+02 -0.81041266993E+02  0.14707521362E+03  0.83476538553E+02 0.  0.
          6    2    1    2  501    0 -0.26904923169E+02 -0.14520090639E+03  0.29943111021E+02  0.22920446496E+03  0.17271629557E+03 0.  0.
         24    2    5    5    0    0  0.39838072032E+02 -0.79062606282E+02  0.55546764364E+02  0.13170298182E+03  0.80139033527E+02 0.  0.
          5    1    5    5  501    0 -0.66742995202E+02 -0.66138300107E+02 -0.25603653343E+02  0.97501483137E+02  0.47000000000E+01 0. -1.
        -11    1    6    6    0    0 -0.12668935795E+02 -0.55529628254E+02  0.46351019908E+02  0.73433361592E+02  0.00000000000E+00 0.  1.
         12    1    6    6    0    0  0.52507007828E+02 -0.23532978028E+02  0.91957444565E+01  0.58269620232E+02  0.00000000000E+00 0. -1.
         -5    1    3    3    0  503  0.73595073001E+02  0.68291031051E+02 -0.11705286414E+03  0.15428338438E+03  0.47000000000E+01 0.  1.
         11    1    4    4    0    0 -0.33898508217E+02  0.20500065647E+02 -0.79945987934E+02  0.89222881245E+02  0.00000000000E+00 0. -1.
        -12    1    4    4    0    0 -0.12791641614E+02  0.56409809691E+02 -0.10952790582E+01  0.57852332371E+02  0.00000000000E+00 0.  1.
</event>
<event>
12    1  0.8271773E-002  0.1981316E+03  0.7818608E-02  0.1151447E+00
         21   -1    0    0  501  502  0.00000000000E+00  0.00000000000E+00  0.71261820625E+03  0.71261820625E+03  0.00000000000E+00 0.  1.
         21   -1    0    0  502  503 -0.00000000000E+00 -0.00000000000E+00 -0.17921765284E+03  0.17921765284E+03  0.00000000000E+00 0.  1.
         -6    2    1    2    0  503  0.79862996491E+02 -0.56542908160E+02 -0.10476409821E+03  0.22362162380E+03  0.17162725799E+03 0.  0.
        -24    2    3    3    0    0  0.10390213393E+02 -0.88426912471E+02 -0.70226513298E+02  0.13960976694E+03  0.81436161938E+02 0.  0.
          6    2    1    2  501    0 -0.79862996491E+02  0.56542908160E+02  0.63816465163E+03  0.66821423528E+03  0.17228158050E+03 0.  0.
         24    2    5    5    0    0 -0.33626061715E+02  0.98215789250E+02  0.36341409123E+03  0.38646178437E+03  0.80658885385E+02 0.  0.
          5    1    5    5  501    0 -0.46236934776E+02 -0.41672881090E+02  0.27475056040E+03  0.28175245091E+03  0.47000000000E+01 0. -1.
        -11    1    6    6    0    0  0.18166546214E+02  0.55698486252E+01  0.11138988367E+03  0.11299890618E+03  0.00000000000E+00 0.  1.
         12    1    6    6    0    0 -0.51792607929E+02  0.92645940625E+02  0.25202420756E+03  0.27346287819E+03  0.00000000000E+00 0. -1.
         -5    1    3    3    0  503  0.69472783097E+02  0.31884004311E+02 -0.34537584916E+02  0.84011856866E+02  0.47000000000E+01 0.  1.
         11    1    4    4    0    0 -0.75921436038E+01  0.93282306468E+01  0.68410558085E+01  0.13836783444E+02  0.00000000000E+00 0. -1.
        -12    1    4    4    0    0  0.17982356997E+02 -0.97755143118E+02 -0.77067569106E+02  0.12577298349E+03  0.00000000000E+00 0.  1.
</event>
<event>
12    1  0.8271773E-002  0.3117887E+03  0.7818608E-02  0.1079551E+00
         21   -1    0    0  503  502  0.00000000000E+00  0.00000000000E+00  0.19466877271E+03  0.19466877271E+03  0.00000000000E+00 0.  1.
         21   -1    0    0  501  503 -0.00000000000E+00 -0.00000000000E+00 -0.59830225748E+03  0.59830225748E+03  0.00000000000E+00 0. -1.
          6    2    1    2  501    0 -0.16443533330E+03 -0.20054840560E+03 -0.39814083256E+02  0.31382937323E+03  0.17217744466E+03 0.  0.
         24    2    3    3    0    0 -0.10679875244E+03 -0.15993284436E+03 -0.90219452585E+02  0.22702850616E+03  0.80111826553E+02 0.  0.
         -6    2    1    2    0  502  0.16443533330E+03  0.20054840560E+03 -0.36381940152E+03  0.47914165697E+03  0.17307087768E+03 0.  0.
        -24    2    5    5    0    0  0.55316092641E+02  0.23634780610E+02 -0.15242345017E+03  0.18263570824E+03  0.80649989477E+02 0.  0.
          5    1    3    3  501    0 -0.57636580855E+02 -0.40615561234E+02  0.50405369330E+02  0.86800867071E+02  0.47000000000E+01 0. -1.
        -11    1    4    4    0    0 -0.40664251124E+02 -0.12826917936E+02 -0.87671527173E+00  0.42648326730E+02  0.00000000000E+00 0.  1.
         12    1    4    4    0    0 -0.66134501318E+02 -0.14710592643E+03 -0.89342737314E+02  0.18438017943E+03  0.00000000000E+00 0. -1.
         -5    1    5    5    0  502  0.10911924066E+03  0.17691362499E+03 -0.21139595134E+03  0.29650594873E+03  0.47000000000E+01 0.  1.
         11    1    6    6    0    0  0.70629605913E+02  0.36334313112E+02 -0.13248265932E+03  0.15446805029E+03  0.00000000000E+00 0. -1.
        -12    1    6    6    0    0 -0.15313513272E+02 -0.12699532502E+02 -0.19940790855E+02  0.28167657951E+02  0.00000000000E+00 0.  1.
</event>
<event>
12    1  0.8271773E-002  0.1749615E+03  0.7818608E-02  0.1173023E+00
         21   -1    0    0  503  502  0.00000000000E+00  0.00000000000E+00  0.16524756702E+02  0.16524756702E+02  0.00000000000E+00 0. -1.
         21   -1    0    0  501  503 -0.00000000000E+00 -0.00000000000E+00 -0.18526843488E+04  0.18526843488E+04  0.00000000000E+00 0. -1.
          6    2    1    2  501    0 -0.25420911224E+02 -0.13105792033E+02 -0.84920630786E+03  0.86704260133E+03  0.17260803774E+03 0.  0.
         24    2    3    3    0    0  0.14138172942E+02 -0.28295413532E+02 -0.22140407799E+03  0.23779433906E+03  0.80782817326E+02 0.  0.
         -6    2    1    2    0  502  0.25420911224E+02  0.13105792033E+02 -0.98695328422E+03  0.10021665042E+04  0.17158942948E+03 0.  0.
        -24    2    5    5    0    0 -0.26254212112E+02  0.43048910360E+02 -0.80658368467E+03  0.81210811537E+03  0.79999114593E+02 0.  0.
          5    1    3    3  501    0 -0.39559084166E+02  0.15189621499E+02 -0.62780222988E+03  0.62924826228E+03  0.47000000000E+01 0. -1.
        -11    1    4    4    0    0 -0.19369516278E+02  0.14825091428E+02 -0.29533874477E+02  0.38304193482E+02  0.00000000000E+00 0.  1.
         12    1    4    4    0    0  0.33507689220E+02 -0.43120504959E+02 -0.19187020351E+03  0.19949014557E+03  0.00000000000E+00 0. -1.
         -5    1    5    5    0  502  0.51675123336E+02 -0.29943118328E+02 -0.18036959954E+03  0.19005838878E+03  0.47000000000E+01 0.  1.
         13    1    6    6    0    0 -0.21132958497E+02  0.66207680789E+02 -0.53599445938E+03  0.54048137749E+03  0.00000000000E+00 0. -1.
        -14    1    6    6    0    0 -0.51212536149E+01 -0.23158770429E+02 -0.27058922530E+03  0.27162673788E+03  0.00000000000E+00 0.  1.
</event>
<event>
12    1  0.8271773E-002  0.1825703E+03  0.7818608E-02  0.1165566E+00
         21   -1    0    0  501  502  0.00000000000E+00  0.00000000000E+00  0.12520444476E+03  0.12520444476E+03  0.00000000000E+00 0. -1.
         21   -1    0    0  502  503 -0.00000000000E+00 -0.00000000000E+00 -0.62688312918E+03  0.62688312918E+03  0.00000000000E+00 0. -1.
         -6    2    1    2    0  503 -0.10529581512E+02 -0.57094613220E+02 -0.53634163501E+03  0.56625583877E+03  0.17208328957E+03 0.  0.
        -24    2    3    3    0    0 -0.62971551651E+02 -0.12185874544E+02 -0.40313933591E+03  0.41614955134E+03  0.80902491076E+02 0.  0.
          6    2    1    2  501    0  0.10529581512E+02  0.57094613220E+02  0.34662950587E+02  0.18583173517E+03  0.17309317349E+03 0.  0.
         24    2    5    5    0    0  0.23022949466E+02  0.10413809153E+03  0.15306102265E+02  0.13323942897E+03  0.78381568985E+02 0.  0.
          5    1    5    5  501    0 -0.12493367954E+02 -0.47043478311E+02  0.19356848322E+02  0.52592306200E+02  0.47000000000E+01 0. -1.
        -13    1    6    6    0    0  0.45787583509E+01  0.14536891714E+00 -0.21049019671E+02  0.21541759196E+02  0.00000000000E+00 0.  1.
         14    1    6    6    0    0  0.18444191115E+02  0.10399272261E+03  0.36355121936E+02  0.11169766978E+03  0.00000000000E+00 0. -1.
         -5    1    3    3    0  503  0.52441970139E+02 -0.44908738676E+02 -0.13320229910E+03  0.15010628743E+03  0.47000000000E+01 0.  1.
         13    1    4    4    0    0 -0.42163149349E+01 -0.36195459010E+02 -0.99896280934E+02  0.10633510948E+03  0.00000000000E+00 0. -1.
        -14    1    4    4    0    0 -0.58755236716E+02  0.24009584467E+02 -0.30324305498E+03  0.30981444185E+03  0.00000000000E+00 0.  1.
</event>
<event>
12    1  0.8271773E-002  0.2260936E+03  0.7818608E-02  0.1129421E+00
         21   -1    0    0  501  502  0.00000000000E+00  0.00000000000E+00  0.45600184683E+03  0.45600184683E+03  0.00000000000E+00 0.  1.
         21   -1    0    0  502  503 -0.00000000000E+00 -0.00000000000E+00 -0.14258997767E+03  0.14258997767E+03  0.00000000000E+00 0. -1.
         -6    2    1    2    0  503  0.14599176883E+03  0.10990051199E+02  0.18302379758E+02  0.22682855673E+03  0.17228418166E+03 0.  0.
        -24    2    3    3    0    0  0.35426402837E+02  0.60688222421E+02  0.50338049534E+01  0.10479268718E+03  0.77576270436E+02 0.  0.
          6    2    1    2  501    0 -0.14599176883E+03 -0.10990051199E+02  0.29510948941E+03  0.37176326778E+03  0.17229027465E+03 0.  0.
         24    2    5    5    0    0 -0.36868204580E+02  0.17741284285E+02  0.49141977351E+02  0.10110564475E+03  0.78316025091E+02 0.  0.
          5    1    5    5  501    0 -0.10912356425E+03 -0.28731335485E+02  0.24596751205E+03  0.27065762302E+03  0.47000000000E+01 0. -1.
        -13    1    6    6    0    0 -0.59729128571E+02  0.52261227333E+00  0.32578020191E+02  0.68037999110E+02  0.00000000000E+00 0.  1.
         14    1    6    6    0    0  0.22860923991E+02  0.17218672012E+02  0.16563957160E+02  0.33067645643E+02  0.00000000000E+00 0. -1.
         -5    1    3    3    0  503  0.11056536599E+03 -0.49698171221E+02  0.13268574804E+02  0.12203586955E+03  0.47000000000E+01 0.  1.
         13    1    4    4    0    0  0.52540437651E+02  0.54550110379E+02 -0.15561861648E+02  0.77320008205E+02  0.00000000000E+00 0. -1.
        -14    1    4    4    0    0 -0.17114034814E+02  0.61381120412E+01  0.20595666602E+02  0.27472678970E+02  0.00000000000E+00 0.  1.
</event>
<event>
12    1  0.8271773E-002  0.2984478E+03  0.7818608E-02  0.1086689E+00
         21   -1    0    0  501  502  0.00000000000E+00  0.00000000000E+00  0.13119019732E+03  0.13119019732E+03  0.00000000000E+00 0. -1.
         21   -1    0    0  502  503 -0.00000000000E+00 -0.00000000000E+00 -0.69408442016E+03  0.69408442016E+03  0.00000000000E+00 0. -1.
         -6    2    1    2    0  503  0.23282839941E+03 -0.71442727620E+02 -0.19751861182E+03  0.35350088365E+03  0.16320583883E+03 0.  0.
        -24    2    3    3    0    0  0.18864188508E+03  0.12411924179E+01 -0.11521345665E+03  0.23504570711E+03  0.79906460788E+02 0.  0.
          6    2    1    2  501    0 -0.23282839941E+03  0.71442727620E+02 -0.36537561102E+03  0.47177373383E+03  0.17250504892E+03 0.  0.
         24    2    5    5    0    0 -0.20238667122E+03  0.20976073681E+01 -0.23249389828E+03  0.31875385245E+03  0.81153195049E+02 0.  0.
          5    1    5    5  501    0 -0.30441728185E+02  0.69345120252E+02 -0.13288171274E+03  0.15301988138E+03  0.47000000000E+01 0. -1.
        -13    1    6    6    0    0 -0.46830559738E+02 -0.25641104694E+02 -0.27881780230E+02  0.60232559668E+02  0.00000000000E+00 0.  1.
         14    1    6    6    0    0 -0.15555611148E+03  0.27738712062E+02 -0.20461211805E+03  0.25852129278E+03  0.00000000000E+00 0. -1.
         -5    1    3    3    0  503  0.44186514329E+02 -0.72683920038E+02 -0.82305155173E+02  0.11845517654E+03  0.47000000000E+01 0.  1.
         11    1    4    4    0    0  0.11941659862E+03 -0.28789633501E+02 -0.41767505126E+02  0.12974471668E+03  0.00000000000E+00 0. -1.
        -12    1    4    4    0    0  0.69225286458E+02  0.30030825919E+02 -0.73445951520E+02  0.10530099043E+03  0.00000000000E+00 0.  1.
</event>
<event>
12    1  0.8271773E-002  0.2850906E+03  0.7818608E-02  0.1093462E+00
         21   -1    0    0  503  502  0.00000000000E+00  0.00000000000E+00  0.23398023399E+03  0.23398023399E+03  0.00000000000E+00 0. -1.
         21   -1    0    0  501  503 -0.00000000000E+00 -0.00000000000E+00 -0.99065784964E+03  0.99065784964E+03  0.00000000000E+00 0. -1.
          6    2    1    2  501    0  0.19092781938E+03  0.11303621334E+03 -0.87266632382E+03  0.91685566244E+03  0.17276335049E+03 0.  0.
         24    2    3    3    0    0  0.78562805395E+02 -0.64856897393E+01 -0.27593144694E+03  0.29796473104E+03  0.80191264912E+02 0.  0.
         -6    2    1    2    0  502 -0.19092781938E+03 -0.11303621334E+03  0.11598870816E+03  0.30778242120E+03  0.17901402358E+03 0.  0.
        -24    2    5    5    0    0 -0.14801301438E+03 -0.15235248466E+03  0.83973101471E+02  0.24119008868E+03  0.77472866866E+02 0.  0.
          5    1    3    3  501    0  0.11236501398E+03  0.11952190308E+03 -0.59673487688E+03  0.61889093140E+03  0.47000000000E+01 0. -1.
        -11    1    4    4    0    0  0.33159041226E+02  0.13305646556E+02 -0.22153332356E+03  0.22439602424E+03  0.00000000000E+00 0.  1.
         12    1    4    4    0    0  0.45403764170E+02 -0.19791336295E+02 -0.54398123383E+02  0.73568706803E+02  0.00000000000E+00 0. -1.
         -5    1    5    5    0  502 -0.42914804997E+02  0.39316271313E+02  0.32015606689E+02  0.66592332514E+02  0.47000000000E+01 0.  1.
         13    1    6    6    0    0 -0.94809299007E+02 -0.42765620527E+02  0.44584204983E+02  0.11316118067E+03  0.00000000000E+00 0. -1.
        -14    1    6    6    0    0 -0.53203715374E+02 -0.10958686413E+03  0.39388896488E+02  0.12802890801E+03  0.00000000000E+00 0.  1.
</event>
<event>
12    1  0.8271773E-002  0.1916725E+03  0.7818608E-02  0.1157193E+00
         21   -1    0    0  501  502  0.00000000000E+00  0.00000000000E+00  0.99183796284E+02  0.99183796284E+02  0.00000000000E+00 0.  1.
         21   -1    0    0  502  503 -0.00000000000E+00 -0.00000000000E+00 -0.60574307404E+03  0.60574307404E+03  0.00000000000E+00 0.  1.
         -6    2    1    2    0  503  0.84434015426E+02  0.88201548041E+01 -0.47431716714E+03  0.51158101046E+03  0.17184719123E+03 0.  0.
        -24    2    3    3    0    0  0.52299973121E+02 -0.38371962126E+02 -0.14682598115E+03  0.17911708840E+03  0.79481871830E+02 0.  0.
          6    2    1    2  501    0 -0.84434015426E+02 -0.88201548041E+01 -0.32242110621E+02  0.19334585986E+03  0.17069320355E+03 0.  0.
         24    2    5    5    0    0 -0.60523975346E+02  0.12016522445E+02  0.44405110159E+02  0.11026310841E+03  0.79866080816E+02 0.  0.
          5    1    5    5  501    0 -0.23910040081E+02 -0.20836677249E+02 -0.76647220781E+02  0.83082751452E+02  0.47000000000E+01 0. -1.
        -13    1    6    6    0    0 -0.61824692846E+02 -0.23274457871E+01 -0.17700825493E+01  0.61893802934E+02  0.00000000000E+00 0.  1.
         14    1    6    6    0    0  0.13007175003E+01  0.14343968232E+02  0.46175192709E+02  0.48369305477E+02  0.00000000000E+00 0. -1.
         -5    1    3    3    0  503  0.32134042305E+02  0.47192116930E+02 -0.32749118599E+03  0.33246392207E+03  0.47000000000E+01 0.  1.
         11    1    4    4    0    0 -0.89778956362E+01  0.13215043955E+02 -0.54953967425E+02  0.57229175536E+02  0.00000000000E+00 0. -1.
        -12    1    4    4    0    0  0.61277868757E+02 -0.51587006082E+02 -0.91872013723E+02  0.12188791286E+03  0.00000000000E+00 0.  1.
</event>
<event>
12    1  0.8271773E-002  0.1995835E+03  0.7818608E-02  0.1151845E+00
         21   -1    0    0  501  502  0.00000000000E+00  0.00000000000E+00  0.70376630840E+03  0.70376630840E+03  0.00000000000E+00 0. -1.
         21   -1    0    0  502  503 -0.00000000000E+00 -0.00000000000E+00 -0.55400590712E+02  0.55400590712E+02  0.00000000000E+00 0. -1.
         -6    2    1    2    0  503  0.27835300195E+02 -0.78385130852E+02  0.38368819177E+03  0.43249300786E+03  0.18142364970E+03 0.  0.
        -24    2    3    3    0    0 -0.35614131090E+02  0.11798406845E+02  0.16023592862E+03  0.18327040714E+03  0.80653087827E+02 0.  0.
          6    2    1    2  501    0 -0.27835300195E+02  0.78385130852E+02  0.26467752591E+03  0.32667389125E+03  0.17246044712E+03 0.  0.
         24    2    5    5    0    0  0.20849592890E+02  0.14637228252E+01  0.19422969978E+03  0.21146925577E+03  0.80976674744E+02 0.  0.
          5    1    5    5  501    0 -0.48684893086E+02  0.76921408027E+02  0.70447826136E+02  0.11520463547E+03  0.47000000000E+01 0. -1.
        -11    1    6    6    0    0  0.49129377090E+02  0.87173449173E+01  0.15313893224E+03  0.16106278392E+03  0.00000000000E+00 0.  1.
         12    1    6    6    0    0 -0.28279784200E+02 -0.72536220921E+01  0.41090767534E+02  0.50406471851E+02  0.00000000000E+00 0. -1.
         -5    1    3    3    0  503  0.63449431285E+02 -0.90183537698E+02  0.22345226315E+03  0.24922260072E+03  0.47000000000E+01 0.  1.
         13    1    4    4    0    0  0.25099667294E+02 -0.46951674883E+01  0.37811986630E+02  0.45626573715E+02  0.00000000000E+00 0. -1.
        -14    1    4    4    0    0 -0.60713798384E+02  0.16493574334E+02  0.12242394199E+03  0.13764383343E+03  0.00000000000E+00 0.  1.
</event>
<event>
12    1  0.8271773E-002  0.1818148E+03  0.7818608E-02  0.1166259E+00
         21   -1    0    0  503  502  0.00000000000E+00  0.00000000000E+00  0.63241863090E+02  0.63241863090E+02  0.00000000000E+00 0. -1.
         21   -1    0    0  501  503 -0.00000000000E+00 -0.00000000000E+00 -0.86174956898E+03  0.86174956898E+03  0.00000000000E+00 0.  1.
          6    2    1    2  501    0  0.44736217073E+01 -0.53570154587E+02 -0.10756719205E+03  0.21052980452E+03  0.17280718455E+03 0.  0.
         24    2    3    3    0    0  0.70187457627E+02 -0.30070496436E+02 -0.29924389085E+02  0.10602603895E+03  0.67197752270E+02 0.  0.
         -6    2    1    2    0  502 -0.44736217073E+01  0.53570154587E+02 -0.69094051383E+03  0.71446162755E+03  0.17368606400E+03 0.  0.
        -24    2    5    5    0    0  0.26054163725E+02 -0.32141066800E+02 -0.36711832431E+03  0.37806712762E+03  0.80293345422E+02 0.  0.
          5    1    3    3  501    0 -0.65713835920E+02 -0.23499658151E+02 -0.77642802967E+02  0.10450376556E+03  0.47000000000E+01 0. -1.
        -13    1    4    4    0    0  0.17990026432E+02 -0.41713696637E+02 -0.26141160179E+02  0.52412153111E+02  0.00000000000E+00 0.  1.
         14    1    4    4    0    0  0.52197431195E+02  0.11643200202E+02 -0.37832289063E+01  0.53613885843E+02  0.00000000000E+00 0. -1.
         -5    1    5    5    0  502 -0.30527785432E+02  0.85711221387E+02 -0.32382218953E+03  0.33639449993E+03  0.47000000000E+01 0.  1.
         13    1    6    6    0    0  0.29828010574E+02  0.20993585828E+02 -0.12858625560E+03  0.13365951515E+03  0.00000000000E+00 0. -1.
        -14    1    6    6    0    0 -0.37738468489E+01 -0.53134652627E+02 -0.23853206871E+03  0.24440761247E+03  0.00000000000E+00 0.  1.
</event>
<event>
12    1  0.8271773E-002  0.2816155E+03  0.7818608E-02  0.1094813E+00
         21   -1    0    0  501  502  0.00000000000E+00  0.00000000000E+00  0.10132659564E+03  0.10132659564E+03  0.00000000000E+00 0.  1.
         21   -1    0    0  502  503 -0.00000000000E+00 -0.00000000000E+00 -0.13548666479E+04  0.13548666479E+04  0.00000000000E+00 0. -1.
         -6    2    1    2    0  503  0.21917246060E+03 -0.42059851933E+02 -0.10999706280E+04  0.11354482339E+04  0.17176062040E+03 0.  0.
        -24    2    3    3    0    0  0.21456999063E+03 -0.11480460842E+02 -0.10610477037E+04  0.10855146187E+04  0.79672304005E+02 0.  0.
          6    2    1    2  501    0 -0.21917246060E+03  0.42059851933E+02 -0.15356942419E+03  0.32074500960E+03  0.17172126983E+03 0.  0.
         24    2    5    5    0    0 -0.11334079179E+03 -0.30610239982E+02 -0.12337527945E+03  0.18877887472E+03  0.81442507841E+02 0.  0.
          5    1    5    5  501    0 -0.10583166880E+03  0.72670091915E+02 -0.30194144741E+02  0.13196613489E+03  0.47000000000E+01 0. -1.
        -11    1    6    6    0    0 -0.12900533966E+02 -0.96930987998E+01  0.11136968029E+02  0.19606427462E+02  0.00000000000E+00 0.  1.
         12    1    6    6    0    0 -0.10044025783E+03 -0.20917141182E+02 -0.13451224748E+03  0.16917244725E+03  0.00000000000E+00 0. -1.
         -5    1    3    3    0  503  0.46024699646E+01 -0.30579391091E+02 -0.38922924347E+02  0.49933615220E+02  0.47000000000E+01 0.  1.
         13    1    4    4    0    0  0.10130169613E+03 -0.43153391681E+02 -0.57415804251E+03  0.58462099401E+03  0.00000000000E+00 0. -1.
        -14    1    4    4    0    0  0.11326829450E+03  0.31672930840E+02 -0.48688966117E+03  0.50089362468E+03  0.00000000000E+00 0.  1.
</event>
<event>
12    1  0.8271773E-002  0.1743339E+03  0.7818608E-02  0.1174370E+00
         21   -1    0    0  503  502  0.00000000000E+00  0.00000000000E+00  0.27796770348E+03  0.27796770348E+03  0.00000000000E+00 0. -1.
         21   -1    0    0  501  503 -0.00000000000E+00 -0.00000000000E+00 -0.11014664239E+03  0.11014664239E+03  0.00000000000E+00 0. -1.
          6    2    1    2  501    0 -0.13394640623E+02 -0.85274350127E+01  0.51861316996E+02  0.18188428988E+03  0.17360923120E+03 0.  0.
         24    2    3    3    0    0 -0.20089791857E+02  0.27453809964E+02  0.85403804027E+02  0.13201783345E+03  0.94750130286E+02 0.  0.
         -6    2    1    2    0  502  0.13394640623E+02  0.85274350127E+01  0.11595974410E+03  0.20623005600E+03  0.16980000059E+03 0.  0.
        -24    2    5    5    0    0  0.14234078676E+02  0.33813363813E+02  0.86214865624E+00  0.88290964398E+02  0.80303166351E+02 0.  0.
          5    1    3    3  501    0  0.66951512337E+01 -0.35981244977E+02 -0.33542487031E+02  0.49866456424E+02  0.47000000000E+01 0. -1.
        -13    1    4    4    0    0 -0.48460582258E+02 -0.70310398607E+01  0.20160202591E+02  0.52955616537E+02  0.00000000000E+00 0.  1.
         14    1    4    4    0    0  0.28370790401E+02  0.34484849824E+02  0.65243601436E+02  0.79062216917E+02  0.00000000000E+00 0. -1.
         -5    1    5    5    0  502 -0.83943805319E+00 -0.25285928800E+02  0.11509759544E+03  0.11793909160E+03  0.47000000000E+01 0.  1.
         13    1    6    6    0    0 -0.12298932673E+02 -0.19496281045E+02  0.14458834337E+02  0.27210781133E+02  0.00000000000E+00 0. -1.
        -14    1    6    6    0    0  0.26533011349E+02  0.53309644858E+02 -0.13596685681E+02  0.61080183265E+02  0.00000000000E+00 0.  1.
</event>
<event>
12    1  0.8271773E-002  0.1815905E+03  0.7818608E-02  0.1166441E+00
         21   -1    0    0  503  502  0.00000000000E+00  0.00000000000E+00  0.10209997033E+03  0.10209997033E+03  0.00000000000E+00 0.  1.
         21   -1    0    0  501  503 -0.00000000000E+00 -0.00000000000E+00 -0.73457851051E+03  0.73457851051E+03  0.00000000000E+00 0.  1.
          6    2    1    2  501    0 -0.25233671931E+02  0.54542124519E+02 -0.63013140682E+03  0.65577489839E+03  0.17135794683E+03 0.  0.
         24    2    3    3    0    0  0.25046953198E+02  0.13472872868E+02 -0.14308045704E+03  0.16439363869E+03  0.75791708566E+02 0.  0.
         -6    2    1    2    0  502  0.25233671931E+02 -0.54542124519E+02 -0.23471333569E+01  0.18090358246E+03  0.17061364414E+03 0.  0.
        -24    2    5    5    0    0  0.61854805323E+02  0.58466753040E+01 -0.29528350551E+02  0.10508258852E+03  0.79436933285E+02 0.  0.
          5    1    3    3  501    0 -0.50280625129E+02  0.41069251651E+02 -0.48705094978E+03  0.49138125969E+03  0.47000000000E+01 0. -1.
        -13    1    4    4    0    0  0.94347520397E+00  0.41932218826E+02 -0.92359692113E+02  0.10143724093E+03  0.00000000000E+00 0.  1.
         14    1    4    4    0    0  0.24103477994E+02 -0.28459345957E+02 -0.50720764928E+02  0.62956397757E+02  0.00000000000E+00 0. -1.
         -5    1    5    5    0  502 -0.36621133392E+02 -0.60388799823E+02  0.27181217194E+02  0.75820993947E+02  0.47000000000E+01 0.  1.
         11    1    6    6    0    0  0.26067563989E+02 -0.31310481724E+01 -0.54524544333E+02  0.60516504275E+02  0.00000000000E+00 0. -1.
        -12    1    6    6    0    0  0.35787241334E+02  0.89777234764E+01  0.24996193782E+02  0.44566084242E+02  0.00000000000E+00 0.  1.
</event>
<event>
12    1  0.8271773E-002  0.2380925E+03  0.7818608E-02  0.1121217E+00
         21   -1    0    0  503  502  0.00000000000E+00  0.00000000000E+00  0.43300913578E+02  0.43300913578E+02  0.00000000000E+00 0.  1.
         21   -1    0    0  501  503 -0.00000000000E+00 -0.00000000000E+00 -0.13079815199E+04  0.13079815199E+04  0.00000000000E+00 0. -1.
          6    2    1    2  501    0  0.12447510149E+03  0.10639479899E+03 -0.66900062721E+03  0.71010553419E+03  0.17284133282E+03 0.  0.
         24    2    3    3    0    0  0.10231095320E+03  0.62602818103E+02 -0.25083164043E+03  0.28903976905E+03  0.78998938453E+02 0.  0.
         -6    2    1    2    0  502 -0.12447510149E+03 -0.10639479899E+03 -0.59567997913E+03  0.64117689931E+03  0.17163704299E+03 0.  0.
        -24    2    5    5    0    0 -0.15372099890E+03 -0.76109186414E+02 -0.53350855264E+03  0.56594447867E+03  0.78987489089E+02 0.  0.
          5    1    3    3  501    0  0.22164148293E+02  0.43791980886E+02 -0.41816898678E+03  0.42106576513E+03  0.47000000000E+01 0. -1.
        -13    1    4    4    0    0  0.85481290180E+02  0.11118933190E+02 -0.18258635159E+03  0.20191200418E+03  0.00000000000E+00 0.  1.
         14    1    4    4    0    0  0.16829663019E+02  0.51483884913E+02 -0.68245288836E+02  0.87127764871E+02  0.00000000000E+00 0. -1.
         -5    1    5    5    0  502  0.29245897406E+02 -0.30285612574E+02 -0.62171426490E+02  0.75232420643E+02  0.47000000000E+01 0.  1.
         13    1    6    6    0    0 -0.93728408178E+02 -0.15458062816E+02 -0.19579635161E+03  0.21762393597E+03  0.00000000000E+00 0. -1.
        -14    1    6    6    0    0 -0.59992590720E+02 -0.60651123598E+02 -0.33771220103E+03  0.34832054269E+03  0.00000000000E+00 0.  1.
</event>
<event>
12    1  0.8271773E-002  0.2223120E+03  0.7818608E-02  0.1132500E+00
         21   -1    0    0  503  502  0.00000000000E+00  0.00000000000E+00  0.11189988956E+03  0.11189988956E+03  0.00000000000E+00 0. -1.
         21   -1    0    0  501  503 -0.00000000000E+00 -0.00000000000E+00 -0.75155773246E+03  0.75155773246E+03  0.00000000000E+00 0. -1.
          6    2    1    2  501    0  0.12832065646E+03  0.53423646195E+02 -0.59787742801E+03  0.63725362117E+03  0.17121472459E+03 0.  0.
         24    2    3    3    0    0  0.51298522174E+02  0.88944091116E+02 -0.43021773870E+03  0.44930157250E+03  0.79006396189E+02 0.  0.
         -6    2    1    2    0  502 -0.12832065646E+03 -0.53423646195E+02 -0.41780414882E+02  0.22620400085E+03  0.17350034607E+03 0.  0.
        -24    2    5    5    0    0 -0.13930169902E+03 -0.14260053697E+02  0.94791730723E+01  0.16059908008E+03  0.78063418567E+02 0.  0.
          5    1    3    3  501    0  0.77022134284E+02 -0.35520444922E+02 -0.16765968931E+03  0.18795204866E+03  0.47000000000E+01 0. -1.
        -11    1    4    4    0    0 -0.18760365151E+02  0.39310047506E+01 -0.73742652826E+02  0.76193063626E+02  0.00000000000E+00 0.  1.
         12    1    4    4    0    0  0.70058887325E+02  0.85013086366E+02 -0.35647508587E+03  0.37310850888E+03  0.00000000000E+00 0. -1.
         -5    1    5    5    0  502  0.10981042560E+02 -0.39163592497E+02 -0.51259587955E+02  0.65604920778E+02  0.47000000000E+01 0.  1.
         13    1    6    6    0    0 -0.43274220729E+02  0.30332426598E+02  0.13856115882E+02  0.54632464986E+02  0.00000000000E+00 0. -1.
        -14    1    6    6    0    0 -0.96027478289E+02 -0.44592480296E+02 -0.43769428095E+01  0.10596661509E+03  0.00000000000E+00 0.  1.
</event>
<event>
12    1  0.8271773E-002  0.1833668E+03  0.7818608E-02  0.1165063E+00
         21   -1    0    0  503  502  0.00000000000E+00  0.00000000000E+00  0.22329338621E+04  0.22329338621E+04  0.00000000000E+00 0.  1.
         21   -1    0    0  501  503 -0.00000000000E+00 -0.00000000000E+00 -0.22315564016E+02  0.22315564016E+02  0.00000000000E+00 0.  1.
          6    2    1    2  501    0 -0.50699490349E+01 -0.61448785858E+02  0.45088042868E+03  0.48598383201E+03  0.17054461687E+03 0.  0.
         24    2    3    3    0    0  0.29210913819E+02 -0.96227415759E+02  0.26982307503E+03  0.29839762259E+03  0.78253794267E+02 0.  0.
         -6    2    1    2    0  502  0.50699490349E+01  0.61448785858E+02  0.17597378694E+04  0.17692655941E+04  0.17268965167E+03 0.  0.
        -24    2    5    5    0    0 -0.23567005330E+02 -0.20546500739E+02  0.57486621700E+03  0.58120573666E+03  0.79695535973E+02 0.  0.
          5    1    3    3  501    0 -0.34280862854E+02  0.34778629901E+02  0.18105735365E+03  0.18758620942E+03  0.47000000000E+01 0. -1.
        -11    1    4    4    0    0  0.18856667698E+02 -0.50432726749E+02  0.49537473792E+02  0.73164165776E+02  0.00000000000E+00 0.  1.
         12    1    4    4    0    0  0.10354246121E+02 -0.45794689010E+02  0.22028560124E+03  0.22523345681E+03  0.00000000000E+00 0. -1.
         -5    1    5    5    0  502  0.28636954365E+02  0.81995286597E+02  0.11848716524E+04  0.11880598574E+04  0.47000000000E+01 0.  1.
         13    1    6    6    0    0 -0.19692947366E+02 -0.28011501134E+01  0.55027276303E+03  0.55063215702E+03  0.00000000000E+00 0. -1.
        -14    1    6    6    0    0 -0.38740579641E+01 -0.17745350626E+02  0.24593453972E+02  0.30573579644E+02  0.00000000000E+00 0.  1.
</event>
<event>
12    1  0.8271773E-002  0.2033866E+03  0.7818608E-02  0.1147376E+00
         21   -1    0    0  503  502  0.00000000000E+00  0.00000000000E+00  0.70433271490E+03  0.70433271490E+03  0.00000000000E+00 0.  1.
         21   -1    0    0  501  503 -0.00000000000E+00 -0.00000000000E+00 -0.85670686671E+02  0.85670686671E+02  0.00000000000E+00 0.  1.
          6    2    1    2  501    0  0.20039792647E+02  0.10367733885E+03  0.84044395172E+02  0.21800504228E+03  0.17120792686E+03 0.  0.
         24    2    3    3    0    0  0.41580950657E+02  0.11873596249E+03  0.10639014151E+03  0.18318829324E+03  0.80074242564E+02 0.  0.
         -6    2    1    2    0  502 -0.20039792647E+02 -0.10367733885E+03  0.53461763306E+03  0.57199835929E+03  0.17382613605E+03 0.  0.
        -24    2    5    5    0    0  0.80686544075E+01  0.10293175145E+02  0.28137078583E+03  0.29282920181E+03  0.80052293391E+02 0.  0.
          5    1    3    3  501    0 -0.21541158010E+02 -0.15058623643E+02 -0.22345746341E+02  0.34816749044E+02  0.47000000000E+01 0. -1.
        -13    1    4    4    0    0  0.16205663753E+02  0.71934638854E+02  0.10699996815E+03  0.12994694682E+03  0.00000000000E+00 0.  1.
         14    1    4    4    0    0  0.25375286903E+02  0.46801323637E+02 -0.60982663570E+00  0.53241346416E+02  0.00000000000E+00 0. -1.
         -5    1    5    5    0  502 -0.28108447054E+02 -0.11397051399E+03  0.25324684723E+03  0.27916915748E+03  0.47000000000E+01 0.  1.
         11    1    6    6    0    0 -0.25484988521E+02 -0.22644799038E+02  0.11947669258E+03  0.12424552963E+03  0.00000000000E+00 0. -1.
        -12    1    6    6    0    0  0.33553642929E+02  0.32937974183E+02  0.16189409325E+03  0.16858367218E+03  0.00000000000E+00 0.  1.
</event>
<event>
12    1  0.8271773E-002  0.2262323E+03  0.7818608E-02  0.1129979E+00
         21   -1    0    0  501  502  0.00000000000E+00  0.00000000000E+00  0.44826642969E+03  0.44826642969E+03  0.00000000000E+00 0. -1.
         21   -1    0    0  502  503 -0.00000000000E+00 -0.00000000000E+00 -0.77547005777E+03  0.77547005777E+03  0.00000000000E+00 0. -1.
         -6    2    1    2    0  503  0.12656621091E+03 -0.66776597630E+02 -0.72960207139E+03  0.76387185892E+03  0.17522247156E+03 0.  0.
        -24    2    3    3    0    0  0.67763717904E+02 -0.42730269670E+02 -0.65920975277E+03  0.66893436583E+03  0.80609492261E+02 0.  0.
          6    2    1    2  501    0 -0.12656621091E+03  0.66776597630E+02  0.40239844331E+03  0.45986462854E+03  0.17050762349E+03 0.  0.
         24    2    5    5    0    0 -0.50555523679E+02 -0.29776767950E+02  0.19516450731E+03  0.21889124576E+03  0.79885390864E+02 0.  0.
          5    1    5    5  501    0 -0.76010687230E+02  0.96553365579E+02  0.20723393600E+03  0.24097338278E+03  0.47000000000E+01 0. -1.
        -11    1    6    6    0    0  0.69725070198E+01  0.21225587777E+01 -0.45705914210E+01  0.86029887739E+01  0.00000000000E+00 0.  1.
         12    1    6    6    0    0 -0.57528030699E+02 -0.31899326728E+02  0.19973509873E+03  0.21028825699E+03  0.00000000000E+00 0. -1.
         -5    1    3    3    0  503  0.58802493005E+02 -0.24046327960E+02 -0.70392318621E+02  0.94937493082E+02  0.47000000000E+01 0.  1.
         13    1    4    4    0    0  0.85043787238E+02 -0.40018679942E+02 -0.59530560029E+03  0.60267959831E+03  0.00000000000E+00 0. -1.
        -14    1    4    4    0    0 -0.17280069334E+02 -0.27115897272E+01 -0.63904152479E+02  0.66254767520E+02  0.00000000000E+00 0.  1.
</event>
<event>
12    1  0.8271773E-002  0.2020797E+03  0.7818608E-02  0.1148144E+00
         21   -1    0    0  501  502  0.00000000000E+00  0.00000000000E+00  0.50013140964E+03  0.50013140964E+03  0.00000000000E+00 0.  1.
         21   -1    0    0  502  503 -0.00000000000E+00 -0.00000000000E+00 -0.81451453203E+02  0.81451453203E+02  0.00000000000E+00 0. -1.
         -6    2    1    2    0  503 -0.43457695181E+02  0.92459952252E+02  0.21916802784E+03  0.29811210041E+03  0.17435247616E+03 0.  0.
        -24    2    3    3    0    0 -0.30599292768E+02  0.31151967677E+02  0.21644885874E+03  0.23523530528E+03  0.81109670170E+02 0.  0.
          6    2    1    2  501    0  0.43457695181E+02 -0.92459952252E+02  0.19951192860E+03  0.28347076243E+03  0.17353169583E+03 0.  0.
         24    2    5    5    0    0  0.29988082241E+02  0.14333782630E+02  0.48774651117E+02  0.98186793599E+02  0.78466154772E+02 0.  0.
          5    1    5    5  501    0  0.13469612940E+02 -0.10679373488E+03  0.15073727748E+03  0.18528396883E+03  0.47000000000E+01 0. -1.
        -13    1    6    6    0    0 -0.11552503640E+01  0.41179821685E+02  0.11705618602E+02  0.42826788629E+02  0.00000000000E+00 0.  1.
         14    1    6    6    0    0  0.31143332605E+02 -0.26846039055E+02  0.37069032515E+02  0.55360004970E+02  0.00000000000E+00 0. -1.
         -5    1    3    3    0  503 -0.12858402413E+02  0.61307984575E+02  0.27191691032E+01  0.62876795131E+02  0.47000000000E+01 0.  1.
         13    1    4    4    0    0 -0.40015126245E+02  0.44794606876E+02  0.93210869005E+02  0.11088748006E+03  0.00000000000E+00 0. -1.
        -14    1    4    4    0    0  0.94158334775E+01 -0.13642639198E+02  0.12323798973E+03  0.12434782522E+03  0.00000000000E+00 0.  1.
</event>
<event>
12    1  0.8271773E-002  0.2077642E+03  0.7818608E-02  0.1143791E+00
         21   -1    0    0  503  502  0.00000000000E+00  0.00000000000E+00  0.16592341987E+04  0.16592341987E+04  0.00000000000E+00 0.  1.
         21   -1    0    0  501  503 -0.00000000000E+00 -0.00000000000E+00 -0.32401310438E+02  0.32401310438E+02  0.00000000000E+00 0.  1.
          6    2    1    2  501    0 -0.11486300378E+03  0.12993557380E+02  0.11934356078E+04  0.12110117872E+04  0.16999604869E+03 0.  0.
         24    2    3    3    0    0 -0.79798652374E+02 -0.48612850863E+02  0.54186822119E+03  0.55558291418E+03  0.79499504427E+02 0.  0.
         -6    2    1    2    0  502  0.11486300378E+03 -0.12993557380E+02  0.43339728044E+03  0.48062372193E+03  0.17263724169E+03 0.  0.
        -24    2    5    5    0    0  0.39348620097E+02 -0.13877424137E+01  0.78131751890E+02  0.11720550161E+03  0.77989225036E+02 0.  0.
          5    1    3    3  501    0 -0.35064351406E+02  0.61606408243E+02  0.65156738661E+03  0.65542887300E+03  0.47000000000E+01 0. -1.
        -13    1    4    4    0    0 -0.53555104021E+02 -0.22884571834E+02  0.13459568743E+03  0.14665555520E+03  0.00000000000E+00 0.  1.
         14    1    4    4    0    0 -0.26243548352E+02 -0.25728279029E+02  0.40727253376E+03  0.40892735898E+03  0.00000000000E+00 0. -1.
         -5    1    5    5    0  502  0.75514383683E+02 -0.11605814966E+02  0.35526552855E+03  0.36341822032E+03  0.47000000000E+01 0.  1.
         11    1    6    6    0    0 -0.21256542210E+02  0.12721606453E+02  0.27230180769E+02  0.36812533221E+02  0.00000000000E+00 0. -1.
        -12    1    6    6    0    0  0.60605162307E+02 -0.14109348867E+02  0.50901571122E+02  0.80392968388E+02  0.00000000000E+00 0.  1.
</event>
<event>
12    1  0.8271773E-002  0.1923734E+03  0.7818608E-02  0.1157723E+00
         21   -1    0    0  501  502  0.00000000000E+00  0.00000000000E+00  0.14185284405E+03  0.14185284405E+03  0.00000000000E+00 0. -1.
         21   -1    0    0  502  503 -0.00000000000E+00 -0.00000000000E+00 -0.35279980861E+03  0.35279980861E+03  0.00000000000E+00 0. -1.
         -6    2    1    2    0  503 -0.70552491331E+02  0.11877951059E+02 -0.23602270030E+03  0.30065179234E+03  0.17194779856E+03 0.  0.
        -24    2    3    3    0    0 -0.36093301641E+02 -0.13366191420E+02 -0.37495588892E+02  0.97526691860E+02  0.81388911668E+02 0.  0.
          6    2    1    2  501    0  0.70552491331E+02 -0.11877951059E+02  0.25075735737E+02  0.19400086031E+03  0.17857435852E+03 0.  0.
         24    2    5    5    0    0  0.39597342046E+01  0.51635280470E+02 -0.64261486700E+01  0.96620243127E+02  0.81316015095E+02 0.  0.
          5    1    5    5  501    0  0.66592757127E+02 -0.63513231530E+02  0.31501884407E+02  0.97380617180E+02  0.47000000000E+01 0. -1.
        -13    1    6    6    0    0 -0.11355599519E+02  0.63080874772E+02  0.17068906829E+02  0.66328681449E+02  0.00000000000E+00 0.  1.
         14    1    6    6    0    0  0.15315333724E+02 -0.11445594302E+02 -0.23495055499E+02  0.30291561678E+02  0.00000000000E+00 0. -1.
         -5    1    3    3    0  503 -0.34459189690E+02  0.25244142480E+02 -0.19852711141E+03  0.20312510048E+03  0.47000000000E+01 0.  1.
         13    1    4    4    0    0 -0.45014255317E+02 -0.38887518789E+02 -0.37818065597E+02  0.70489207577E+02  0.00000000000E+00 0. -1.
        -14    1    4    4    0    0  0.89209536759E+01  0.25521327369E+02  0.32247670590E+00  0.27037484283E+02  0.00000000000E+00 0.  1.
</event>
<event>
12    1  0.8271773E-002  0.2593366E+03  0.7818608E-02  0.1107709E+00
         21   -1    0    0  501  502  0.00000000000E+00  0.00000000000E+00  0.64347604010E+02  0.64347604010E+02  0.00000000000E+00 0. -1.
         21   -1    0    0  502  503 -0.00000000000E+00 -0.00000000000E+00 -0.11650719332E+04  0.11650719332E+04  0.00000000000E+00 0.  1.
         -6    2    1    2    0  503  0.43149680217E+02  0.18889387703E+03 -0.75011245395E+03  0.79331845548E+03  0.17071229176E+03 0.  0.
        -24    2    3    3    0    0  0.52650282578E+00  0.97190372971E+02 -0.25577461195E+03  0.28872132911E+03  0.92158059678E+02 0.  0.
          6    2    1    2  501    0 -0.43149680217E+02 -0.18889387703E+03 -0.35061187522E+03  0.43610108171E+03  0.17237364861E+03 0.  0.
         24    2    5    5    0    0 -0.77136459097E+02 -0.18536226352E+03 -0.25884907433E+03  0.33807009140E+03  0.83542452445E+02 0.  0.
          5    1    5    5  501    0  0.33986778881E+02 -0.35316135139E+01 -0.91762800890E+02  0.98030990303E+02  0.47000000000E+01 0. -1.
        -11    1    6    6    0    0 -0.49352739133E+02 -0.27612528827E+02 -0.80118368827E+02  0.98066801884E+02  0.00000000000E+00 0.  1.
         12    1    6    6    0    0 -0.27783719964E+02 -0.15774973469E+03 -0.17873070550E+03  0.24000328952E+03  0.00000000000E+00 0. -1.
         -5    1    3    3    0  503  0.42623177391E+02  0.91703504062E+02 -0.49433784200E+03  0.50459712637E+03  0.47000000000E+01 0.  1.
         13    1    4    4    0    0  0.44499223276E+02  0.34315610678E+02 -0.12598987117E+03  0.13795357787E+03  0.00000000000E+00 0. -1.
        -14    1    4    4    0    0 -0.43972720450E+02  0.62874762293E+02 -0.12978474078E+03  0.15076775124E+03  0.00000000000E+00 0.  1.
</event>
<event>
12    1  0.8271773E-002  0.2812805E+03  0.7818608E-02  0.1095694E+00
         21   -1    0    0  501  502  0.00000000000E+00  0.00000000000E+00  0.47350527677E+02  0.47350527677E+02  0.00000000000E+00 0. -1.
         21   -1    0    0  502  503 -0.00000000000E+00 -0.00000000000E+00 -0.24868632135E+04  0.24868632135E+04  0.00000000000E+00 0.  1.
         -6    2    1    2    0  503  0.16993464712E+03  0.14194718062E+03 -0.48801458031E+03  0.56327340020E+03  0.17347018879E+03 0.  0.
        -24    2    3    3    0    0  0.66136697556E+02  0.60257327549E+02 -0.10561545907E+03  0.15867678090E+03  0.77580199236E+02 0.  0.
          6    2    1    2  501    0 -0.16993464712E+03 -0.14194718062E+03 -0.19514981055E+04  0.19709403410E+04  0.16502783250E+03 0.  0.
         24    2    5    5    0    0 -0.12050894071E+03 -0.13273799852E+03 -0.18123101500E+04  0.18228758737E+04  0.79161798560E+02 0.  0.
          5    1    5    5  501    0 -0.49425706410E+02 -0.92091821053E+01 -0.13918795552E+03  0.14806446722E+03  0.47000000000E+01 0. -1.
        -13    1    6    6    0    0 -0.97813913882E+02 -0.56149433990E+02 -0.89114041475E+03  0.89824916336E+03  0.00000000000E+00 0.  1.
         14    1    6    6    0    0 -0.22695026825E+02 -0.76588564528E+02 -0.92116973522E+03  0.92462671037E+03  0.00000000000E+00 0. -1.
         -5    1    3    3    0  503  0.10379794956E+03  0.81689853074E+02 -0.38239912124E+03  0.40459661931E+03  0.47000000000E+01 0.  1.
         11    1    4    4    0    0  0.16727639679E+02  0.61123372973E+02 -0.82746381524E+02  0.10422496970E+03  0.00000000000E+00 0. -1.
        -12    1    4    4    0    0  0.49409057877E+02 -0.86604542436E+00 -0.22869077549E+02  0.54451811200E+02  0.00000000000E+00 0.  1.
</event>
<event>
12    1  0.8271773E-002  0.1755128E+03  0.7818608E-02  0.1172246E+00
         21   -1    0    0  503  502  0.00000000000E+00  0.00000000000E+00  0.28779633822E+03  0.28779633822E+03  0.00000000000E+00 0.  1.
         21   -1    0    0  501  503 -0.00000000000E+00 -0.00000000000E+00 -0.47760439491E+03  0.47760439491E+03  0.00000000000E+00 0. -1.
          6    2    1    2  501    0 -0.25719587647E+02 -0.23317324813E+02 -0.43202800758E+03  0.46627658290E+03  0.17193154917E+03 0.  0.
         24    2    3    3    0    0 -0.72436342763E+02  0.38524774302E+01 -0.37303928475E+03  0.38613662543E+03  0.68420173879E+02 0.  0.
         -6    2    1    2    0  502  0.25719587647E+02  0.23317324813E+02  0.24221995089E+03  0.29912415022E+03  0.17204522025E+03 0.  0.
        -24    2    5    5    0    0  0.14943647099E+02  0.10988193176E+02  0.33655136515E+02  0.89864741405E+02  0.81233924908E+02 0.  0.
          5    1    3    3  501    0  0.46716755116E+02 -0.27169802243E+02 -0.58988722829E+02  0.80139957471E+02  0.47000000000E+01 0. -1.
        -13    1    4    4    0    0 -0.18317596971E+02  0.16928034793E+02 -0.31947065459E+02  0.40530330769E+02  0.00000000000E+00 0.  1.
         14    1    4    4    0    0 -0.54118745792E+02 -0.13075557363E+02 -0.34109221929E+03  0.34560629466E+03  0.00000000000E+00 0. -1.
         -5    1    5    5    0  502  0.10775940548E+02  0.12329131637E+02  0.20856481438E+03  0.20925940882E+03  0.47000000000E+01 0.  1.
         11    1    6    6    0    0 -0.33742356883E+02  0.70282838259E+01  0.14654417073E+02  0.37452574829E+02  0.00000000000E+00 0. -1.
        -12    1    6    6    0    0  0.48686003982E+02  0.39599093504E+01  0.19000719443E+02  0.52412166576E+02  0.00000000000E+00 0.  1.
</event>
<event>
12    1  0.8271773E-002  0.2970708E+03  0.7818608E-02  0.1087054E+00
         21   -1    0    0  501  502  0.00000000000E+00  0.00000000000E+00  0.15911296595E+03  0.15911296595E+03  0.00000000000E+00 0.  1.
         21   -1    0    0  502  503 -0.00000000000E+00 -0.00000000000E+00 -0.56718839195E+03  0.56718839195E+03  0.00000000000E+00 0.  1.
         -6    2    1    2    0  503  0.49249169376E+02  0.23859744476E+03 -0.14110302200E+03  0.32887854021E+03  0.16999061758E+03 0.  0.
        -24    2    3    3    0    0 -0.31876587687E+02  0.13821487919E+03 -0.46758860112E+02  0.16893805500E+03  0.78956986736E+02 0.  0.
          6    2    1    2  501    0 -0.49249169376E+02 -0.23859744476E+03 -0.26697240400E+03  0.39742281768E+03  0.16527676845E+03 0.  0.
         24    2    5    5    0    0  0.26176747226E+02 -0.11533961767E+03 -0.93542514195E+02  0.17163181363E+03  0.81968457278E+02 0.  0.
          5    1    5    5  501    0 -0.75425916602E+02 -0.12325782709E+03 -0.17342988980E+03  0.22579100405E+03  0.47000000000E+01 0. -1.
        -13    1    6    6    0    0  0.19944779803E+02 -0.10777170963E+03 -0.10819068183E+03  0.15400571182E+03  0.00000000000E+00 0.  1.
         14    1    6    6    0    0  0.62319674228E+01 -0.75679080361E+01  0.14648167633E+02  0.17626101810E+02  0.00000000000E+00 0. -1.
         -5    1    3    3    0  503  0.81125757063E+02  0.10038256556E+03 -0.94344161887E+02  0.15994048521E+03  0.47000000000E+01 0.  1.
         11    1    4    4    0    0 -0.12266063825E+02  0.31808616938E+02 -0.50203782918E+02  0.60684959030E+02  0.00000000000E+00 0. -1.
        -12    1    4    4    0    0 -0.19610523863E+02  0.10640626226E+03  0.34449228057E+01  0.10825309597E+03  0.00000000000E+00 0.  1.
</event>
<event>
12    1  0.8271773E-002  0.3043171E+03  0.7818608E-02  0.1083148E+00
         21   -1    0    0  501  502  0.00000000000E+00  0.00000000000E+00  0.50442656109E+03  0.50442656109E+03  0.00000000000E+00 0. -1.
         21   -1    0    0  502  503 -0.00000000000E+00 -0.00000000000E+00 -0.97052466247E+03  0.97052466247E+03  0.00000000000E+00 0. -1.
         -6    2    1    2    0  503  0.21982044344E+03 -0.12131431330E+03 -0.89723972553E+03  0.94744287497E+03  0.17196129299E+03 0.  0.
        -24    2    3    3    0    0  0.10222414367E+03 -0.12992756124E+03 -0.60504365239E+03  0.63231795859E+03  0.80107632227E+02 0.  0.
          6    2    1    2  501    0 -0.21982044344E+03  0.12131431330E+03  0.43114162416E+03  0.52750834859E+03  0.17130022703E+03 0.  0.
         24    2    5    5    0    0 -0.11844379358E+03  0.14782153660E+03  0.26193245767E+03  0.32842622973E+03  0.58095069299E+02 0.  0.
          5    1    5    5  501    0 -0.10137664986E+03 -0.26507223292E+02  0.16920916649E+03  0.19908211886E+03  0.47000000000E+01 0. -1.
        -13    1    6    6    0    0 -0.90448965504E+02  0.67446533170E+02  0.14213470853E+03  0.18147265790E+03  0.00000000000E+00 0.  1.
         14    1    6    6    0    0 -0.27994828073E+02  0.80375003425E+02  0.11979774914E+03  0.14695357183E+03  0.00000000000E+00 0. -1.
         -5    1    3    3    0  503  0.11759629978E+03  0.86132479406E+01 -0.29219607315E+03  0.31512491638E+03  0.47000000000E+01 0.  1.
         13    1    4    4    0    0  0.10435550618E+03 -0.81522392038E+02 -0.38949353468E+03  0.41138933582E+03  0.00000000000E+00 0. -1.
        -14    1    4    4    0    0 -0.21313625172E+01 -0.48405169206E+02 -0.21555011771E+03  0.22092862276E+03  0.00000000000E+00 0.  1.
</event>
<event>
12    1  0.8271773E-002  0.1848948E+03  0.7818608E-02  0.1164381E+00
         21   -1    0    0  503  502  0.00000000000E+00  0.00000000000E+00  0.22302350414E+03  0.22302350414E+03  0.00000000000E+00 0. -1.
         21   -1    0    0  501  503 -0.00000000000E+00 -0.00000000000E+00 -0.15209311093E+03  0.15209311093E+03  0.00000000000E+00 0. -1.
          6    2    1    2  501    0 -0.37844816430E+02 -0.31497763818E+02  0.61690389426E+02  0.18999109242E+03  0.17281947748E+03 0.  0.
         24    2    3    3    0    0  0.24854611209E+02 -0.44926472594E+02 -0.79927888482E+01  0.95178731520E+02  0.79743128996E+02 0.  0.
         -6    2    1    2    0  502  0.37844816430E+02  0.31497763818E+02  0.92400037800E+01  0.18512552265E+03  0.17821824320E+03 0.  0.
        -24    2    5    5    0    0 -0.28997554853E+02  0.13965610225E+02 -0.48032755358E+02  0.95250398462E+02  0.75694097283E+02 0.  0.
          5    1    3    3  501    0 -0.62699427640E+02  0.13428708776E+02  0.69683178274E+02  0.94812360903E+02  0.47000000000E+01 0. -1.
        -11    1    4    4    0    0  0.51745068241E+02 -0.22168296688E+02 -0.17023376811E+02  0.58811400454E+02  0.00000000000E+00 0.  1.
         12    1    4    4    0    0 -0.26890457031E+02 -0.22758175906E+02  0.90305879624E+01  0.36367331066E+02  0.00000000000E+00 0. -1.
         -5    1    5    5    0  502  0.66842371283E+02  0.17532153593E+02  0.57272759138E+02  0.89875124187E+02  0.47000000000E+01 0.  1.
         11    1    6    6    0    0  0.25803835291E+02  0.44002358388E+01 -0.20089388472E+02  0.32996719842E+02  0.00000000000E+00 0. -1.
        -12    1    6    6    0    0 -0.54801390144E+02  0.95653743864E+01 -0.27943366886E+02  0.62253678620E+02  0.00000000000E+00 0.  1.
</event>
<event>
12    1  0.8271773E-002  0.1767975E+03  0.7818608E-02  0.1171460E+00
         21   -1    0    0  503  502  0.00000000000E+00  0.00000000000E+00  0.13959300023E+04  0.13959300023E+04  0.00000000000E+00 0.  1.
         21   -1    0    0  501  503 -0.00000000000E+00 -0.00000000000E+00 -0.22234322268E+02  0.22234322268E+02  0.00000000000E+00 0.  1.
          6    2    1    2  501    0 -0.35577836796E+02  0.23764818985E+02  0.64181431635E+03  0.66571988482E+03  0.17154241251E+03 0.  0.
         24    2    3    3    0    0 -0.92080487606E+01  0.24190021121E+02  0.63116663879E+03  0.63689264848E+03  0.81184816797E+02 0.  0.
         -6    2    1    2    0  502  0.35577836796E+02 -0.23764818985E+02  0.73188136373E+03  0.75244443979E+03  0.16938640825E+03 0.  0.
        -24    2    5    5    0    0  0.17498411223E+02  0.50724954538E+02  0.36535931098E+03  0.37796333594E+03  0.80558312952E+02 0.  0.
          5    1    3    3  501    0 -0.26369788036E+02 -0.42520213577E+00  0.10647677550E+02  0.28827236342E+02  0.47000000000E+01 0. -1.
        -11    1    4    4    0    0  0.31053170623E+02  0.11954289121E+01  0.13342489958E+03  0.13699610317E+03  0.00000000000E+00 0.  1.
         12    1    4    4    0    0 -0.40261219384E+02  0.22994592209E+02  0.49774173921E+03  0.49989654531E+03  0.00000000000E+00 0. -1.
         -5    1    5    5    0  502  0.18079425573E+02 -0.74489773523E+02  0.36652205274E+03  0.37448110384E+03  0.47000000000E+01 0.  1.
         11    1    6    6    0    0  0.41559605313E+02  0.14298496779E+02  0.10282492285E+03  0.11182402498E+03  0.00000000000E+00 0. -1.
        -12    1    6    6    0    0 -0.24061194089E+02  0.36426457759E+02  0.26253438813E+03  0.26613931096E+03  0.00000000000E+00 0.  1.
</event>
<event>
12    1  0.8271773E-002  0.2079419E+03  0.7818608E-02  0.1143434E+00
         21   -1    0    0  501  502  0.00000000000E+00  0.00000000000E+00  0.12671520200E+04  0.12671520200E+04  0.00000000000E+00 0.  1.
         21   -1    0    0  502  503 -0.00000000000E+00 -0.00000000000E+00 -0.14809541714E+03  0.14809541714E+03  0.00000000000E+00 0.  1.
         -6    2    1    2    0  503 -0.11516139288E+03 -0.11912776927E+02 -0.61395804938E+02  0.21681624580E+03  0.17273036478E+03 0.  0.
        -24    2    3    3    0    0 -0.39698128098E+02 -0.18096607788E+02 -0.96974218737E+02  0.13302568772E+03  0.79927504060E+02 0.  0.
          6    2    1    2  501    0  0.11516139288E+03  0.11912776927E+02  0.11804524078E+04  0.11984311913E+04  0.17136327675E+03 0.  0.
         24    2    5    5    0    0  0.13857408854E+03 -0.25603532807E+02  0.91932097742E+03  0.93354000283E+03  0.80545381346E+02 0.  0.
          5    1    5    5  501    0 -0.23412695662E+02  0.37516309734E+02  0.26113143038E+03  0.26489118851E+03  0.47000000000E+01 0. -1.
        -11    1    6    6    0    0  0.48509465758E+02 -0.95394100467E+00  0.13078971176E+03  0.13949920062E+03  0.00000000000E+00 0.  1.
         12    1    6    6    0    0  0.90064622782E+02 -0.24649591803E+02  0.78853126566E+03  0.79404080221E+03  0.00000000000E+00 0. -1.
         -5    1    3    3    0  503 -0.75463264780E+02  0.61838308613E+01  0.35578413799E+02  0.83790558083E+02  0.47000000000E+01 0.  1.
         11    1    4    4    0    0  0.21528626083E+02  0.97221973071E+01 -0.29044819123E+02  0.37438007150E+02  0.00000000000E+00 0. -1.
        -12    1    4    4    0    0 -0.61226754181E+02 -0.27818805095E+02 -0.67929399614E+02  0.95587680568E+02  0.00000000000E+00 0.  1.
</event>
<event>
12    1  0.8271773E-002  0.2504123E+03  0.7818608E-02  0.1113305E+00
         21   -1    0    0  503  502  0.00000000000E+00  0.00000000000E+00  0.12516217968E+03  0.12516217968E+03  0.00000000000E+00 0. -1.
         21   -1    0    0  501  503 -0.00000000000E+00 -0.00000000000E+00 -0.57705644208E+03  0.57705644208E+03  0.00000000000E+00 0. -1.
          6    2    1    2  501    0  0.84248620244E+01  0.18134619872E+03 -0.95107365107E+02  0.26632502120E+03  0.17007699412E+03 0.  0.
         24    2    3    3    0    0  0.34054846397E+02  0.18426105528E+03 -0.43523281055E+02  0.20845965837E+03  0.80307435001E+02 0.  0.
         -6    2    1    2    0  502 -0.84248620244E+01 -0.18134619872E+03 -0.35678689729E+03  0.43589360056E+03  0.17247874896E+03 0.  0.
        -24    2    5    5    0    0 -0.53267839777E+02 -0.13534252504E+03 -0.17184626868E+03  0.24005602307E+03  0.83310817519E+02 0.  0.
          5    1    3    3  501    0 -0.25629984372E+02 -0.29148565639E+01 -0.51584084051E+02  0.57865362827E+02  0.47000000000E+01 0. -1.
        -11    1    4    4    0    0  0.12784172179E+02 -0.38040243653E+01 -0.89526711699E+01  0.16064120914E+02  0.00000000000E+00 0.  1.
         12    1    4    4    0    0  0.21270674218E+02  0.18806507965E+03 -0.34570609885E+02  0.19239553745E+03  0.00000000000E+00 0. -1.
         -5    1    5    5    0  502  0.44842977752E+02 -0.46003673678E+02 -0.18494062861E+03  0.19583757749E+03  0.47000000000E+01 0.  1.
         13    1    6    6    0    0 -0.14156621450E+02 -0.10494227661E+03 -0.15502922114E+03  0.18774277817E+03  0.00000000000E+00 0. -1.
        -14    1    6    6    0    0 -0.39111218327E+02 -0.30400248433E+02 -0.16817047544E+02  0.52313244900E+02  0.00000000000E+00 0.  1.
</event>
<event>
12    1  0.8271773E-002  0.2665392E+03  0.7818608E-02  0.1103564E+00
         21   -1    0    0  501  502  0.00000000000E+00  0.00000000000E+00  0.12575738727E+03  0.12575738727E+03  0.00000000000E+00 0.  1.
         21   -1    0    0  502  503 -0.00000000000E+00 -0.00000000000E+00 -0.56081979594E+03  0.56081979594E+03  0.00000000000E+00 0.  1.
         -6    2    1    2    0  503  0.91025441889E+02  0.18144659000E+03 -0.21308018502E+03  0.33970651265E+03  0.16967278331E+03 0.  0.
        -24    2    3    3    0    0  0.25455977321E+02  0.14962618801E+03 -0.83665784139E+02  0.19110614313E+03  0.80533170717E+02 0.  0.
          6    2    1    2  501    0 -0.91025441889E+02 -0.18144659000E+03 -0.22198222365E+03  0.34687067055E+03  0.17272712115E+03 0.  0.
         24    2    5    5    0    0 -0.12139209961E+03 -0.18515051677E+03 -0.19421791580E+03  0.30529183260E+03  0.80409878302E+02 0.  0.
          5    1    5    5  501    0  0.30366657721E+02  0.37039267774E+01 -0.27764307856E+02  0.41578837952E+02  0.47000000000E+01 0. -1.
        -11    1    6    6    0    0 -0.44449552224E+02 -0.10736779936E+03 -0.14363561168E+03  0.18475604449E+03  0.00000000000E+00 0.  1.
         12    1    6    6    0    0 -0.76942547386E+02 -0.77782717417E+02 -0.50582304114E+02  0.12053578812E+03  0.00000000000E+00 0. -1.
         -5    1    3    3    0  503  0.65569464568E+02  0.31820401986E+02 -0.12941440089E+03  0.14860036952E+03  0.47000000000E+01 0.  1.
         11    1    4    4    0    0 -0.17549052654E+02  0.15644606998E+02 -0.35101200530E+02  0.42247097602E+02  0.00000000000E+00 0. -1.
        -12    1    4    4    0    0  0.43005029975E+02  0.13398158101E+03 -0.48564583609E+02  0.14885904553E+03  0.00000000000E+00 0.  1.
</event>
<event>
12    1  0.8271773E-002  0.1812656E+03  0.7818608E-02  0.1166800E+00
         21   -1    0    0  501  502  0.00000000000E+00  0.00000000000E+00  0.43711927538E+03  0.43711927538E+03  0.00000000000E+00 0. -1.
         21   -1    0    0  502  503 -0.00000000000E+00 -0.00000000000E+00 -0.94357876299E+02  0.94357876299E+02  0.00000000000E+00 0. -1.
         -6    2    1    2    0  503  0.95764215353E+01  0.53076938619E+02  0.50044778279E+02  0.18718040491E+03  0.17211378471E+03 0.  0.
        -24    2    3    3    0    0 -0.26148011394E+02  0.87736538533E+01  0.72753177472E+02  0.12572491254E+03  0.98757446798E+02 0.  0.
          6    2    1    2  501    0 -0.95764215353E+01 -0.53076938619E+02  0.29271662081E+03  0.34429674677E+03  0.17305594610E+03 0.  0.
         24    2    5    5    0    0  0.48822898439E+02 -0.49279324098E+02  0.10688134283E+03  0.14940769374E+03  0.78018653597E+02 0.  0.
          5    1    5    5  501    0 -0.58399319974E+02 -0.37976145216E+01  0.18583527798E+03  0.19488905303E+03  0.47000000000E+01 0. -1.
        -13    1    6    6    0    0 -0.43918130916E+01 -0.35327056241E+02  0.83600417570E+01  0.36567461261E+02  0.00000000000E+00 0.  1.
         14    1    6    6    0    0  0.53214711531E+02 -0.13952267856E+02  0.98521301070E+02  0.11284023248E+03  0.00000000000E+00 0. -1.
         -5    1    3    3    0  503  0.35724432929E+02  0.44303284766E+02 -0.22708399193E+02  0.61455492375E+02  0.47000000000E+01 0.  1.
         13    1    4    4    0    0 -0.36961566807E+02 -0.37267856989E+02  0.52621644341E+02  0.74324208966E+02  0.00000000000E+00 0. -1.
        -14    1    4    4    0    0  0.10813555413E+02  0.46041510842E+02  0.20131533132E+02  0.51400703570E+02  0.00000000000E+00 0.  1.
</event>
<event>
12    1  0.8271773E-002  0.2150929E+03  0.7818608E-02  0.1137691E+00
         21   -1    0    0  503  502  0.00000000000E+00  0.00000000000E+00  0.12646780144E+03  0.12646780144E+03  0.00000000000E+00 0.  1.
         21   -1    0    0  501  503 -0.00000000000E+00 -0.00000000000E+00 -0.38775926793E+03  0.38775926793E+03  0.00000000000E+00 0.  1.
          6    2    1    2  501    0  0.28525205141E+02 -0.12620526609E+03 -0.19310805848E+03  0.28906001611E+03  0.17182407906E+03 0.  0.
         24    2    3    3    0    0 -0.43661002717E+02 -0.95803899766E+02 -0.12756199091E+03  0.18681781027E+03  0.86857137548E+02 0.  0.
         -6    2    1    2    0  502 -0.28525205141E+02  0.12620526609E+03 -0.68183408010E+02  0.22516705326E+03  0.17120095861E+03 0.  0.
        -24    2    5    5    0    0 -0.31315358171E+02  0.12884619470E+03  0.15644856023E+01  0.15515549621E+03  0.80553006408E+02 0.  0.
          5    1    3    3  501    0  0.72186207858E+02 -0.30401366326E+02 -0.65546067570E+02  0.10224220583E+03  0.47000000000E+01 0. -1.
        -13    1    4    4    0    0  0.76252809610E+01 -0.42886819346E+02 -0.50510990890E+01  0.43851314522E+02  0.00000000000E+00 0.  1.
         14    1    4    4    0    0 -0.51286283677E+02 -0.52917080421E+02 -0.12251089182E+03  0.14296649575E+03  0.00000000000E+00 0. -1.
         -5    1    5    5    0  502  0.27901530299E+01 -0.26409286108E+01 -0.69747893612E+02  0.70011557054E+02  0.47000000000E+01 0.  1.
         11    1    6    6    0    0 -0.37697389178E+02  0.15165259901E+02  0.66887616040E+01  0.41180308286E+02  0.00000000000E+00 0. -1.
        -12    1    6    6    0    0  0.63820310072E+01  0.11368093480E+03 -0.51242760018E+01  0.11397518792E+03  0.00000000000E+00 0.  1.
</event>
<event>
12    1  0.8271773E-002  0.1932689E+03  0.7818608E-02  0.1155886E+00
         21   -1    0    0  503  502  0.00000000000E+00  0.00000000000E+00  0.11605086773E+02  0.11605086773E+02  0.00000000000E+00 0. -1.
         21   -1    0    0  501  503 -0.00000000000E+00 -0.00000000000E+00 -0.32210396024E+04  0.32210396024E+04  0.00000000000E+00 0. -1.
          6    2    1    2  501    0 -0.76825119135E+02 -0.36102700101E+02 -0.14605085862E+04  0.14732407147E+04  0.17362997851E+03 0.  0.
         24    2    3    3    0    0 -0.72566152505E+02 -0.39420807119E+02 -0.14610148182E+04  0.14660647199E+04  0.89227896107E+02 0.  0.
         -6    2    1    2    0  502  0.76825119135E+02  0.36102700101E+02 -0.17489259295E+04  0.17594039745E+04  0.17191548679E+03 0.  0.
        -24    2    5    5    0    0  0.57146254113E+02 -0.30402058614E+02 -0.63050646248E+03  0.63882629537E+03  0.79816394986E+02 0.  0.
          5    1    3    3  501    0 -0.42589666303E+01  0.33181070182E+01  0.50623203854E+00  0.71759948313E+01  0.47000000000E+01 0. -1.
        -11    1    4    4    0    0 -0.70705291657E+02 -0.48028018016E+02 -0.72853755449E+03  0.73353452345E+03  0.00000000000E+00 0.  1.
         12    1    4    4    0    0 -0.18608608478E+01  0.86072108973E+01 -0.73247726371E+03  0.73253019647E+03  0.00000000000E+00 0. -1.
         -5    1    5    5    0  502  0.19678865022E+02  0.66504758715E+02 -0.11184194670E+04  0.11205776791E+04  0.47000000000E+01 0.  1.
         11    1    6    6    0    0  0.77314865279E+02 -0.27330679087E+02 -0.52496256576E+03  0.53132875874E+03  0.00000000000E+00 0. -1.
        -12    1    6    6    0    0 -0.20168611167E+02 -0.30713795268E+01 -0.10554389672E+03  0.10749753664E+03  0.00000000000E+00 0.  1.
</event>
<event>
12    1  0.8271773E-002  0.2686875E+03  0.7818608E-02  0.1102186E+00
         21   -1    0    0  501  502  0.00000000000E+00  0.00000000000E+00  0.23080705403E+03  0.23080705403E+03  0.00000000000E+00 0. -1.
         21   -1    0    0  502  503 -0.00000000000E+00 -0.00000000000E+00 -0.32040267913E+03  0.32040267913E+03  0.00000000000E+00 0. -1.
         -6    2    1    2    0  503 -0.10107125679E+03 -0.17830328510E+03  0.91725452265E+00  0.26868902037E+03  0.17373971304E+03 0.  0.
        -24    2    3    3    0    0 -0.62093482586E+02 -0.17144966103E+03 -0.49361180766E+02  0.20453101153E+03  0.78395291067E+02 0.  0.
          6    2    1    2  501    0  0.10107125679E+03  0.17830328510E+03 -0.90512879627E+02  0.28252071279E+03  0.17209855128E+03 0.  0.
         24    2    5    5    0    0  0.18794073448E+02  0.23164697483E+02 -0.48134261963E+00  0.85124451626E+02  0.79725279351E+02 0.  0.
          5    1    5    5  501    0  0.82277183337E+02  0.15513858761E+03 -0.90031537008E+02  0.19739626116E+03  0.47000000000E+01 0. -1.
        -13    1    6    6    0    0  0.12787789163E+02 -0.29319678118E+02  0.33316633929E+01  0.32160084850E+02  0.00000000000E+00 0.  1.
         14    1    6    6    0    0  0.60062842856E+01  0.52484375601E+02 -0.38130060125E+01  0.52964366776E+02  0.00000000000E+00 0. -1.
         -5    1    3    3    0  503 -0.38977774200E+02 -0.68536240656E+01  0.50278435288E+02  0.64158008849E+02  0.47000000000E+01 0.  1.
         13    1    4    4    0    0 -0.65666495947E+02 -0.66783992676E+02 -0.20085935786E+02  0.95789535880E+02  0.00000000000E+00 0. -1.
        -14    1    4    4    0    0  0.35730133617E+01 -0.10466566836E+03 -0.29275244980E+02  0.10874147565E+03  0.00000000000E+00 0.  1.
</event>
<event>
12    1  0.8271773E-002  0.2003938E+03  0.7818608E-02  0.1149922E+00
         21   -1    0    0  501  502  0.00000000000E+00  0.00000000000E+00  0.42722964666E+03  0.42722964666E+03  0.00000000000E+00 0. -1.
         21   -1    0    0  502  503 -0.00000000000E+00 -0.00000000000E+00 -0.10312121461E+03  0.10312121461E+03  0.00000000000E+00 0. -1.
         -6    2    1    2    0  503 -0.32225879350E+01  0.10032887913E+03  0.77507815580E+02  0.21259382412E+03  0.17062357258E+03 0.  0.
        -24    2    3    3    0    0 -0.52628015162E+01 -0.14250780711E+02  0.16835868966E+02  0.82840843322E+02  0.79676703043E+02 0.  0.
          6    2    1    2  501    0  0.32225879350E+01 -0.10032887913E+03  0.24660061647E+03  0.31775703714E+03  0.17343990761E+03 0.  0.
         24    2    5    5    0    0  0.67313437563E+02 -0.80842797264E+02  0.15209175293E+03  0.20182015914E+03  0.80825853423E+02 0.  0.
          5    1    5    5  501    0 -0.64090849628E+02 -0.19486081864E+02  0.94508863546E+02  0.11593687800E+03  0.47000000000E+01 0. -1.
        -11    1    6    6    0    0 -0.10310489877E+02  0.41092627443E+00  0.46466561335E+02  0.47598491407E+02  0.00000000000E+00 0.  1.
         12    1    6    6    0    0  0.77623927440E+02 -0.81253723539E+02  0.10562519159E+03  0.15422166773E+03  0.00000000000E+00 0. -1.
         -5    1    3    3    0  503  0.20402135812E+01  0.11457965984E+03  0.60671946613E+02  0.12975298080E+03  0.47000000000E+01 0.  1.
         13    1    4    4    0    0 -0.40120177358E+02 -0.24559612802E+01 -0.42659576229E+01  0.40421018931E+02  0.00000000000E+00 0. -1.
        -14    1    4    4    0    0  0.34857375841E+02 -0.11794819430E+02  0.21101826589E+02  0.42419824391E+02  0.00000000000E+00 0.  1.
</event>
<event>
12    1  0.8271773E-002  0.1743374E+03  0.7818608E-02  0.1173526E+00
         21   -1    0    0  503  502  0.00000000000E+00  0.00000000000E+00  0.22076796448E+03  0.22076796448E+03  0.00000000000E+00 0. -1.
         21   -1    0    0  501  503 -0.00000000000E+00 -0.00000000000E+00 -0.14199718977E+03  0.14199718977E+03  0.00000000000E+00 0. -1.
          6    2    1    2  501    0 -0.12167017084E+02 -0.15137093270E+02  0.72520971522E+02  0.18881954160E+03  0.17325230181E+03 0.  0.
         24    2    3    3    0    0 -0.37429676378E+02  0.29657340442E+02 -0.73226435032E+01  0.93730971800E+02  0.80320205744E+02 0.  0.
         -6    2    1    2    0  502  0.12167017084E+02  0.15137093270E+02  0.62498031918E+01  0.17394561266E+03  0.17274503821E+03 0.  0.
        -24    2    5    5    0    0 -0.20233259949E+02 -0.39789472819E+02  0.42073275911E+02  0.10065088698E+03  0.79798831750E+02 0.  0.
          5    1    3    3  501    0  0.25262659295E+02 -0.44794433712E+02  0.79843615025E+02  0.95088569799E+02  0.47000000000E+01 0. -1.
        -13    1    4    4    0    0 -0.29168120161E+02 -0.22448188762E+02 -0.16233691132E+02  0.40227268614E+02  0.00000000000E+00 0.  1.
         14    1    4    4    0    0 -0.82615562176E+01  0.52105529203E+02  0.89110476293E+01  0.53503703185E+02  0.00000000000E+00 0. -1.
         -5    1    5    5    0  502  0.32400277032E+02  0.54926566089E+02 -0.35823472719E+02  0.73294725675E+02  0.47000000000E+01 0.  1.
         11    1    6    6    0    0 -0.49185658403E+02 -0.10610533186E+02  0.23998364181E+02  0.55747052751E+02  0.00000000000E+00 0. -1.
        -12    1    6    6    0    0  0.28952398455E+02 -0.29178939633E+02  0.18074911730E+02  0.44903834229E+02  0.00000000000E+00 0.  1.
</event>
<event>
12    1  0.8271773E-002  0.1859879E+03  0.7818608E-02  0.1162270E+00
         21   -1    0    0  503  502  0.00000000000E+00  0.00000000000E+00  0.56852053748E+03  0.56852053748E+03  0.00000000000E+00 0.  1.
         21   -1    0    0  501  503 -0.00000000000E+00 -0.00000000000E+00 -0.68383131938E+02  0.68383131938E+02  0.00000000000E+00 0.  1.
          6    2    1    2  501    0  0.42218443198E+02 -0.55743876027E+02  0.14332824278E+03  0.23480731237E+03  0.17234184664E+03 0.  0.
         24    2    3    3    0    0 -0.16787939755E+02 -0.88065843631E+01  0.85103501930E+01  0.80266648659E+02  0.77530110132E+02 0.  0.
         -6    2    1    2    0  502 -0.42218443198E+02  0.55743876027E+02  0.35680916276E+03  0.40209635705E+03  0.17169427790E+03 0.  0.
        -24    2    5    5    0    0  0.20461899352E+02  0.15980407813E+02  0.81876077877E+02  0.11728018842E+03  0.79855417533E+02 0.  0.
          5    1    3    3  501    0  0.59006382954E+02 -0.46937291664E+02  0.13481789258E+03  0.15454066371E+03  0.47000000000E+01 0. -1.
        -11    1    4    4    0    0 -0.10949142502E+02 -0.36599668156E+02 -0.17257236142E+02  0.41919346725E+02  0.00000000000E+00 0.  1.
         12    1    4    4    0    0 -0.58387972536E+01  0.27793083792E+02  0.25767586335E+02  0.38347301933E+02  0.00000000000E+00 0. -1.
         -5    1    5    5    0  502 -0.62680342550E+02  0.39763468214E+02  0.27493308489E+03  0.28481616863E+03  0.47000000000E+01 0.  1.
         13    1    6    6    0    0 -0.25074837847E+02 -0.40311383783E+00  0.37175546143E+01  0.25352124293E+02  0.00000000000E+00 0. -1.
        -14    1    6    6    0    0  0.45536737199E+02  0.16383521651E+02  0.78158523263E+02  0.91928064132E+02  0.00000000000E+00 0.  1.
</event>
<event>
12    1  0.8271773E-002  0.3102492E+03  0.7818608E-02  0.1080278E+00
         21   -1    0    0  503  502  0.00000000000E+00  0.00000000000E+00  0.14912778952E+03  0.14912778952E+03  0.00000000000E+00 0.  1.
         21   -1    0    0  501  503 -0.00000000000E+00 -0.00000000000E+00 -0.88795196560E+03  0.88795196560E+03  0.00000000000E+00 0.  1.
          6    2    1    2  501    0 -0.24796461813E+03  0.71600942431E+02 -0.64108561193E+03  0.71221155434E+03  0.17216674912E+03 0.  0.
         24    2    3    3    0    0 -0.21849584440E+03  0.11194747039E+03 -0.55823084127E+03  0.61534435677E+03  0.82184762050E+02 0.  0.
         -6    2    1    2    0  502  0.24796461813E+03 -0.71600942431E+02 -0.97738564152E+02  0.32486820078E+03  0.17138662187E+03 0.  0.
        -24    2    5    5    0    0  0.26186804466E+03 -0.44266283107E+02 -0.77389659233E+02  0.28776487477E+03  0.79278541633E+02 0.  0.
          5    1    3    3  501    0 -0.29468773730E+02 -0.40346527960E+02 -0.82854770659E+02  0.96867197567E+02  0.47000000000E+01 0. -1.
        -11    1    4    4    0    0 -0.14409880016E+03  0.30289229634E+02 -0.28953315563E+03  0.32482510656E+03  0.00000000000E+00 0.  1.
         12    1    4    4    0    0 -0.74397044235E+02  0.81658240757E+02 -0.26869768564E+03  0.29051925021E+03  0.00000000000E+00 0. -1.
         -5    1    5    5    0  502 -0.13903426527E+02 -0.27334659325E+02 -0.20348904919E+02  0.37103326010E+02  0.47000000000E+01 0.  1.
         11    1    6    6    0    0  0.21740548945E+02 -0.11493410826E+02  0.14531961334E+02  0.28564451002E+02  0.00000000000E+00 0. -1.
        -12    1    6    6    0    0  0.24012749571E+03 -0.32772872281E+02 -0.91921620568E+02  0.25920042377E+03  0.00000000000E+00 0.  1.
</event>
<event>
12    1  0.8271773E-002  0.1851153E+03  0.7818608E-02  0.1163579E+00
         21   -1    0    0  503  502  0.00000000000E+00  0.00000000000E+00  0.42951221254E+02  0.42951221254E+02  0.00000000000E+00 0.  1.
         21   -1    0    0  501  503 -0.00000000000E+00 -0.00000000000E+00 -0.11782084780E+04  0.11782084780E+04  0.00000000000E+00 0.  1.
          6    2    1    2  501    0 -0.62682610816E+02 -0.24394209489E+02 -0.91702248090E+03  0.93498826745E+03  0.16955424690E+03 0.  0.
         24    2    3    3    0    0 -0.97707707358E+02 -0.53496274180E+02 -0.72102528132E+03  0.73371561705E+03  0.77797833971E+02 0.  0.
         -6    2    1    2    0  502  0.62682610816E+02  0.24394209489E+02 -0.21823477589E+03  0.28617143185E+03  0.17246299267E+03 0.  0.
        -24    2    5    5    0    0  0.16481480851E+02 -0.17593613466E+02 -0.20624718497E+03  0.22242730253E+03  0.79717182309E+02 0.  0.
          5    1    3    3  501    0  0.35025096542E+02  0.29102064691E+02 -0.19599719958E+03  0.20127265040E+03  0.47000000000E+01 0. -1.
        -13    1    4    4    0    0 -0.58418479861E+02 -0.24360264726E+02 -0.59773630442E+03  0.60107805725E+03  0.00000000000E+00 0.  1.
         14    1    4    4    0    0 -0.39289227497E+02 -0.29136009454E+02 -0.12328897691E+03  0.13263755980E+03  0.00000000000E+00 0. -1.
         -5    1    5    5    0  502  0.46201129965E+02  0.41987822955E+02 -0.11987590920E+02  0.63744129319E+02  0.47000000000E+01 0.  1.
         13    1    6    6    0    0  0.30310823728E+01  0.31791310699E+02 -0.86110351027E+02  0.91841534451E+02  0.00000000000E+00 0. -1.
        -14    1    6    6    0    0  0.13450398478E+02 -0.49384924165E+02 -0.12013683395E+03  0.13058576808E+03  0.00000000000E+00 0.  1.
</event>
<event>
12    1  0.8271773E-002  0.1737424E+03  0.7818608E-02  0.1174678E+00
         21   -1    0    0  501  502  0.00000000000E+00  0.00000000000E+00  0.43023271658E+02  0.43023271658E+02  0.00000000000E+00 0.  1.
         21   -1    0    0  502  503 -0.00000000000E+00 -0.00000000000E+00 -0.69257154130E+03  0.69257154130E+03  0.00000000000E+00 0.  1.
         -6    2    1    2    0  503 -0.31893411576E+01 -0.28978507112E+02 -0.34005074637E+03  0.38066502391E+03  0.16858654912E+03 0.  0.
        -24    2    3    3    0    0 -0.25645757186E+02 -0.79395185160E+02 -0.23751765453E+03  0.26412637380E+03  0.79917487659E+02 0.  0.
          6    2    1    2  501    0  0.31893411576E+01  0.28978507112E+02 -0.30949752327E+03  0.35492978906E+03  0.17127904856E+03 0.  0.
         24    2    5    5    0    0 -0.56444639099E+02 -0.20183054973E+02 -0.15338802595E+03  0.18067326567E+03  0.74307398232E+02 0.  0.
          5    1    5    5  501    0  0.59633980256E+02  0.49161562084E+02 -0.15610949732E+03  0.17425652338E+03  0.47000000000E+01 0. -1.
        -13    1    6    6    0    0  0.38096487646E+01  0.13269443010E+02 -0.75160313050E+02  0.76417695590E+02  0.00000000000E+00 0.  1.
         14    1    6    6    0    0 -0.60254287863E+02 -0.33452497983E+02 -0.78227712903E+02  0.10425557008E+03  0.00000000000E+00 0. -1.
         -5    1    3    3    0  503  0.22456416029E+02  0.50416678048E+02 -0.10253309184E+03  0.11653865011E+03  0.47000000000E+01 0.  1.
         13    1    4    4    0    0 -0.53406812983E+02 -0.57655370616E+02 -0.14182713615E+03  0.16214612540E+03  0.00000000000E+00 0. -1.
        -14    1    4    4    0    0  0.27761055796E+02 -0.21739814544E+02 -0.95690518377E+02  0.10198024839E+03  0.00000000000E+00 0.  1.
</event>
<event>
12    1  0.8271773E-002  0.2827320E+03  0.7818608E-02  0.1094491E+00
         21   -1    0    0  501  502  0.00000000000E+00  0.00000000000E+00  0.20218167577E+03  0.20218167577E+03  0.00000000000E+00 0. -1.
         21   -1    0    0  502  503 -0.00000000000E+00 -0.00000000000E+00 -0.10814662287E+04  0.10814662287E+04  0.00000000000E+00 0.  1.
         -6    2    1    2    0  503  0.29021385022E+02 -0.22114333067E+03 -0.95135028433E+03  0.99187594256E+03  0.17030533889E+03 0.  0.
        -24    2    3    3    0    0  0.74628626722E+02 -0.13060189856E+03 -0.46625328137E+03  0.49627634238E+03  0.79194682787E+02 0.  0.
          6    2    1    2  501    0 -0.29021385022E+02  0.22114333067E+03  0.72065731416E+02  0.29177196189E+03  0.17375498442E+03 0.  0.
         24    2    5    5    0    0 -0.17754466521E+02  0.52120222221E+01 -0.13676364785E+02  0.59119709625E+02  0.54458340549E+02 0.  0.
          5    1    5    5  501    0 -0.11266918501E+02  0.21593130845E+03  0.85742096202E+02  0.23265225226E+03  0.47000000000E+01 0. -1.
        -13    1    6    6    0    0 -0.72478253002E+01  0.29663763341E+01 -0.34666286189E+02  0.35539861540E+02  0.00000000000E+00 0.  1.
         14    1    6    6    0    0 -0.10506641221E+02  0.22456458880E+01  0.20989921404E+02  0.23579848086E+02  0.00000000000E+00 0. -1.
         -5    1    3    3    0  503 -0.45607241700E+02 -0.90541432107E+02 -0.48509700296E+03  0.49559960019E+03  0.47000000000E+01 0.  1.
         11    1    4    4    0    0  0.46899063899E+01  0.10690320090E+02 -0.22471276011E+02  0.25322646211E+02  0.00000000000E+00 0. -1.
        -12    1    4    4    0    0  0.69938720332E+02 -0.14129221865E+03 -0.44378200536E+03  0.47095369616E+03  0.00000000000E+00 0.  1.
</event>
<event>
12    1  0.8271773E-002  0.1935347E+03  0.7818608E-02  0.1155353E+00
         21   -1    0    0  501  502  0.00000000000E+00  0.00000000000E+00  0.62918015023E+03  0.62918015023E+03  0.00000000000E+00 0. -1.
         21   -1    0    0  502  503 -0.00000000000E+00 -0.00000000000E+00 -0.61509849330E+02  0.61509849330E+02  0.00000000000E+00 0. -1.
         -6    2    1    2    0  503 -0.23207473561E+02 -0.79538787953E+02  0.22086164849E+03  0.29353520042E+03  0.17469413412E+03 0.  0.
        -24    2    3    3    0    0  0.19173451808E+02 -0.69364007101E+02  0.53438132051E+02  0.12046760421E+03  0.80484923883E+02 0.  0.
          6    2    1    2  501    0  0.23207473561E+02  0.79538787953E+02  0.34680865241E+03  0.39715479914E+03  0.17490193673E+03 0.  0.
         24    2    5    5    0    0  0.56325533319E+01 -0.90864914071E+01  0.72857578711E+02  0.10865072855E+03  0.79890325174E+02 0.  0.
          5    1    5    5  501    0  0.17574920229E+02  0.88625279360E+02  0.27395107370E+03  0.28850407058E+03  0.47000000000E+01 0. -1.
        -13    1    6    6    0    0 -0.25560861665E+01 -0.24305875788E+02  0.84400608386E+02  0.87867922875E+02  0.00000000000E+00 0.  1.
         14    1    6    6    0    0  0.81886394984E+01  0.15219384381E+02 -0.11543029675E+02  0.20782805678E+02  0.00000000000E+00 0. -1.
         -5    1    3    3    0  503 -0.42380925369E+02 -0.10174780852E+02  0.16742351644E+03  0.17306759621E+03  0.47000000000E+01 0.  1.
         11    1    4    4    0    0 -0.25534197127E+02 -0.29556949690E+02  0.45685525116E+02  0.60106369904E+02  0.00000000000E+00 0. -1.
        -12    1    4    4    0    0  0.44707648935E+02 -0.39807057412E+02  0.77526069348E+01  0.60361234310E+02  0.00000000000E+00 0.  1.
</event>
<event>
12    1  0.8271773E-002  0.2279169E+03  0.7818608E-02  0.1128364E+00
         21   -1    0    0  501  502  0.00000000000E+00  0.00000000000E+00  0.13856194000E+04  0.13856194000E+04  0.00000000000E+00 0.  1.
         21   -1    0    0  502  503 -0.00000000000E+00 -0.00000000000E+00 -0.92200993547E+02  0.92200993547E+02  0.00000000000E+00 0.  1.
         -6    2    1    2    0  503  0.14517994070E+03  0.30687391945E+02  0.75521224730E+02  0.23878057340E+03  0.17115424517E+03 0.  0.
        -24    2    3    3    0    0  0.73954328200E+02  0.83947590223E+02  0.53711616357E+02  0.14708823121E+03  0.78952957301E+02 0.  0.
          6    2    1    2  501    0 -0.14517994070E+03 -0.30687391945E+02  0.12178971817E+04  0.12390398202E+04  0.17299479607E+03 0.  0.
         24    2    5    5    0    0 -0.76339363688E+02  0.42360691539E+02  0.47962439811E+03  0.49396006565E+03  0.79591812133E+02 0.  0.
          5    1    5    5  501    0 -0.68840577016E+02 -0.73048083484E+02  0.73827278364E+03  0.74507975452E+03  0.47000000000E+01 0. -1.
        -11    1    6    6    0    0 -0.55198763570E+02  0.47429397864E+01  0.39601979343E+03  0.39987632559E+03  0.00000000000E+00 0.  1.
         12    1    6    6    0    0 -0.21140600118E+02  0.37617751752E+02  0.83604604674E+02  0.94083740056E+02  0.00000000000E+00 0. -1.
         -5    1    3    3    0  503  0.71225612504E+02 -0.53260198278E+02  0.21809608374E+02  0.91692342180E+02  0.47000000000E+01 0.  1.
         11    1    4    4    0    0 -0.16187402520E+02  0.51220856386E+01  0.94003206948E+01  0.19407055181E+02  0.00000000000E+00 0. -1.
        -12    1    4    4    0    0  0.90141730720E+02  0.78825504584E+02  0.44311295662E+02  0.12768117603E+03  0.00000000000E+00 0.  1.
</event>
<event>
12    1  0.8271773E-002  0.2765442E+03  0.7818608E-02  0.1098213E+00
         21   -1    0    0  501  502  0.00000000000E+00  0.00000000000E+00  0.22676774753E+03  0.22676774753E+03  0.00000000000E+00 0.  1.
         21   -1    0    0  502  503 -0.00000000000E+00 -0.00000000000E+00 -0.34049102387E+03  0.34049102387E+03  0.00000000000E+00 0. -1.
         -6    2    1    2    0  503 -0.19879840577E+03 -0.68374088105E+02 -0.10159000897E+03  0.29044855664E+03  0.17275419553E+03 0.  0.
        -24    2    3    3    0    0 -0.64959548521E+02 -0.73295554969E+02 -0.88546431421E+02  0.15580352160E+03  0.82718108684E+02 0.  0.
          6    2    1    2  501    0  0.19879840577E+03  0.68374088105E+02 -0.12133267368E+02  0.27681021475E+03  0.17966874173E+03 0.  0.
         24    2    5    5    0    0  0.17759262437E+03  0.61797437824E+02  0.49948355859E+02  0.21071062749E+03  0.80907766828E+02 0.  0.
          5    1    5    5  501    0  0.21205781399E+02  0.65766502811E+01 -0.62081623227E+02  0.66099587262E+02  0.47000000000E+01 0. -1.
        -13    1    6    6    0    0  0.12315753677E+03  0.49188220097E+02 -0.44992116317E+01  0.13269326571E+03  0.00000000000E+00 0.  1.
         14    1    6    6    0    0  0.54435087595E+02  0.12609217727E+02  0.54447567491E+02  0.78017361778E+02  0.00000000000E+00 0. -1.
         -5    1    3    3    0  503 -0.13383885725E+03  0.49214668642E+01 -0.13043577549E+02  0.13464503504E+03  0.47000000000E+01 0.  1.
         13    1    4    4    0    0 -0.80608976640E+02 -0.37618868483E+02 -0.56736535914E+02  0.10550839250E+03  0.00000000000E+00 0. -1.
        -14    1    4    4    0    0  0.15649428119E+02 -0.35676686486E+02 -0.31809895507E+02  0.50295129101E+02  0.00000000000E+00 0.  1.
</event>
<event>
12    1  0.8271773E-002  0.2028814E+03  0.7818608E-02  0.1147342E+00
         21   -1    0    0  501  502  0.00000000000E+00  0.00000000000E+00  0.79124741759E+02  0.79124741759E+02  0.00000000000E+00 0.  1.
         21   -1    0    0  502  503 -0.00000000000E+00 -0.00000000000E+00 -0.55427111033E+03  0.55427111033E+03  0.00000000000E+00 0.  1.
         -6    2    1    2    0  503 -0.64198446466E+02 -0.86307135728E+02 -0.31628087112E+03  0.37575850246E+03  0.17201889584E+03 0.  0.
        -24    2    3    3    0    0  0.27348493221E+02 -0.58644193518E+02 -0.19992260662E+03  0.22506870103E+03  0.80621275289E+02 0.  0.
          6    2    1    2  501    0  0.64198446466E+02  0.86307135728E+02 -0.15886549745E+03  0.25763734963E+03  0.17195463192E+03 0.  0.
         24    2    5    5    0    0 -0.26921366479E+02  0.21525835610E+02 -0.10052110222E+03  0.13144069512E+03  0.77356594870E+02 0.  0.
          5    1    5    5  501    0  0.91119812945E+02  0.64781300119E+02 -0.58344395237E+02  0.12619665452E+03  0.47000000000E+01 0. -1.
        -11    1    6    6    0    0 -0.41357373434E+02  0.42443210268E+02 -0.71377030211E+02  0.92771433518E+02  0.00000000000E+00 0.  1.
         12    1    6    6    0    0  0.14436006956E+02 -0.20917374658E+02 -0.29144072005E+02  0.38669261597E+02  0.00000000000E+00 0. -1.
         -5    1    3    3    0  503 -0.91546939687E+02 -0.27662942210E+02 -0.11635826450E+03  0.15068980143E+03  0.47000000000E+01 0.  1.
         11    1    4    4    0    0  0.43507208760E+02 -0.47094790909E+02 -0.75411087713E+02  0.98982971742E+02  0.00000000000E+00 0. -1.
        -12    1    4    4    0    0 -0.16158715539E+02 -0.11549402609E+02 -0.12451151891E+03  0.12608572929E+03  0.00000000000E+00 0.  1.
</event>
<event>
12    1  0.8271773E-002  0.1820225E+03  0.7818608E-02  0.1166206E+00
         21   -1    0    0  501  502  0.00000000000E+00  0.00000000000E+00  0.22543106402E+03  0.22543106402E+03  0.00000000000E+00 0.  1.
         21   -1    0    0  502  503 -0.00000000000E+00 -0.00000000000E+00 -0.14893574554E+03  0.14893574554E+03  0.00000000000E+00 0. -1.
         -6    2    1    2    0  503  0.83551787447E+01  0.58672665789E+02  0.11273813030E+02  0.18237132259E+03  0.17210435706E+03 0.  0.
        -24    2    3    3    0    0  0.52377050272E+02 -0.50985562488E-01 -0.26709308514E+02  0.99599347121E+02  0.80394556972E+02 0.  0.
          6    2    1    2  501    0 -0.83551787447E+01 -0.58672665789E+02  0.65221505450E+02  0.19199548697E+03  0.17057588200E+03 0.  0.
         24    2    5    5    0    0  0.48203966193E+02  0.94714468128E+00 -0.78958981250E+01  0.81896879428E+02  0.65728488595E+02 0.  0.
          5    1    5    5  501    0 -0.56559144938E+02 -0.59619810470E+02  0.73117403575E+02  0.11009860754E+03  0.47000000000E+01 0. -1.
        -11    1    6    6    0    0  0.53443753734E+02 -0.10090888071E+02  0.14585327927E+02  0.56309791564E+02  0.00000000000E+00 0.  1.
         12    1    6    6    0    0 -0.52397875411E+01  0.11038032752E+02 -0.22481226052E+02  0.25587087863E+02  0.00000000000E+00 0. -1.
         -5    1    3    3    0  503 -0.44021871528E+02  0.58723651351E+02  0.37983121544E+02  0.82771975469E+02  0.47000000000E+01 0.  1.
         11    1    4    4    0    0 -0.10837569112E+01  0.32517296835E+02 -0.15360253797E+02  0.35978973293E+02  0.00000000000E+00 0. -1.
        -12    1    4    4    0    0  0.53460807184E+02 -0.32568282397E+02 -0.11349054717E+02  0.63620373828E+02  0.00000000000E+00 0.  1.
</event>
<event>
12    1  0.8271773E-002  0.1756991E+03  0.7818608E-02  0.1172542E+00
         21   -1    0    0  501  502  0.00000000000E+00  0.00000000000E+00  0.53749352993E+02  0.53749352993E+02  0.00000000000E+00 0. -1.
         21   -1    0    0  502  503 -0.00000000000E+00 -0.00000000000E+00 -0.14644128568E+04  0.14644128568E+04  0.00000000000E+00 0. -1.
         -6    2    1    2    0  503 -0.16010143148E+02 -0.28944163479E+02 -0.13009074588E+04  0.13127187015E+04  0.17255747981E+03 0.  0.
        -24    2    3    3    0    0  0.39464678168E+02 -0.39826695160E+02 -0.49652199617E+03  0.50633545040E+03  0.81840510636E+02 0.  0.
          6    2    1    2  501    0  0.16010143148E+02  0.28944163479E+02 -0.10975604504E+03  0.20544350824E+03  0.17048916791E+03 0.  0.
         24    2    5    5    0    0  0.47525690280E+02 -0.33154241316E+02 -0.40224798734E+02  0.10692383609E+03  0.80354074796E+02 0.  0.
          5    1    5    5  501    0 -0.31515547133E+02  0.62098404795E+02 -0.69531246306E+02  0.98519672157E+02  0.47000000000E+01 0. -1.
        -13    1    6    6    0    0  0.36568065550E+02 -0.64809212160E+01 -0.60977216012E+02  0.71396404884E+02  0.00000000000E+00 0.  1.
         14    1    6    6    0    0  0.10957624731E+02 -0.26673320100E+02  0.20752417278E+02  0.35527431201E+02  0.00000000000E+00 0. -1.
         -5    1    3    3    0  503 -0.55474821316E+02  0.10882531680E+02 -0.80438546259E+03  0.80638325114E+03  0.47000000000E+01 0.  1.
         11    1    4    4    0    0  0.19651070906E+02 -0.63825523331E+02 -0.29819820412E+03  0.30558473614E+03  0.00000000000E+00 0. -1.
        -12    1    4    4    0    0  0.19813607262E+02  0.23998828171E+02 -0.19832379204E+03  0.20075071426E+03  0.00000000000E+00 0.  1.
</event>
<event>
12    1  0.8271773E-002  0.1997445E+03  0.7818608E-02  0.1150185E+00
         21   -1    0    0  501  502  0.00000000000E+00  0.00000000000E+00  0.20236714493E+04  0.20236714493E+04  0.00000000000E+00 0.  1.
         21   -1    0    0  502  503 -0.00000000000E+00 -0.00000000000E+00 -0.20291711369E+02  0.20291711369E+02  0.00000000000E+00 0.  1.
         -6    2    1    2    0  503 -0.98892214903E+02  0.12075252653E+02  0.11865670889E+04  0.12030822182E+04  0.17187171153E+03 0.  0.
        -24    2    3    3    0    0  0.17186581288E+01  0.44759978587E+02  0.36560996297E+03  0.37532408214E+03  0.72049372946E+02 0.  0.
          6    2    1    2  501    0  0.98892214903E+02 -0.12075252653E+02  0.81681264904E+03  0.84088094255E+03  0.17312531305E+03 0.  0.
         24    2    5    5    0    0  0.85716059350E+02  0.29924930022E+02  0.32301115401E+03  0.34509910251E+03  0.80712085036E+02 0.  0.
          5    1    5    5  501    0  0.13176155552E+02 -0.42000182675E+02  0.49380149503E+03  0.49578184004E+03  0.47000000000E+01 0. -1.
        -11    1    6    6    0    0  0.39922336034E+02  0.80295499683E+01  0.26459815159E+03  0.26771336988E+03  0.00000000000E+00 0.  1.
         12    1    6    6    0    0  0.45793723316E+02  0.21895380054E+02  0.58413002413E+02  0.77385732624E+02  0.00000000000E+00 0. -1.
         -5    1    3    3    0  503 -0.10061087303E+03 -0.32684725934E+02  0.82095712597E+03  0.82775813603E+03  0.47000000000E+01 0.  1.
         11    1    4    4    0    0  0.20088666279E+02  0.58079693080E+02  0.24438027810E+03  0.25198913783E+03  0.00000000000E+00 0. -1.
        -12    1    4    4    0    0 -0.18370008150E+02 -0.13319714493E+02  0.12122968487E+03  0.12333494430E+03  0.00000000000E+00 0.  1.
</event>
<event>
12    1  0.8271773E-002  0.1968603E+03  0.7818608E-02  0.1152436E+00
         21   -1    0    0  501  502  0.00000000000E+00  0.00000000000E+00  0.48152904020E+03  0.48152904020E+03  0.00000000000E+00 0. -1.
         21   -1    0    0  502  503 -0.00000000000E+00 -0.00000000000E+00 -0.33836952306E+03  0.33836952306E+03  0.00000000000E+00 0. -1.
         -6    2    1    2    0  503 -0.38029692658E+02 -0.86708628180E+02 -0.28634177439E+03  0.34743126008E+03  0.17248833293E+03 0.  0.
        -24    2    3    3    0    0 -0.68464893629E+02 -0.72924257038E+02 -0.28594352208E+03  0.31368872090E+03  0.81434187373E+02 0.  0.
          6    2    1    2  501    0  0.38029692658E+02  0.86708628180E+02  0.42950129153E+03  0.47246730317E+03  0.17259591367E+03 0.  0.
         24    2    5    5    0    0 -0.28409177483E+02  0.74705441304E+02  0.35130745794E+03  0.36905277048E+03  0.79968950641E+02 0.  0.
          5    1    5    5  501    0  0.66438870141E+02  0.12003186875E+02  0.78193833587E+02  0.10341453269E+03  0.47000000000E+01 0. -1.
        -11    1    6    6    0    0 -0.29022886368E+02  0.66729640852E+02  0.14169686712E+03  0.15928959493E+03  0.00000000000E+00 0.  1.
         12    1    6    6    0    0  0.61370888499E+00  0.79758004523E+01  0.20961059082E+03  0.20976317555E+03  0.00000000000E+00 0. -1.
         -5    1    3    3    0  503  0.30435200972E+02 -0.13784371142E+02 -0.39825230946E+00  0.33742539188E+02  0.47000000000E+01 0.  1.
         11    1    4    4    0    0 -0.19806099976E+02 -0.69009546997E+02 -0.22148865875E+03  0.23283432979E+03  0.00000000000E+00 0. -1.
        -12    1    4    4    0    0 -0.48658793653E+02 -0.39147100411E+01 -0.64454863335E+02  0.80854391112E+02  0.00000000000E+00 0.  1.
</event>
<event>
12    1  0.8271773E-002  0.2297381E+03  0.7818608E-02  0.1126905E+00
         21   -1    0    0  501  502  0.00000000000E+00  0.00000000000E+00  0.19712975050E+03  0.19712975050E+03  0.00000000000E+00 0. -1.
         21   -1    0    0  502  503 -0.00000000000E+00 -0.00000000000E+00 -0.31179413319E+03  0.31179413319E+03  0.00000000000E+00 0. -1.
         -6    2    1    2    0  503  0.62209267309E+02  0.13795894546E+03 -0.15350942126E+03  0.27592489396E+03  0.17224035856E+03 0.  0.
        -24    2    3    3    0    0  0.63719905715E+02  0.54813191397E+02 -0.17303801221E+02  0.11627039393E+03  0.78451708922E+02 0.  0.
          6    2    1    2  501    0 -0.62209267309E+02 -0.13795894546E+03  0.38845038570E+02  0.23299898973E+03  0.17284943918E+03 0.  0.
         24    2    5    5    0    0 -0.75652622376E+02 -0.15445601622E+03  0.63643925016E+02  0.19998457003E+03  0.79770287951E+02 0.  0.
          5    1    5    5  501    0  0.13443355067E+02  0.16497070763E+02 -0.24798886446E+02  0.33014419700E+02  0.47000000000E+01 0. -1.
        -11    1    6    6    0    0 -0.48421299633E+01 -0.36505222620E+02 -0.16953780650E+02  0.40540204482E+02  0.00000000000E+00 0.  1.
         12    1    6    6    0    0 -0.70810492413E+02 -0.11795079360E+03  0.80597705665E+02  0.15944436555E+03  0.00000000000E+00 0. -1.
         -5    1    3    3    0  503 -0.15106384054E+01  0.83145754065E+02 -0.13620562004E+03  0.15965450003E+03  0.47000000000E+01 0.  1.
         11    1    4    4    0    0  0.37955962062E+02  0.73787928812E+02 -0.12653146677E+02  0.83936974065E+02  0.00000000000E+00 0. -1.
        -12    1    4    4    0    0  0.25763943653E+02 -0.18974737415E+02 -0.46506545435E+01  0.32333419866E+02  0.00000000000E+00 0.  1.
</event>
<event>
12    1  0.8271773E-002  0.2077478E+03  0.7818608E-02  0.1143497E+00
         21   -1    0    0  501  502  0.00000000000E+00  0.00000000000E+00  0.94655261753E+02  0.94655261753E+02  0.00000000000E+00 0. -1.
         21   -1    0    0  502  503 -0.00000000000E+00 -0.00000000000E+00 -0.45948876516E+03  0.45948876516E+03  0.00000000000E+00 0. -1.
         -6    2    1    2    0  503 -0.92912183427E+02 -0.70512988063E+02 -0.15320734299E+03  0.25758919585E+03  0.17109923600E+03 0.  0.
        -24    2    3    3    0    0 -0.25012300603E+02 -0.89601300738E+02 -0.13960006947E+03  0.18560304677E+03  0.79412236439E+02 0.  0.
          6    2    1    2  501    0  0.92912183427E+02  0.70512988063E+02 -0.21162616042E+03  0.29655483106E+03  0.17191387593E+03 0.  0.
         24    2    5    5    0    0 -0.11990677212E+02  0.27727950809E+02 -0.51143865719E+02  0.10005590868E+03  0.80516298135E+02 0.  0.
          5    1    5    5  501    0  0.10490286064E+03  0.42785037254E+02 -0.16048229470E+03  0.19649892238E+03  0.47000000000E+01 0. -1.
        -11    1    6    6    0    0  0.13830206413E+02 -0.19364988996E+02  0.27686955727E+01  0.23957109245E+02  0.00000000000E+00 0.  1.
         12    1    6    6    0    0 -0.25820883625E+02  0.47092939805E+02 -0.53912561292E+02  0.76098799437E+02  0.00000000000E+00 0. -1.
         -5    1    3    3    0  503 -0.67899882824E+02  0.19088312675E+02 -0.13607273514E+02  0.71986149089E+02  0.47000000000E+01 0.  1.
         11    1    4    4    0    0 -0.45946101749E+02 -0.31431732650E+02 -0.92194788834E+02  0.10769808342E+03  0.00000000000E+00 0. -1.
        -12    1    4    4    0    0  0.20933801146E+02 -0.58169568088E+02 -0.47405280639E+02  0.77904963350E+02  0.00000000000E+00 0.  1.
</event>
<event>
12    1  0.8271773E-002  0.1976612E+03  0.7818608E-02  0.1152041E+00
         21   -1    0    0  503  502  0.00000000000E+00  0.00000000000E+00  0.26457607988E+03  0.26457607988E+03  0.00000000000E+00 0. -1.
         21   -1    0    0  501  503 -0.00000000000E+00 -0.00000000000E+00 -0.20106558684E+03  0.20106558684E+03  0.00000000000E+00 0.  1.
          6    2    1    2  501    0 -0.75406736900E+02 -0.54308988934E+02 -0.89525083839E+02  0.21566201146E+03  0.17279965365E+03 0.  0.
         24    2    3    3    0    0 -0.36139274213E+02  0.19796391997E+01 -0.11302189562E+03  0.14296721490E+03  0.79722703999E+02 0.  0.
         -6    2    1    2    0  502  0.75406736900E+02  0.54308988934E+02  0.15303557687E+03  0.24997965526E+03  0.17445428629E+03 0.  0.
        -24    2    5    5    0    0  0.95712667934E+02  0.64850611954E+02  0.58315688819E+02  0.15242247282E+03  0.80407549308E+02 0.  0.
          5    1    3    3  501    0 -0.39267462688E+02 -0.56288628133E+02  0.23496811786E+02  0.72694796562E+02  0.47000000000E+01 0. -1.
        -13    1    4    4    0    0  0.10716803799E+02  0.30487498912E+02 -0.48551649681E+02  0.58323238596E+02  0.00000000000E+00 0.  1.
         14    1    4    4    0    0 -0.46856078012E+02 -0.28507859712E+02 -0.64470245944E+02  0.84643976301E+02  0.00000000000E+00 0. -1.
         -5    1    5    5    0  502 -0.20305931034E+02 -0.10541623021E+02  0.94719888056E+02  0.97557182434E+02  0.47000000000E+01 0.  1.
         11    1    6    6    0    0  0.58997130953E+02  0.83036718356E+01  0.60574056108E+02  0.84963690480E+02  0.00000000000E+00 0. -1.
        -12    1    6    6    0    0  0.36715536981E+02  0.56546940119E+02 -0.22583672891E+01  0.67458782344E+02  0.00000000000E+00 0.  1.
</event>
<event>
12    1  0.8271773E-002  0.1762827E+03  0.7818608E-02  0.1171654E+00
         21   -1    0    0  501  502  0.00000000000E+00  0.00000000000E+00  0.46503848281E+02  0.46503848281E+02  0.00000000000E+00 0. -1.
         21   -1    0    0  502  503 -0.00000000000E+00 -0.00000000000E+00 -0.80222192433E+03  0.80222192433E+03  0.00000000000E+00 0. -1.
         -6    2    1    2    0  503  0.51043947928E+01 -0.37022714724E+02 -0.55255324934E+03  0.57974332968E+03  0.17143657341E+03 0.  0.
        -24    2    3    3    0    0 -0.29943034364E+02 -0.73024616431E+02 -0.46598498629E+03  0.47954046853E+03  0.81165716846E+02 0.  0.
          6    2    1    2  501    0 -0.51043947928E+01  0.37022714724E+02 -0.20316482672E+03  0.26898244294E+03  0.17227556861E+03 0.  0.
         24    2    5    5    0    0 -0.51762389850E+02  0.54366298871E+01 -0.18568820832E+03  0.20980329586E+03  0.82634195681E+02 0.  0.
          5    1    5    5  501    0  0.46657995057E+02  0.31586084836E+02 -0.17476618393E+02  0.59179147075E+02  0.47000000000E+01 0. -1.
        -11    1    6    6    0    0  0.11563584473E+02 -0.24532128512E+02 -0.42902820152E+02  0.50756219247E+02  0.00000000000E+00 0.  1.
         12    1    6    6    0    0 -0.63325974324E+02  0.29968758399E+02 -0.14278538817E+03  0.15904707661E+03  0.00000000000E+00 0. -1.
         -5    1    3    3    0  503  0.35047429156E+02  0.36001901707E+02 -0.86568263043E+02  0.10020286115E+03  0.47000000000E+01 0.  1.
         11    1    4    4    0    0  0.25915876244E+02 -0.12592378611E+02 -0.84408912505E+02  0.89191171934E+02  0.00000000000E+00 0. -1.
        -12    1    4    4    0    0 -0.55858910608E+02 -0.60432237820E+02 -0.38157607379E+03  0.39034929659E+03  0.00000000000E+00 0.  1.
</event>
<event>
12    1  0.8271773E-002  0.2150665E+03  0.7818608E-02  0.1137620E+00
         21   -1    0    0  501  502  0.00000000000E+00  0.00000000000E+00  0.36783900461E+03  0.36783900461E+03  0.00000000000E+00 0.  1.
         21   -1    0    0  502  503 -0.00000000000E+00 -0.00000000000E+00 -0.13697169092E+03  0.13697169092E+03  0.00000000000E+00 0.  1.
         -6    2    1    2    0  503 -0.19094932508E+02 -0.12738468794E+03  0.43115731590E+02  0.21932120976E+03  0.17219567815E+03 0.  0.
        -24    2    3    3    0    0 -0.50327522733E+01 -0.70137968771E+02  0.93836267212E+02  0.14141360743E+03  0.79043659216E+02 0.  0.
          6    2    1    2  501    0  0.19094932508E+02  0.12738468794E+03  0.18775158209E+03  0.28548948576E+03  0.17222692802E+03 0.  0.
         24    2    5    5    0    0  0.60282311559E+02  0.12737583776E+03  0.10498141136E+03  0.19291847823E+03  0.79610811964E+02 0.  0.
          5    1    5    5  501    0 -0.41187379051E+02  0.88501803329E-02  0.82770170739E+02  0.92571007533E+02  0.47000000000E+01 0. -1.
        -11    1    6    6    0    0 -0.47780118979E+01  0.79985104741E+02  0.40481050765E+02  0.89772834695E+02  0.00000000000E+00 0.  1.
         12    1    6    6    0    0  0.65060323457E+02  0.47390733014E+02  0.64500360590E+02  0.10314564354E+03  0.00000000000E+00 0. -1.
         -5    1    3    3    0  503 -0.14062180235E+02 -0.57246719165E+02 -0.50720535623E+02  0.77907602338E+02  0.47000000000E+01 0.  1.
         13    1    4    4    0    0  0.26380453377E+02  0.14516155633E+01  0.14976849738E+02  0.30370076328E+02  0.00000000000E+00 0. -1.
        -14    1    4    4    0    0 -0.31413205650E+02 -0.71589584334E+02  0.78859417475E+02  0.11104353110E+03  0.00000000000E+00 0.  1.
</event>
<event>
12    1  0.8271773E-002  0.1885365E+03  0.7818608E-02  0.1162317E+00
         21   -1    0    0  503  502  0.00000000000E+00  0.00000000000E+00  0.19779984734E+04  0.19779984734E+04  0.00000000000E+00 0. -1.
         21   -1    0    0  501  503 -0.00000000000E+00 -0.00000000000E+00 -0.21191022892E+02  0.21191022892E+02  0.00000000000E+00 0. -1.
          6    2    1    2  501    0  0.21458417817E+02 -0.39573589890E+02  0.55488788663E+03  0.58604314161E+03  0.18308321713E+03 0.  0.
         24    2    3    3    0    0  0.67115388978E+02  0.23196673967E+02  0.37880621406E+03  0.39355545252E+03  0.79681775041E+02 0.  0.
         -6    2    1    2    0  502 -0.21458417817E+02  0.39573589890E+02  0.14019195638E+04  0.14131463546E+04  0.17198146247E+03 0.  0.
        -24    2    5    5    0    0 -0.11533762745E+02 -0.45203826392E+02  0.77031158709E+03  0.77577955649E+03  0.79231088935E+02 0.  0.
          5    1    3    3  501    0 -0.45656971162E+02 -0.62770263857E+02  0.17608167257E+03  0.19248768910E+03  0.47000000000E+01 0. -1.
        -13    1    4    4    0    0  0.53555163904E+01  0.41780043428E+02  0.15867598884E+03  0.16417162671E+03  0.00000000000E+00 0.  1.
         14    1    4    4    0    0  0.61759872588E+02 -0.18583369461E+02  0.22013022522E+03  0.22938382580E+03  0.00000000000E+00 0. -1.
         -5    1    5    5    0  502 -0.99246550722E+01  0.84777416282E+02  0.63160797675E+03  0.63736679815E+03  0.47000000000E+01 0.  1.
         11    1    6    6    0    0  0.11786734362E+02  0.18143170094E+02  0.11645606654E+03  0.11844879553E+03  0.00000000000E+00 0. -1.
        -12    1    6    6    0    0 -0.23320497107E+02 -0.63346996486E+02  0.65385552055E+03  0.65733076096E+03  0.00000000000E+00 0.  1.
</event>
<event>
12    1  0.8271773E-002  0.2638056E+03  0.7818608E-02  0.1104912E+00
         21   -1    0    0  501  502  0.00000000000E+00  0.00000000000E+00  0.23182138842E+03  0.23182138842E+03  0.00000000000E+00 0.  1.
         21   -1    0    0  502  503 -0.00000000000E+00 -0.00000000000E+00 -0.29999463085E+03  0.29999463085E+03  0.00000000000E+00 0.  1.
         -6    2    1    2    0  503 -0.12213457491E+03  0.15922749943E+03 -0.37542921292E+02  0.26623812390E+03  0.17088890166E+03 0.  0.
        -24    2    3    3    0    0 -0.12600840913E+03  0.16359771359E+03 -0.70702678817E+02  0.23224158168E+03  0.79340736119E+02 0.  0.
          6    2    1    2  501    0  0.12213457491E+03 -0.15922749943E+03 -0.30630321140E+02  0.26557789538E+03  0.17124003906E+03 0.  0.
         24    2    5    5    0    0  0.12802636029E+03 -0.82110906448E+02 -0.61830653855E+02  0.18204806352E+03  0.78648062843E+02 0.  0.
          5    1    5    5  501    0 -0.58917853804E+01 -0.77116592983E+02  0.31200332715E+02  0.83529831856E+02  0.47000000000E+01 0. -1.
        -13    1    6    6    0    0  0.11931883324E+03 -0.86319153899E+02 -0.32021741121E+02  0.15070956241E+03  0.00000000000E+00 0.  1.
         14    1    6    6    0    0  0.87075270522E+01  0.42082474515E+01 -0.29808912734E+02  0.31338501119E+02  0.00000000000E+00 0. -1.
         -5    1    3    3    0  503  0.38738342166E+01 -0.43702141575E+01  0.33159757525E+02  0.33996542213E+02  0.47000000000E+01 0.  1.
         11    1    4    4    0    0 -0.20311631016E+02  0.88203580608E+02 -0.39244600261E+02  0.98653801935E+02  0.00000000000E+00 0. -1.
        -12    1    4    4    0    0 -0.10569677811E+03  0.75394132980E+02 -0.31458078556E+02  0.13358777975E+03  0.00000000000E+00 0.  1.
</event>
<event>
12    1  0.8271773E-002  0.4121424E+03  0.7818608E-02  0.1039656E+00
         21   -1    0    0  501  502  0.00000000000E+00  0.00000000000E+00  0.29172151192E+03  0.29172151192E+03  0.00000000000E+00 0.  1.
         21   -1    0    0  502  503 -0.00000000000E+00 -0.00000000000E+00 -0.70484458022E+03  0.70484458022E+03  0.00000000000E+00 0. -1.
         -6    2    1    2    0  503 -0.37381715077E+03 -0.23550023313E+02  0.12630595262E+01  0.41212003190E+03  0.17189374498E+03 0.  0.
        -24    2    3    3    0    0 -0.30347642350E+03 -0.68342949315E+02 -0.31253475626E+02  0.32248946127E+03  0.79082074771E+02 0.  0.
          6    2    1    2  501    0  0.37381715077E+03  0.23550023313E+02 -0.41438612782E+03  0.58444606025E+03  0.17195193689E+03 0.  0.
         24    2    5    5    0    0  0.32886508038E+03  0.71449900815E+02 -0.35632419637E+03  0.49664876655E+03  0.80223032701E+02 0.  0.
          5    1    5    5  501    0  0.44952070388E+02 -0.47899877502E+02 -0.58061931454E+02  0.87797293700E+02  0.47000000000E+01 0. -1.
        -11    1    6    6    0    0  0.28268395386E+02  0.31899554714E+02 -0.48959317470E+02  0.64913007447E+02  0.00000000000E+00 0.  1.
         12    1    6    6    0    0  0.30059668499E+03  0.39550346101E+02 -0.30736487890E+03  0.43173575910E+03  0.00000000000E+00 0. -1.
         -5    1    3    3    0  503 -0.70340727270E+02  0.44792926002E+02  0.32516535152E+02  0.89630570628E+02  0.47000000000E+01 0.  1.
         11    1    4    4    0    0 -0.17680812204E+03 -0.71639076662E+02 -0.41948286386E+02  0.19532774523E+03  0.00000000000E+00 0. -1.
        -12    1    4    4    0    0 -0.12666830145E+03  0.32961273476E+01  0.10694810760E+02  0.12716171604E+03  0.00000000000E+00 0.  1.
</event>
<event>
12    1  0.8271773E-002  0.2089366E+03  0.7818608E-02  0.1142643E+00
         21   -1    0    0  503  502  0.00000000000E+00  0.00000000000E+00  0.14268717247E+03  0.14268717247E+03  0.00000000000E+00 0. -1.
         21   -1    0    0  501  503 -0.00000000000E+00 -0.00000000000E+00 -0.64417505256E+03  0.64417505256E+03  0.00000000000E+00 0. -1.
          6    2    1    2  501    0 -0.95101866241E+02  0.64268208876E+02 -0.53687342269E+03  0.57609685255E+03  0.17458448927E+03 0.  0.
         24    2    3    3    0    0  0.89615309703E+01  0.19046350812E+02 -0.12470562759E+03  0.14857072656E+03  0.77965984389E+02 0.  0.
         -6    2    1    2    0  502  0.95101866241E+02 -0.64268208876E+02  0.35385542604E+02  0.21076537248E+03  0.17319104473E+03 0.  0.
        -24    2    5    5    0    0  0.11420841311E+03 -0.90630694836E+02  0.51077228908E+02  0.17431870160E+03  0.80750491895E+02 0.  0.
          5    1    3    3  501    0 -0.10406339721E+03  0.45221858064E+02 -0.41216779511E+03  0.42752612600E+03  0.47000000000E+01 0. -1.
        -11    1    4    4    0    0  0.25766582628E+02 -0.22032489831E+02 -0.36422814049E+02  0.49759107424E+02  0.00000000000E+00 0.  1.
         12    1    4    4    0    0 -0.16805051657E+02  0.41078840642E+02 -0.88282813536E+02  0.98811619133E+02  0.00000000000E+00 0. -1.
         -5    1    5    5    0  502 -0.19106546871E+02  0.26362485960E+02 -0.15691686304E+02  0.36446670882E+02  0.47000000000E+01 0.  1.
         13    1    6    6    0    0  0.49190535440E+02 -0.73375346833E+01  0.47224547117E+02  0.68583569771E+02  0.00000000000E+00 0. -1.
        -14    1    6    6    0    0  0.65017877672E+02 -0.83293160153E+02  0.38526817910E+01  0.10573513183E+03  0.00000000000E+00 0.  1.
</event>
<event>
12    1  0.8271773E-002  0.2544740E+03  0.7818608E-02  0.1110632E+00
         21   -1    0    0  503  502  0.00000000000E+00  0.00000000000E+00  0.66960888670E+02  0.66960888670E+02  0.00000000000E+00 0. -1.
         21   -1    0    0  501  503 -0.00000000000E+00 -0.00000000000E+00 -0.11589120955E+04  0.11589120955E+04  0.00000000000E+00 0. -1.
          6    2    1    2  501    0 -0.13595056085E+03 -0.12978600754E+03 -0.79800727133E+03  0.83759933151E+03  0.17155195223E+03 0.  0.
         24    2    3    3    0    0 -0.19604730518E+02 -0.46705658817E+02 -0.17896861707E+03  0.20224931614E+03  0.79430824975E+02 0.  0.
         -6    2    1    2    0  502  0.13595056085E+03  0.12978600754E+03 -0.29394393549E+03  0.38827365265E+03  0.17037144532E+03 0.  0.
        -24    2    5    5    0    0  0.89742664648E+02  0.57625753110E+02 -0.66936936637E+02  0.14558756009E+03  0.73080167541E+02 0.  0.
          5    1    3    3  501    0 -0.11634583033E+03 -0.83080348721E+02 -0.61903865426E+03  0.63535001538E+03  0.47000000000E+01 0. -1.
        -13    1    4    4    0    0  0.81019035800E+00  0.20221239915E+02 -0.69005153625E+02  0.71911516317E+02  0.00000000000E+00 0.  1.
         14    1    4    4    0    0 -0.20414920876E+02 -0.66926898733E+02 -0.10996346345E+03  0.13033779982E+03  0.00000000000E+00 0. -1.
         -5    1    5    5    0  502  0.46207896198E+02  0.72160254429E+02 -0.22700699885E+03  0.24268609255E+03  0.47000000000E+01 0.  1.
         11    1    6    6    0    0  0.61798123902E+02  0.73405727688E+02 -0.41097687437E+02  0.10438596116E+03  0.00000000000E+00 0. -1.
        -12    1    6    6    0    0  0.27944540746E+02 -0.15779974578E+02 -0.25839249200E+02  0.41201598930E+02  0.00000000000E+00 0.  1.
</event>
<event>
12    1  0.8271773E-002  0.1842990E+03  0.7818608E-02  0.1164080E+00
         21   -1    0    0  501  502  0.00000000000E+00  0.00000000000E+00  0.82908572353E+03  0.82908572353E+03  0.00000000000E+00 0. -1.
         21   -1    0    0  502  503 -0.00000000000E+00 -0.00000000000E+00 -0.40621585401E+02  0.40621585401E+02  0.00000000000E+00 0. -1.
         -6    2    1    2    0  503 -0.56350789899E+02 -0.37249942072E+02  0.40086980777E+03  0.44120599082E+03  0.17147347854E+03 0.  0.
        -24    2    3    3    0    0 -0.85723081784E+02 -0.52024843690E+02  0.38216518738E+03  0.40308798887E+03  0.79841500581E+02 0.  0.
          6    2    1    2  501    0  0.56350789899E+02  0.37249942072E+02  0.38759433035E+03  0.42850131811E+03  0.16976762057E+03 0.  0.
         24    2    5    5    0    0  0.18668825995E+02  0.35846615102E+02  0.84539274876E+02  0.12307316554E+03  0.79791040864E+02 0.  0.
          5    1    5    5  501    0  0.37681963904E+02  0.14033269697E+01  0.30305505548E+03  0.30542815257E+03  0.47000000000E+01 0. -1.
        -13    1    6    6    0    0  0.46137557748E+02  0.59458964513E+01  0.58891581568E+02  0.75048293113E+02  0.00000000000E+00 0.  1.
         14    1    6    6    0    0 -0.27468731754E+02  0.29900718651E+02  0.25647693307E+02  0.48024872431E+02  0.00000000000E+00 0. -1.
         -5    1    3    3    0  503  0.29372291885E+02  0.14774901618E+02  0.18704620395E+02  0.38118001948E+02  0.47000000000E+01 0.  1.
         13    1    4    4    0    0 -0.20525078676E+02 -0.44104494197E+02  0.78106212823E+02  0.92016660147E+02  0.00000000000E+00 0. -1.
        -14    1    4    4    0    0 -0.65198003108E+02 -0.79203494929E+01  0.30405897455E+03  0.31107132872E+03  0.00000000000E+00 0.  1.
</event>
<event>
12    1  0.8271773E-002  0.2889018E+03  0.7818608E-02  0.1091196E+00
         21   -1    0    0  501  502  0.00000000000E+00  0.00000000000E+00  0.76911972389E+03  0.76911972389E+03  0.00000000000E+00 0.  1.
         21   -1    0    0  502  503 -0.00000000000E+00 -0.00000000000E+00 -0.31403015407E+03  0.31403015407E+03  0.00000000000E+00 0. -1.
         -6    2    1    2    0  503  0.24809481191E+01  0.23173971047E+03 -0.21111703928E+03  0.35781927574E+03  0.17249574287E+03 0.  0.
        -24    2    3    3    0    0  0.12628422493E+02  0.12387556477E+03 -0.20075396595E+03  0.24888292528E+03  0.78332132922E+02 0.  0.
          6    2    1    2  501    0 -0.24809481191E+01 -0.23173971047E+03  0.66620660910E+03  0.72533060222E+03  0.16900824834E+03 0.  0.
         24    2    5    5    0    0  0.46383369926E+02 -0.21639388737E+03  0.55833327507E+03  0.60582343902E+03  0.79424566156E+02 0.  0.
          5    1    5    5  501    0 -0.48864318045E+02 -0.15345823093E+02  0.10787333402E+03  0.11950716321E+03  0.47000000000E+01 0. -1.
        -13    1    6    6    0    0  0.19239122185E+01 -0.14860182142E+03  0.41958311331E+03  0.44512491701E+03  0.00000000000E+00 0.  1.
         14    1    6    6    0    0  0.44459457708E+02 -0.67792065952E+02  0.13875016176E+03  0.16069852200E+03  0.00000000000E+00 0. -1.
         -5    1    3    3    0  503 -0.10147474374E+02  0.10786414570E+03 -0.10363073328E+02  0.10893635047E+03  0.47000000000E+01 0.  1.
         11    1    4    4    0    0  0.31554112704E+02  0.12983608449E+02 -0.38480424093E+02  0.51429360829E+02  0.00000000000E+00 0. -1.
        -12    1    4    4    0    0 -0.18925690210E+02  0.11089195632E+03 -0.16227354186E+03  0.19745356445E+03  0.00000000000E+00 0.  1.
</event>
<event>
12    1  0.8271773E-002  0.1911170E+03  0.7818608E-02  0.1157541E+00
         21   -1    0    0  501  502  0.00000000000E+00  0.00000000000E+00  0.10252008006E+03  0.10252008006E+03  0.00000000000E+00 0. -1.
         21   -1    0    0  502  503 -0.00000000000E+00 -0.00000000000E+00 -0.37557525664E+03  0.37557525664E+03  0.00000000000E+00 0. -1.
         -6    2    1    2    0  503  0.44235144648E+02 -0.69967297633E+02 -0.19180483665E+03  0.27076706557E+03  0.17226008731E+03 0.  0.
        -24    2    3    3    0    0 -0.28070719412E+02 -0.26445071678E+02 -0.13646499933E+03  0.16973781375E+03  0.93278734291E+02 0.  0.
          6    2    1    2  501    0 -0.44235144648E+02  0.69967297633E+02 -0.81250339939E+02  0.20732827112E+03  0.17184651148E+03 0.  0.
         24    2    5    5    0    0  0.88173563947E+01  0.65133340253E+02 -0.10559547612E+03  0.14856850031E+03  0.81253288675E+02 0.  0.
          5    1    5    5  501    0 -0.53052501042E+02  0.48339573796E+01  0.24345136180E+02  0.58759770817E+02  0.47000000000E+01 0. -1.
        -11    1    6    6    0    0  0.44354808575E+02  0.25100835622E+02 -0.50280815213E+02  0.71593025995E+02  0.00000000000E+00 0.  1.
         12    1    6    6    0    0 -0.35537452180E+02  0.40032504631E+02 -0.55314660906E+02  0.76975474312E+02  0.00000000000E+00 0. -1.
         -5    1    3    3    0  503  0.72305864060E+02 -0.43522225955E+02 -0.55339837316E+02  0.10102925182E+03  0.47000000000E+01 0.  1.
         11    1    4    4    0    0 -0.19161102866E+02  0.87936274807E+01 -0.13135105406E+03  0.13303223350E+03  0.00000000000E+00 0. -1.
        -12    1    4    4    0    0 -0.89096165464E+01 -0.35238699159E+02 -0.51139452699E+01  0.36705580252E+02  0.00000000000E+00 0.  1.
</event>
<event>
12    1  0.8271773E-002  0.1881287E+03  0.7818608E-02  0.1160187E+00
         21   -1    0    0  501  502  0.00000000000E+00  0.00000000000E+00  0.28852037317E+02  0.28852037317E+02  0.00000000000E+00 0. -1.
         21   -1    0    0  502  503 -0.00000000000E+00 -0.00000000000E+00 -0.12681469303E+04  0.12681469303E+04  0.00000000000E+00 0. -1.
         -6    2    1    2    0  503 -0.59907757702E+02 -0.46189419916E+02 -0.73818606962E+03  0.76178152177E+03  0.17224985220E+03 0.  0.
        -24    2    3    3    0    0 -0.89047722714E+02 -0.49154982764E+02 -0.69975059664E+03  0.71322940846E+03  0.93271551601E+02 0.  0.
          6    2    1    2  501    0  0.59907757702E+02  0.46189419916E+02 -0.50110882337E+03  0.53521744586E+03  0.17211989874E+03 0.  0.
         24    2    5    5    0    0 -0.10557458865E+02  0.60594464606E+02 -0.38900378297E+03  0.40194148350E+03  0.80311044787E+02 0.  0.
          5    1    5    5  501    0  0.70465216566E+02 -0.14405044690E+02 -0.11210504041E+03  0.13327596236E+03  0.47000000000E+01 0. -1.
        -13    1    6    6    0    0 -0.38391797723E+02  0.64542119040E+01 -0.18483224858E+03  0.18888765735E+03  0.00000000000E+00 0.  1.
         14    1    6    6    0    0  0.27834338859E+02  0.54140252702E+02 -0.20417153438E+03  0.21305382615E+03  0.00000000000E+00 0. -1.
         -5    1    3    3    0  503  0.29139965012E+02  0.29655628486E+01 -0.38435472976E+02  0.48552113310E+02  0.47000000000E+01 0.  1.
         11    1    4    4    0    0 -0.47608238856E+02 -0.16522228412E+02 -0.10851256274E+03  0.11964323930E+03  0.00000000000E+00 0. -1.
        -12    1    4    4    0    0 -0.41439483858E+02 -0.32632754353E+02 -0.59123803390E+03  0.59358616916E+03  0.00000000000E+00 0.  1.
</event>
<event>
12    1  0.8271773E-002  0.1782126E+03  0.7818608E-02  0.1169971E+00
         21   -1    0    0  501  502  0.00000000000E+00  0.00000000000E+00  0.80773547871E+03  0.80773547871E+03  0.00000000000E+00 0. -1.
         21   -1    0    0  502  503 -0.00000000000E+00 -0.00000000000E+00 -0.39042190014E+02  0.39042190014E+02  0.00000000000E+00 0. -1.
         -6    2    1    2    0  503 -0.66056602520E+01 -0.45853626469E+02  0.36057897476E+03  0.40144966091E+03  0.17028929326E+03 0.  0.
        -24    2    3    3    0    0  0.39622276107E+02  0.21073811688E+02  0.20612341786E+03  0.22682173320E+03  0.83349894782E+02 0.  0.
          6    2    1    2  501    0  0.66056602520E+01  0.45853626469E+02  0.40811431394E+03  0.44532800781E+03  0.17208588407E+03 0.  0.
         24    2    5    5    0    0  0.43210311929E+02 -0.27754692391E+02  0.25004155861E+03  0.26709453423E+03  0.78620958883E+02 0.  0.
          5    1    5    5  501    0 -0.36604651678E+02  0.73608318859E+02  0.15807275533E+03  0.17823347359E+03  0.47000000000E+01 0. -1.
        -13    1    6    6    0    0 -0.14252602765E+02 -0.31419351163E+02  0.69479985098E+02  0.77574355571E+02  0.00000000000E+00 0.  1.
         14    1    6    6    0    0  0.57462914694E+02  0.36646587723E+01  0.18056157351E+03  0.18952017866E+03  0.00000000000E+00 0. -1.
         -5    1    3    3    0  503 -0.46227936359E+02 -0.66927438156E+02  0.15445555690E+03  0.17462792770E+03  0.47000000000E+01 0.  1.
         11    1    4    4    0    0  0.43847082000E+02 -0.15122584639E+02  0.57913095871E+02  0.74196939556E+02  0.00000000000E+00 0. -1.
        -12    1    4    4    0    0 -0.42248058935E+01  0.36196396326E+02  0.14821032199E+03  0.15262479365E+03  0.00000000000E+00 0.  1.
</event>
<event>
12    1  0.8271773E-002  0.1811814E+03  0.7818608E-02  0.1166738E+00
         21   -1    0    0  503  502  0.00000000000E+00  0.00000000000E+00  0.85017169443E+02  0.85017169443E+02  0.00000000000E+00 0.  1.
         21   -1    0    0  501  503 -0.00000000000E+00 -0.00000000000E+00 -0.72599613579E+03  0.72599613579E+03  0.00000000000E+00 0.  1.
          6    2    1    2  501    0  0.50486342932E+01 -0.56642106774E+02 -0.59835159845E+03  0.62518104230E+03  0.17202582166E+03 0.  0.
         24    2    3    3    0    0  0.13657651191E+02 -0.71572675559E+02 -0.20717413354E+03  0.23359588412E+03  0.79603618927E+02 0.  0.
         -6    2    1    2    0  502 -0.50486342932E+01  0.56642106774E+02 -0.42627367900E+02  0.18583226294E+03  0.17170533039E+03 0.  0.
        -24    2    5    5    0    0 -0.24733450531E+02 -0.32611321423E+02 -0.12873727761E+02  0.89597988704E+02  0.78656371982E+02 0.  0.
          5    1    3    3  501    0 -0.86090168975E+01  0.14930568785E+02 -0.39117746491E+03  0.39158515818E+03  0.47000000000E+01 0. -1.
        -13    1    4    4    0    0 -0.14936599957E+02 -0.59288694882E+02 -0.18641695073E+03  0.19618748909E+03  0.00000000000E+00 0.  1.
         14    1    4    4    0    0  0.28594251148E+02 -0.12283980677E+02 -0.20757182817E+02  0.37408395027E+02  0.00000000000E+00 0. -1.
         -5    1    5    5    0  502  0.19684816238E+02  0.89253428197E+02 -0.29753640139E+02  0.96234274231E+02  0.47000000000E+01 0.  1.
         13    1    6    6    0    0 -0.19014140447E+02 -0.21461819136E+02 -0.45986657172E+02  0.54193356193E+02  0.00000000000E+00 0. -1.
        -14    1    6    6    0    0 -0.57193100836E+01 -0.11149502286E+02  0.33112929411E+02  0.35404632511E+02  0.00000000000E+00 0.  1.
</event>
<event>
12    1  0.8271773E-002  0.2047507E+03  0.7818608E-02  0.1145992E+00
         21   -1    0    0  501  502  0.00000000000E+00  0.00000000000E+00  0.11984069985E+04  0.11984069985E+04  0.00000000000E+00 0.  1.
         21   -1    0    0  502  503 -0.00000000000E+00 -0.00000000000E+00 -0.51954599651E+02  0.51954599651E+02  0.00000000000E+00 0.  1.
         -6    2    1    2    0  503  0.72436414339E+02 -0.81492311852E+02  0.21506947338E+03  0.29694736695E+03  0.17330559525E+03 0.  0.
        -24    2    3    3    0    0 -0.16883570604E+02 -0.21357198909E+02  0.14749636445E+03  0.16973688558E+03  0.79462241982E+02 0.  0.
          6    2    1    2  501    0 -0.72436414339E+02  0.81492311852E+02  0.93138292549E+03  0.95341423122E+03  0.17215258170E+03 0.  0.
         24    2    5    5    0    0 -0.60648585409E+02  0.12845261936E+02  0.78803492130E+03  0.79397110444E+03  0.74483728598E+02 0.  0.
          5    1    5    5  501    0 -0.11787828930E+02  0.68647049916E+02  0.14334800418E+03  0.15944312678E+03  0.47000000000E+01 0. -1.
        -13    1    6    6    0    0 -0.19396995946E+02  0.40184730239E+02  0.46937639521E+03  0.47149258359E+03  0.00000000000E+00 0.  1.
         14    1    6    6    0    0 -0.41251589463E+02 -0.27339468303E+02  0.31865852609E+03  0.32247852085E+03  0.00000000000E+00 0. -1.
         -5    1    3    3    0  503  0.89319984943E+02 -0.60135112944E+02  0.67573108933E+02  0.12721048137E+03  0.47000000000E+01 0.  1.
         13    1    4    4    0    0  0.18828473716E+02 -0.35168246881E+02  0.44032834384E+02  0.59415549438E+02  0.00000000000E+00 0. -1.
        -14    1    4    4    0    0 -0.35712044321E+02  0.13811047972E+02  0.10346353006E+03  0.11032133614E+03  0.00000000000E+00 0.  1.
</event>
<event>
12    1  0.8271773E-002  0.2222898E+03  0.7818608E-02  0.1132332E+00
         21   -1    0    0  503  502  0.00000000000E+00  0.00000000000E+00  0.21736029796E+02  0.21736029796E+02  0.00000000000E+00 0. -1.
         21   -1    0    0  501  503 -0.00000000000E+00 -0.00000000000E+00 -0.24956132740E+04  0.24956132740E+04  0.00000000000E+00 0. -1.
          6    2    1    2  501    0  0.14016487183E+03 -0.95577203603E+01 -0.16173359800E+04  0.16324336598E+04  0.17124964245E+03 0.  0.
         24    2    3    3    0    0  0.46195200538E+02 -0.64339323808E+02 -0.85370183440E+03  0.86107737276E+03  0.79836549694E+02 0.  0.
         -6    2    1    2    0  502 -0.14016487183E+03  0.95577203603E+01 -0.85654126420E+03  0.88491564402E+03  0.17226496580E+03 0.  0.
        -24    2    5    5    0    0 -0.15943869805E+03 -0.27061305066E+02 -0.67216194035E+03  0.69589115232E+03  0.79434307131E+02 0.  0.
          5    1    3    3  501    0  0.93969671292E+02  0.54781603448E+02 -0.76363414558E+03  0.77135628700E+03  0.47000000000E+01 0. -1.
        -11    1    4    4    0    0  0.15549205859E+02 -0.29756716090E+02 -0.91317419797E+02  0.97293941814E+02  0.00000000000E+00 0.  1.
         12    1    4    4    0    0  0.30645994680E+02 -0.34582607718E+02 -0.76238441461E+03  0.76378343094E+03  0.00000000000E+00 0. -1.
         -5    1    5    5    0  502  0.19273826221E+02  0.36619025426E+02 -0.18437932385E+03  0.18902449170E+03  0.47000000000E+01 0.  1.
         11    1    6    6    0    0 -0.42542737761E+02  0.26064362466E+02 -0.14603624965E+03  0.15432375623E+03  0.00000000000E+00 0. -1.
        -12    1    6    6    0    0 -0.11689596029E+03 -0.53125667532E+02 -0.52612569070E+03  0.54156739608E+03  0.00000000000E+00 0.  1.
</event>
<event>
12    1  0.8271773E-002  0.2000653E+03  0.7818608E-02  0.1149929E+00
         21   -1    0    0  501  502  0.00000000000E+00  0.00000000000E+00  0.41322103167E+03  0.41322103167E+03  0.00000000000E+00 0. -1.
         21   -1    0    0  502  503 -0.00000000000E+00 -0.00000000000E+00 -0.18271804159E+03  0.18271804159E+03  0.00000000000E+00 0. -1.
         -6    2    1    2    0  503 -0.10100937189E+03  0.60318043711E-01 -0.89840085172E+02  0.21825425697E+03  0.17134988454E+03 0.  0.
        -24    2    3    3    0    0 -0.97894907877E+02 -0.51646942012E+02 -0.34271278211E+02  0.14214037561E+03  0.82331927347E+02 0.  0.
          6    2    1    2  501    0  0.10100937189E+03 -0.60318043711E-01  0.32034307525E+03  0.37768481629E+03  0.17269405824E+03 0.  0.
         24    2    5    5    0    0  0.13663016277E+03  0.20162626079E+02  0.26231787448E+03  0.30650320254E+03  0.77840946994E+02 0.  0.
          5    1    5    5  501    0 -0.35620790880E+02 -0.20222944123E+02  0.58025200770E+02  0.71181613751E+02  0.47000000000E+01 0. -1.
        -13    1    6    6    0    0  0.50541129104E+02  0.45914608085E+02  0.12405884333E+03  0.14160915780E+03  0.00000000000E+00 0.  1.
         14    1    6    6    0    0  0.86089033667E+02 -0.25751982006E+02  0.13825903115E+03  0.16489404474E+03  0.00000000000E+00 0. -1.
         -5    1    3    3    0  503 -0.31144640135E+01  0.51707260056E+02 -0.55568806961E+02  0.76113881360E+02  0.47000000000E+01 0.  1.
         11    1    4    4    0    0 -0.69058879069E+02  0.92639142186E+01 -0.25421251909E+02  0.74170000226E+02  0.00000000000E+00 0. -1.
        -12    1    4    4    0    0 -0.28836028809E+02 -0.60910856231E+02 -0.88500263019E+01  0.67970375383E+02  0.00000000000E+00 0.  1.
</event>
<event>
12    1  0.8271773E-002  0.2723130E+03  0.7818608E-02  0.1100002E+00
         21   -1    0    0  503  502  0.00000000000E+00  0.00000000000E+00  0.52524859300E+03  0.52524859300E+03  0.00000000000E+00 0. -1.
         21   -1    0    0  501  503 -0.00000000000E+00 -0.00000000000E+00 -0.15323591948E+03  0.15323591948E+03  0.00000000000E+00 0.  1.
          6    2    1    2  501    0 -0.15801329896E+03 -0.13989920745E+03  0.90379826862E+02  0.28691962953E+03  0.17208826170E+03 0.  0.
         24    2    3    3    0    0 -0.31940832355E+02 -0.44788728436E+01  0.21781793190E+02  0.89534943999E+02  0.80633631996E+02 0.  0.
         -6    2    1    2    0  502  0.15801329896E+03  0.13989920745E+03  0.28163284666E+03  0.39156488294E+03  0.17165665250E+03 0.  0.
        -24    2    5    5    0    0  0.16647180168E+03  0.63433688031E+02  0.20226020076E+03  0.28092750750E+03  0.79210997521E+02 0.  0.
          5    1    3    3  501    0 -0.12607246660E+03 -0.13542033460E+03  0.68598033672E+02  0.19738468554E+03  0.47000000000E+01 0. -1.
        -13    1    4    4    0    0 -0.18273141696E+02 -0.42291232467E+02  0.65204667634E+01  0.46529265391E+02  0.00000000000E+00 0.  1.
         14    1    4    4    0    0 -0.13667690659E+02  0.37812359623E+02  0.15261326427E+02  0.43005678608E+02  0.00000000000E+00 0. -1.
         -5    1    5    5    0  502 -0.84585027214E+01  0.76465519417E+02  0.79372645895E+02  0.11063737544E+03  0.47000000000E+01 0.  1.
         11    1    6    6    0    0  0.99615866238E+02  0.37151340380E+01  0.13967094462E+03  0.17159573363E+03  0.00000000000E+00 0. -1.
        -12    1    6    6    0    0  0.66855935444E+02  0.59718553993E+02  0.62589256137E+02  0.10933177388E+03  0.00000000000E+00 0.  1.
</event>
<event>
12    1  0.8271773E-002  0.1967022E+03  0.7818608E-02  0.1152652E+00
         21   -1    0    0  501  502  0.00000000000E+00  0.00000000000E+00  0.94139443794E+03  0.94139443794E+03  0.00000000000E+00 0. -1.
         21   -1    0    0  502  503 -0.00000000000E+00 -0.00000000000E+00 -0.49547428459E+02  0.49547428459E+02  0.00000000000E+00 0.  1.
         -6    2    1    2    0  503  0.69892614390E+02 -0.64668456993E+02  0.65123375945E+03  0.68015822421E+03  0.17158908370E+03 0.  0.
        -24    2    3    3    0    0 -0.23548144389E+02 -0.51949960571E+01  0.32459308766E+03  0.33521694454E+03  0.80176207580E+02 0.  0.
          6    2    1    2  501    0 -0.69892614390E+02  0.64668456993E+02  0.24061325004E+03  0.31078364219E+03  0.17211841646E+03 0.  0.
         24    2    5    5    0    0 -0.41563881444E+02  0.10953769901E+03  0.19838870503E+03  0.24280740965E+03  0.76624383534E+02 0.  0.
          5    1    5    5  501    0 -0.28328732946E+02 -0.44869242016E+02  0.42224545010E+02  0.67976232543E+02  0.47000000000E+01 0. -1.
        -11    1    6    6    0    0  0.84899977413E+00  0.78742194149E+02  0.74999549655E+02  0.10874735118E+03  0.00000000000E+00 0.  1.
         12    1    6    6    0    0 -0.42412881218E+02  0.30795504860E+02  0.12338915537E+03  0.13406005847E+03  0.00000000000E+00 0. -1.
         -5    1    3    3    0  503  0.93440758779E+02 -0.59473460936E+02  0.32664067179E+03  0.34494127967E+03  0.47000000000E+01 0.  1.
         11    1    4    4    0    0  0.27766750857E+02  0.10965287224E+02  0.10929270012E+03  0.11329662077E+03  0.00000000000E+00 0. -1.
        -12    1    4    4    0    0 -0.51314895246E+02 -0.16160283281E+02  0.21530038754E+03  0.22192032377E+03  0.00000000000E+00 0.  1.
</event>
<event>
12    1  0.8271773E-002  0.2839757E+03  0.7818608E-02  0.1093637E+00
         21   -1    0    0  501  502  0.00000000000E+00  0.00000000000E+00  0.42040081328E+03  0.42040081328E+03  0.00000000000E+00 0. -1.
         21   -1    0    0  502  503 -0.00000000000E+00 -0.00000000000E+00 -0.30272109211E+03  0.30272109211E+03  0.00000000000E+00 0. -1.
         -6    2    1    2    0  503 -0.82281908490E+02  0.20770653270E+03 -0.16054223436E+03  0.32556730562E+03  0.17409177260E+03 0.  0.
        -24    2    3    3    0    0  0.25199681133E+02  0.72109385175E+02 -0.62819880884E+02  0.12679450342E+03  0.79345581507E+02 0.  0.
          6    2    1    2  501    0  0.82281908490E+02 -0.20770653270E+03  0.27822195553E+03  0.39755459977E+03  0.17529942118E+03 0.  0.
         24    2    5    5    0    0  0.52567492034E+02 -0.65836471802E+02  0.20429187817E+03  0.23477312950E+03  0.79280947322E+02 0.  0.
          5    1    5    5  501    0  0.29714416457E+02 -0.14187006090E+03  0.73930077359E+02  0.16278147027E+03  0.47000000000E+01 0. -1.
        -13    1    6    6    0    0  0.12484720900E+02  0.75429421754E+01  0.61234120514E+00  0.14599287461E+02  0.00000000000E+00 0.  1.
         14    1    6    6    0    0  0.40082771133E+02 -0.73379413978E+02  0.20367953697E+03  0.22017384203E+03  0.00000000000E+00 0. -1.
         -5    1    3    3    0  503 -0.10748158962E+03  0.13559714753E+03 -0.97722353472E+02  0.19877280220E+03  0.47000000000E+01 0.  1.
         11    1    4    4    0    0 -0.13391317173E+02  0.50840932384E+02 -0.32184827444E+01  0.52673393782E+02  0.00000000000E+00 0. -1.
        -12    1    4    4    0    0  0.38590998305E+02  0.21268452791E+02 -0.59601398140E+02  0.74121109642E+02  0.00000000000E+00 0.  1.
</event>
<event>
12    1  0.8271773E-002  0.1833160E+03  0.7818608E-02  0.1164826E+00
         21   -1    0    0  501  502  0.00000000000E+00  0.00000000000E+00  0.75788354681E+03  0.75788354681E+03  0.00000000000E+00 0. -1.
         21   -1    0    0  502  503 -0.00000000000E+00 -0.00000000000E+00 -0.45890470418E+02  0.45890470418E+02  0.00000000000E+00 0. -1.
         -6    2    1    2    0  503  0.38764901770E+02  0.49332377427E+02  0.43519563459E+03  0.47222874214E+03  0.17224500999E+03 0.  0.
        -24    2    3    3    0    0  0.97283025484E+01  0.87976021035E+02  0.21392740297E+03  0.24569358900E+03  0.82255612491E+02 0.  0.
          6    2    1    2  501    0 -0.38764901770E+02 -0.49332377427E+02  0.27679744180E+03  0.33154527509E+03  0.17137399036E+03 0.  0.
         24    2    5    5    0    0 -0.88244854750E+02 -0.45253816139E+02  0.15658136383E+03  0.20139576179E+03  0.78787480616E+02 0.  0.
          5    1    5    5  501    0  0.49479952980E+02 -0.40785612885E+01  0.12021607797E+03  0.13014951330E+03  0.47000000000E+01 0. -1.
        -11    1    6    6    0    0 -0.10221933478E+03 -0.33093607855E+02  0.12546854105E+03  0.16518575628E+03  0.00000000000E+00 0.  1.
         12    1    6    6    0    0  0.13974480030E+02 -0.12160208284E+02  0.31112822782E+02  0.36210005511E+02  0.00000000000E+00 0. -1.
         -5    1    3    3    0  503  0.29036599222E+02 -0.38643643607E+02  0.22126823161E+03  0.22653515314E+03  0.47000000000E+01 0.  1.
         11    1    4    4    0    0 -0.30329637777E+02  0.11777248961E+02  0.39462510783E+02  0.51145677022E+02  0.00000000000E+00 0. -1.
        -12    1    4    4    0    0  0.40057940326E+02  0.76198772073E+02  0.17446489219E+03  0.19454791198E+03  0.00000000000E+00 0.  1.
</event>
<event>
12    1  0.8271773E-002  0.1956203E+03  0.7818608E-02  0.1153745E+00
         21   -1    0    0  503  502  0.00000000000E+00  0.00000000000E+00  0.85357147755E+02  0.85357147755E+02  0.00000000000E+00 0.  1.
         21   -1    0    0  501  503 -0.00000000000E+00 -0.00000000000E+00 -0.12928236786E+04  0.12928236786E+04  0.00000000000E+00 0. -1.
          6    2    1    2  501    0  0.44450207678E+02 -0.83938657213E+02 -0.11621923771E+04  0.11785408092E+04  0.17101403026E+03 0.  0.
         24    2    3    3    0    0 -0.22451854118E+02 -0.68717229122E+02 -0.93909353069E+03  0.94508254100E+03  0.77834481980E+02 0.  0.
         -6    2    1    2    0  502 -0.44450207678E+02  0.83938657213E+02 -0.45274153762E+02  0.19964001712E+03  0.16966103943E+03 0.  0.
        -24    2    5    5    0    0 -0.45458302143E+02 -0.73924968057E+01  0.10662905073E+02  0.92432552363E+02  0.79429043485E+02 0.  0.
          5    1    3    3  501    0  0.66902061797E+02 -0.15221428091E+02 -0.22309884638E+03  0.23345826823E+03  0.47000000000E+01 0. -1.
        -13    1    4    4    0    0  0.10941401460E+02 -0.10988359711E+02 -0.32191423898E+02  0.35731583895E+02  0.00000000000E+00 0.  1.
         14    1    4    4    0    0 -0.33393255579E+02 -0.57728869410E+02 -0.90690210680E+03  0.90935095711E+03  0.00000000000E+00 0. -1.
         -5    1    5    5    0  502  0.10080944650E+01  0.91331154018E+02 -0.55937058835E+02  0.10720746476E+03  0.47000000000E+01 0.  1.
         11    1    6    6    0    0 -0.88564767178E+01 -0.10951508841E+02 -0.32683014790E+02  0.35588652427E+02  0.00000000000E+00 0. -1.
        -12    1    6    6    0    0 -0.36601825426E+02  0.35590120356E+01  0.43345919863E+02  0.56843899936E+02  0.00000000000E+00 0.  1.
</event>
<event>
12    1  0.8271773E-002  0.1901916E+03  0.7818608E-02  0.1159556E+00
         21   -1    0    0  501  502  0.00000000000E+00  0.00000000000E+00  0.51852149741E+03  0.51852149741E+03  0.00000000000E+00 0.  1.
         21   -1    0    0  502  503 -0.00000000000E+00 -0.00000000000E+00 -0.69255729981E+02  0.69255729981E+02  0.00000000000E+00 0.  1.
         -6    2    1    2    0  503 -0.49355929363E+02  0.67613348620E+02  0.26479358803E+03  0.32281908653E+03  0.16458719783E+03 0.  0.
        -24    2    3    3    0    0 -0.14841912146E+02  0.27320151596E+02  0.42866519866E+02  0.94590094736E+02  0.78377767622E+02 0.  0.
          6    2    1    2  501    0  0.49355929363E+02 -0.67613348620E+02  0.18447217940E+03  0.26495814086E+03  0.17077839079E+03 0.  0.
         24    2    5    5    0    0  0.15762737516E+00 -0.10044206363E+03  0.11268853062E+03  0.17182823332E+03  0.82082908323E+02 0.  0.
          5    1    5    5  501    0  0.49198301987E+02  0.32828715009E+02  0.71783648777E+02  0.93129907545E+02  0.47000000000E+01 0. -1.
        -13    1    6    6    0    0  0.26174617852E+02 -0.68881360014E+02  0.10788102415E+03  0.13064481524E+03  0.00000000000E+00 0.  1.
         14    1    6    6    0    0 -0.26016990477E+02 -0.31560703615E+02  0.48075064718E+01  0.41183418079E+02  0.00000000000E+00 0. -1.
         -5    1    3    3    0  503 -0.34514017216E+02  0.40293197024E+02  0.22192706817E+03  0.22822899180E+03  0.47000000000E+01 0.  1.
         11    1    4    4    0    0  0.11883832073E+02 -0.22752027701E+02  0.22969928509E+02  0.34445578017E+02  0.00000000000E+00 0. -1.
        -12    1    4    4    0    0 -0.26725744220E+02  0.50072179298E+02  0.19896591357E+02  0.60144516719E+02  0.00000000000E+00 0.  1.
</event>
<event>
12    1  0.8271773E-002  0.2911386E+03  0.7818608E-02  0.1090191E+00
         21   -1    0    0  501  502  0.00000000000E+00  0.00000000000E+00  0.12714056760E+04  0.12714056760E+04  0.00000000000E+00 0. -1.
         21   -1    0    0  502  503 -0.00000000000E+00 -0.00000000000E+00 -0.82573077134E+02  0.82573077134E+02  0.00000000000E+00 0. -1.
         -6    2    1    2    0  503  0.26526754775E+01 -0.23161303747E+03  0.28755980640E+03  0.40684922857E+03  0.17083330096E+03 0.  0.
        -24    2    3    3    0    0  0.26846662208E+02 -0.24497460228E+03  0.25045478607E+03  0.36034382091E+03  0.79917272022E+02 0.  0.
          6    2    1    2  501    0 -0.26526754775E+01  0.23161303747E+03  0.90127279245E+03  0.94712952455E+03  0.17638042422E+03 0.  0.
         24    2    5    5    0    0  0.59566785846E+00  0.33298887821E+02  0.20671534827E+03  0.22479221626E+03  0.81799355309E+02 0.  0.
          5    1    5    5  501    0 -0.32483433360E+01  0.19831414965E+03  0.69455744418E+03  0.72233730829E+03  0.47000000000E+01 0. -1.
        -11    1    6    6    0    0  0.32123618520E+01  0.57049778093E+02  0.97643931936E+02  0.11313414115E+03  0.00000000000E+00 0.  1.
         12    1    6    6    0    0 -0.26166939935E+01 -0.23750890272E+02  0.10907141633E+03  0.11165807511E+03  0.00000000000E+00 0. -1.
         -5    1    3    3    0  503 -0.24193986731E+02  0.13361564810E+02  0.37105020330E+02  0.46505407661E+02  0.47000000000E+01 0.  1.
         13    1    4    4    0    0  0.27265717402E+02 -0.18525394839E+03  0.13661324267E+03  0.23178788323E+03  0.00000000000E+00 0. -1.
        -14    1    4    4    0    0 -0.41905519396E+00 -0.59720653892E+02  0.11384154341E+03  0.12855593769E+03  0.00000000000E+00 0.  1.
</event>
<event>
12    1  0.8271773E-002  0.1812057E+03  0.7818608E-02  0.1166699E+00
         21   -1    0    0  501  502  0.00000000000E+00  0.00000000000E+00  0.46878714690E+03  0.46878714690E+03  0.00000000000E+00 0. -1.
         21   -1    0    0  502  503 -0.00000000000E+00 -0.00000000000E+00 -0.78846010539E+02  0.78846010539E+02  0.00000000000E+00 0. -1.
         -6    2    1    2    0  503 -0.43061238516E+02 -0.38330540321E+02  0.10311433671E+03  0.20848999029E+03  0.17179059646E+03 0.  0.
        -24    2    3    3    0    0 -0.67296711953E+02 -0.57028856625E+02  0.20685052657E+02  0.12043510925E+03  0.79344856220E+02 0.  0.
          6    2    1    2  501    0  0.43061238516E+02  0.38330540321E+02  0.28682679965E+03  0.33914316715E+03  0.17153709291E+03 0.  0.
         24    2    5    5    0    0  0.48413439104E+02  0.42987377263E+02  0.73566658053E+02  0.12571329535E+03  0.78740102626E+02 0.  0.
          5    1    5    5  501    0 -0.53522005885E+01 -0.46568369423E+01  0.21326014160E+03  0.21342987180E+03  0.47000000000E+01 0. -1.
        -11    1    6    6    0    0  0.17479591577E+02  0.51518013029E+02  0.11153139894E+02  0.55534082487E+02  0.00000000000E+00 0.  1.
         12    1    6    6    0    0  0.30933847527E+02 -0.85306357664E+01  0.62413518159E+02  0.70179212866E+02  0.00000000000E+00 0. -1.
         -5    1    3    3    0  503  0.24235473438E+02  0.18698316305E+02  0.82429284053E+02  0.88054881039E+02  0.47000000000E+01 0.  1.
         11    1    4    4    0    0  0.14146239466E+02 -0.20725028606E+02 -0.86874275178E+01  0.26553988375E+02  0.00000000000E+00 0. -1.
        -12    1    4    4    0    0 -0.81442951420E+02 -0.36303828019E+02  0.29372480175E+02  0.93881120873E+02  0.00000000000E+00 0.  1.
</event>
<event>
12    1  0.8271773E-002  0.2141528E+03  0.7818608E-02  0.1142375E+00
         21   -1    0    0  503  502  0.00000000000E+00  0.00000000000E+00  0.70013727926E+03  0.70013727926E+03  0.00000000000E+00 0.  1.
         21   -1    0    0  501  503 -0.00000000000E+00 -0.00000000000E+00 -0.95498888070E+02  0.95498888070E+02  0.00000000000E+00 0.  1.
          6    2    1    2  501    0 -0.81017752063E+02  0.39233214075E+02  0.49198459529E+02  0.20034216978E+03  0.17208537224E+03 0.  0.
         24    2    3    3    0    0 -0.60632098983E+02  0.92910994948E+02  0.31995931654E+02  0.14021816479E+03  0.79553062080E+02 0.  0.
         -6    2    1    2    0  502  0.81017752063E+02 -0.39233214075E+02  0.55543993166E+03  0.59529399755E+03  0.19431496236E+03 0.  0.
        -24    2    5    5    0    0  0.12373040318E+03 -0.60757846739E+02  0.41316935085E+03  0.44512513080E+03  0.91797281946E+02 0.  0.
          5    1    3    3  501    0 -0.20385653080E+02 -0.53677780873E+02  0.17202527876E+02  0.60124004992E+02  0.47000000000E+01 0. -1.
        -11    1    4    4    0    0 -0.49140074415E+02  0.21135917445E+02 -0.12576601413E+02  0.54951295007E+02  0.00000000000E+00 0.  1.
         12    1    4    4    0    0 -0.11492024568E+02  0.71775077503E+02  0.44572533067E+02  0.85266869787E+02  0.00000000000E+00 0. -1.
         -5    1    5    5    0  502 -0.42712651117E+02  0.21524632664E+02  0.14227058081E+03  0.15016886675E+03  0.47000000000E+01 0.  1.
         13    1    6    6    0    0  0.24356128106E+02 -0.16672588829E+01  0.20958631568E+03  0.21100337545E+03  0.00000000000E+00 0. -1.
        -14    1    6    6    0    0  0.99374275075E+02 -0.59090587856E+02  0.20358303517E+03  0.23412175535E+03  0.00000000000E+00 0.  1.
</event>
<event>
12    1  0.8271773E-002  0.2904333E+03  0.7818608E-02  0.1090158E+00
         21   -1    0    0  501  502  0.00000000000E+00  0.00000000000E+00  0.10802978263E+03  0.10802978263E+03  0.00000000000E+00 0.  1.
         21   -1    0    0  502  503 -0.00000000000E+00 -0.00000000000E+00 -0.10493271708E+04  0.10493271708E+04  0.00000000000E+00 0. -1.
         -6    2    1    2    0  503 -0.82064549710E+01 -0.23333716135E+03 -0.76392867071E+03  0.81727506808E+03  0.17273663825E+03 0.  0.
        -24    2    3    3    0    0  0.21332476181E+02 -0.20720917230E+03 -0.46497996527E+03  0.51569980591E+03  0.79681905647E+02 0.  0.
          6    2    1    2  501    0  0.82064549710E+01  0.23333716135E+03 -0.17736871744E+03  0.34008188534E+03  0.17228595427E+03 0.  0.
         24    2    5    5    0    0 -0.37269221745E+01  0.10740136321E+03 -0.16519946044E+03  0.21291108854E+03  0.80568772635E+02 0.  0.
          5    1    5    5  501    0  0.11933377145E+02  0.12593579814E+03 -0.12169256998E+02  0.12717079680E+03  0.47000000000E+01 0. -1.
        -13    1    6    6    0    0  0.15907209551E+02  0.11191993879E+03 -0.12933492456E+03  0.17177495372E+03  0.00000000000E+00 0.  1.
         14    1    6    6    0    0 -0.19634131726E+02 -0.45185755790E+01 -0.35864535874E+02  0.41136134813E+02  0.00000000000E+00 0. -1.
         -5    1    3    3    0  503 -0.29538931152E+02 -0.26127989047E+02 -0.29894870544E+03  0.30157526216E+03  0.47000000000E+01 0.  1.
         13    1    4    4    0    0  0.35235803428E+02 -0.19852067064E+03 -0.45150375436E+03  0.49447715692E+03  0.00000000000E+00 0. -1.
        -14    1    4    4    0    0 -0.13903327248E+02 -0.86885016602E+01 -0.13476210911E+02  0.21222648991E+02  0.00000000000E+00 0.  1.
</event>
<event>
12    1  0.8271773E-002  0.1886582E+03  0.7818608E-02  0.1159747E+00
         21   -1    0    0  501  502  0.00000000000E+00  0.00000000000E+00  0.76811132913E+03  0.76811132913E+03  0.00000000000E+00 0. -1.
         21   -1    0    0  502  503 -0.00000000000E+00 -0.00000000000E+00 -0.68383277261E+02  0.68383277261E+02  0.00000000000E+00 0. -1.
         -6    2    1    2    0  503 -0.49253025944E+02  0.58989205578E+02  0.11217184184E+03  0.21948672220E+03  0.17229716243E+03 0.  0.
        -24    2    3    3    0    0 -0.75727628805E+02  0.19837446223E+02  0.16670606069E+02  0.11282679115E+03  0.79522183429E+02 0.  0.
          6    2    1    2  501    0  0.49253025944E+02 -0.58989205578E+02  0.58755621002E+03  0.61700788419E+03  0.17196174655E+03 0.  0.
         24    2    5    5    0    0  0.20614423245E+02 -0.41874609338E+02  0.13511735071E+03  0.16331625942E+03  0.78975089586E+02 0.  0.
          5    1    5    5  501    0  0.28638602699E+02 -0.17114596240E+02  0.45243885931E+03  0.45369162477E+03  0.47000000000E+01 0. -1.
        -13    1    6    6    0    0 -0.14597983304E+02 -0.52085096266E+02  0.91950405707E+02  0.10668099868E+03  0.00000000000E+00 0.  1.
         14    1    6    6    0    0  0.35212406549E+02  0.10210486928E+02  0.43166945003E+02  0.56635260741E+02  0.00000000000E+00 0. -1.
         -5    1    3    3    0  503  0.26474602860E+02  0.39151759356E+02  0.95501235773E+02  0.10665993105E+03  0.47000000000E+01 0.  1.
         13    1    4    4    0    0 -0.15115394289E+02  0.21583547764E+02 -0.27286650779E+02  0.37932650703E+02  0.00000000000E+00 0. -1.
        -14    1    4    4    0    0 -0.60612234516E+02 -0.17461015415E+01  0.43957256848E+02  0.74894140446E+02  0.00000000000E+00 0.  1.
</event>
<event>
12    1  0.8271773E-002  0.2923827E+03  0.7818608E-02  0.1089148E+00
         21   -1    0    0  501  502  0.00000000000E+00  0.00000000000E+00  0.88601458896E+03  0.88601458896E+03  0.00000000000E+00 0.  1.
         21   -1    0    0  502  503 -0.00000000000E+00 -0.00000000000E+00 -0.10689772436E+03  0.10689772436E+03  0.00000000000E+00 0.  1.
         -6    2    1    2    0  503 -0.23244743739E+03  0.43463992438E+02  0.23376932845E+03  0.37412998705E+03  0.17147658294E+03 0.  0.
        -24    2    3    3    0    0 -0.18340557218E+03 -0.18044326381E+02  0.11474377780E+03  0.23138003246E+03  0.80046132047E+02 0.  0.
          6    2    1    2  501    0  0.23244743739E+03 -0.43463992438E+02  0.54534753615E+03  0.61878232627E+03  0.17194970876E+03 0.  0.
         24    2    5    5    0    0  0.16595292777E+03 -0.24944895425E+02  0.50631508567E+03  0.53934619499E+03  0.79854430264E+02 0.  0.
          5    1    5    5  501    0  0.66494509612E+02 -0.18519097012E+02  0.39032450481E+02  0.79436131283E+02  0.47000000000E+01 0. -1.
        -11    1    6    6    0    0  0.12946673471E+03 -0.50931267531E+02  0.34692972455E+03  0.37378585204E+03  0.00000000000E+00 0.  1.
         12    1    6    6    0    0  0.36486193060E+02  0.25986372106E+02  0.15938536112E+03  0.16556034295E+03  0.00000000000E+00 0. -1.
         -5    1    3    3    0  503 -0.49041865203E+02  0.61508318819E+02  0.11902555066E+03  0.14274995459E+03  0.47000000000E+01 0.  1.
         13    1    4    4    0    0 -0.14625752639E+00 -0.10920677633E+02 -0.53487818472E+01  0.12161087882E+02  0.00000000000E+00 0. -1.
        -14    1    4    4    0    0 -0.18325931466E+03 -0.71236487482E+01  0.12009255965E+03  0.21921894458E+03  0.00000000000E+00 0.  1.
</event>
<event>
12    1  0.8271773E-002  0.1861244E+03  0.7818608E-02  0.1163185E+00
         21   -1    0    0  501  502  0.00000000000E+00  0.00000000000E+00  0.10523502657E+03  0.10523502657E+03  0.00000000000E+00 0.  1.
         21   -1    0    0  502  503 -0.00000000000E+00 -0.00000000000E+00 -0.70516930927E+03  0.70516930927E+03  0.00000000000E+00 0.  1.
         -6    2    1    2    0  503  0.28339098395E+02  0.64194582611E+02 -0.60114714672E+03  0.62930133938E+03  0.17238977578E+03 0.  0.
        -24    2    3    3    0    0  0.18363500853E+02  0.63816966387E+01 -0.53153512586E+03  0.53814342266E+03  0.81797366215E+02 0.  0.
          6    2    1    2  501    0 -0.28339098395E+02 -0.64194582611E+02  0.12128640268E+01  0.18110299646E+03  0.16695141615E+03 0.  0.
         24    2    5    5    0    0 -0.20063202011E+02 -0.44921325078E+02 -0.61691628957E+02  0.11462733058E+03  0.83145115981E+02 0.  0.
          5    1    5    5  501    0 -0.82758963838E+01 -0.19273257533E+02  0.62904492984E+02  0.66475665882E+02  0.47000000000E+01 0. -1.
        -11    1    6    6    0    0  0.83474097808E+01 -0.18311304596E+02  0.17317484744E+02  0.26549546209E+02  0.00000000000E+00 0.  1.
         12    1    6    6    0    0 -0.28410611792E+02 -0.26610020482E+02 -0.79009113701E+02  0.88077784374E+02  0.00000000000E+00 0. -1.
         -5    1    3    3    0  503  0.99755975415E+01  0.57812885972E+02 -0.69612020866E+02  0.91157916715E+02  0.47000000000E+01 0.  1.
         11    1    4    4    0    0  0.13280224166E+02  0.23182742151E+02 -0.53633863857E+02  0.59919906873E+02  0.00000000000E+00 0. -1.
        -12    1    4    4    0    0  0.50832766878E+01 -0.16801045512E+02 -0.47790126200E+03  0.47822351579E+03  0.00000000000E+00 0.  1.
</event>
<event>
12    1  0.8271773E-002  0.1817344E+03  0.7818608E-02  0.1166584E+00
         21   -1    0    0  501  502  0.00000000000E+00  0.00000000000E+00  0.11529124645E+03  0.11529124645E+03  0.00000000000E+00 0.  1.
         21   -1    0    0  502  503 -0.00000000000E+00 -0.00000000000E+00 -0.31537438633E+03  0.31537438633E+03  0.00000000000E+00 0.  1.
         -6    2    1    2    0  503  0.40569237655E+02 -0.38355997157E+02 -0.16799864312E+03  0.24612075536E+03  0.17098197732E+03 0.  0.
        -24    2    3    3    0    0  0.46514462567E+02 -0.32523831496E+01 -0.18476127373E+03  0.20648888433E+03  0.79540919392E+02 0.  0.
          6    2    1    2  501    0 -0.40569237655E+02  0.38355997157E+02 -0.32084496762E+02  0.18454487742E+03  0.17294609359E+03 0.  0.
         24    2    5    5    0    0 -0.90402108678E+02  0.41342609939E+02 -0.39947596842E+02  0.13378905773E+03  0.80137062735E+02 0.  0.
          5    1    5    5  501    0  0.49832871023E+02 -0.29866127825E+01  0.78631000808E+01  0.50755819697E+02  0.47000000000E+01 0. -1.
        -11    1    6    6    0    0 -0.54968551944E+02  0.18518336819E+02  0.19254208448E+02  0.61116242066E+02  0.00000000000E+00 0.  1.
         12    1    6    6    0    0 -0.35433556733E+02  0.22824273120E+02 -0.59201805290E+02  0.72672815659E+02  0.00000000000E+00 0. -1.
         -5    1    3    3    0  503 -0.59452249119E+01 -0.35103614007E+02  0.16762630618E+02  0.39631871024E+02  0.47000000000E+01 0.  1.
         11    1    4    4    0    0  0.20177575579E+02  0.13223836088E+02 -0.57481003603E+01  0.24800101912E+02  0.00000000000E+00 0. -1.
        -12    1    4    4    0    0  0.26336886988E+02 -0.16476219237E+02 -0.17901317337E+03  0.18168878242E+03  0.00000000000E+00 0.  1.
</event>
<event>
12    1  0.8271773E-002  0.1965844E+03  0.7818608E-02  0.1155598E+00
         21   -1    0    0  501  502  0.00000000000E+00  0.00000000000E+00  0.26952412990E+03  0.26952412990E+03  0.00000000000E+00 0. -1.
         21   -1    0    0  502  503 -0.00000000000E+00 -0.00000000000E+00 -0.55525709025E+03  0.55525709025E+03  0.00000000000E+00 0. -1.
         -6    2    1    2    0  503  0.42363156945E+02 -0.45032252783E+02 -0.50084207540E+03  0.53337540303E+03  0.17269625130E+03 0.  0.
        -24    2    3    3    0    0  0.52624792808E+02 -0.49902726954E+02 -0.50777903288E+03  0.51926037316E+03  0.80821642669E+02 0.  0.
          6    2    1    2  501    0 -0.42363156945E+02  0.45032252783E+02  0.21510911506E+03  0.29140581712E+03  0.18660889049E+03 0.  0.
         24    2    5    5    0    0 -0.76476134930E+01 -0.45588736024E+02  0.66084156495E+02  0.11350736056E+03  0.79874816543E+02 0.  0.
          5    1    5    5  501    0 -0.34715543452E+02  0.90620988807E+02  0.14902495856E+03  0.17789845656E+03  0.47000000000E+01 0. -1.
        -11    1    6    6    0    0  0.12575950705E+01 -0.85766010469E+00 -0.17885788854E+02  0.17950447603E+02  0.00000000000E+00 0.  1.
         12    1    6    6    0    0 -0.89052085635E+01 -0.44731075919E+02  0.83969945348E+02  0.95556912959E+02  0.00000000000E+00 0. -1.
         -5    1    3    3    0  503 -0.10261635863E+02  0.48704741712E+01  0.69369574808E+01  0.14115029874E+02  0.47000000000E+01 0.  1.
         13    1    4    4    0    0  0.19144477158E+02  0.21228983595E+02 -0.10170266957E+03  0.10564380600E+03  0.00000000000E+00 0. -1.
        -14    1    4    4    0    0  0.33480315651E+02 -0.71131710550E+02 -0.40607636332E+03  0.41361656716E+03  0.00000000000E+00 0.  1.
</event>
<event>
12    1  0.8271773E-002  0.2163295E+03  0.7818608E-02  0.1136930E+00
         21   -1    0    0  503  502  0.00000000000E+00  0.00000000000E+00  0.61846096764E+03  0.61846096764E+03  0.00000000000E+00 0.  1.
         21   -1    0    0  501  503 -0.00000000000E+00 -0.00000000000E+00 -0.75546610905E+02  0.75546610905E+02  0.00000000000E+00 0. -1.
          6    2    1    2  501    0  0.11336138597E+03  0.62800838148E+02  0.24559606652E+03  0.32631668002E+03  0.17137794102E+03 0.  0.
         24    2    3    3    0    0  0.10850768039E+03  0.69272707959E+02  0.26484751944E+03  0.30491219460E+03  0.79086111892E+02 0.  0.
         -6    2    1    2    0  502 -0.11336138597E+03 -0.62800838148E+02  0.29731829021E+03  0.36769089852E+03  0.17321570962E+03 0.  0.
        -24    2    5    5    0    0 -0.66524277776E+02 -0.65724756161E+02  0.84649316539E+02  0.14985507419E+03  0.80906201019E+02 0.  0.
          5    1    3    3  501    0  0.48537055763E+01 -0.64718698110E+01 -0.19251452915E+02  0.21404485418E+02  0.47000000000E+01 0. -1.
        -13    1    4    4    0    0 -0.50652409626E+01  0.23927873981E+02  0.21497932956E+02  0.32563183822E+02  0.00000000000E+00 0.  1.
         14    1    4    4    0    0  0.11357292135E+03  0.45344833978E+02  0.24334958648E+03  0.27234901078E+03  0.00000000000E+00 0. -1.
         -5    1    5    5    0  502 -0.46837108191E+02  0.29239180133E+01  0.21266897367E+03  0.21783582433E+03  0.47000000000E+01 0.  1.
         13    1    6    6    0    0 -0.85026548951E+02 -0.46405324101E+02  0.64726593391E+02  0.11650107306E+03  0.00000000000E+00 0. -1.
        -14    1    6    6    0    0  0.18502271176E+02 -0.19319432060E+02  0.19922723148E+02  0.33354001131E+02  0.00000000000E+00 0.  1.
</event>
<event>
12    1  0.8271773E-002  0.2809459E+03  0.7818608E-02  0.1095745E+00
         21   -1    0    0  503  502  0.00000000000E+00  0.00000000000E+00  0.49014885131E+03  0.49014885131E+03  0.00000000000E+00 0.  1.
         21   -1    0    0  501  503 -0.00000000000E+00 -0.00000000000E+00 -0.51075171617E+03  0.51075171617E+03  0.00000000000E+00 0.  1.
          6    2    1    2  501    0 -0.29895193241E+02 -0.22052707948E+03 -0.42579120036E+03  0.50784052605E+03  0.16455375484E+03 0.  0.
         24    2    3    3    0    0 -0.66673557764E+02 -0.13427666804E+03 -0.19416985760E+03  0.25791590143E+03  0.79643529084E+02 0.  0.
         -6    2    1    2    0  502  0.29895193241E+02  0.22052707948E+03  0.40518833550E+03  0.49306004143E+03  0.17147799236E+03 0.  0.
        -24    2    5    5    0    0  0.80221844719E+02  0.14168601070E+03  0.21071536398E+03  0.27721168580E+03  0.77038199143E+02 0.  0.
          5    1    3    3  501    0  0.36778364522E+02 -0.86250411445E+02 -0.23162134276E+03  0.24992462462E+03  0.47000000000E+01 0. -1.
        -11    1    4    4    0    0 -0.14452456838E+02 -0.11184692643E+03 -0.12394034156E+03  0.16757033367E+03  0.00000000000E+00 0.  1.
         12    1    4    4    0    0 -0.52221100925E+02 -0.22429741611E+02 -0.70229516044E+02  0.90345567763E+02  0.00000000000E+00 0. -1.
         -5    1    5    5    0  502 -0.50326651478E+02  0.78841068781E+02  0.19447297153E+03  0.21584835563E+03  0.47000000000E+01 0.  1.
         11    1    6    6    0    0  0.69227311274E+02  0.97883611875E+02  0.19591452371E+03  0.22968701030E+03  0.00000000000E+00 0. -1.
        -12    1    6    6    0    0  0.10994533445E+02  0.43802398825E+02  0.14800840270E+02  0.47524675498E+02  0.00000000000E+00 0.  1.
</event>
<event>
12    1  0.8271773E-002  0.1940950E+03  0.7818608E-02  0.1154996E+00
         21   -1    0    0  501  502  0.00000000000E+00  0.00000000000E+00  0.10585283811E+03  0.10585283811E+03  0.00000000000E+00 0.  1.
         21   -1    0    0  502  503 -0.00000000000E+00 -0.00000000000E+00 -0.47445038157E+03  0.47445038157E+03  0.00000000000E+00 0.  1.
         -6    2    1    2    0  503 -0.58279848406E+02 -0.66484117594E+02 -0.32995066387E+03  0.38239808833E+03  0.17188420156E+03 0.  0.
        -24    2    3    3    0    0 -0.84765808609E+02  0.51456585618E+01 -0.20196632980E+03  0.23328601407E+03  0.80126436838E+02 0.  0.
          6    2    1    2  501    0  0.58279848406E+02  0.66484117594E+02 -0.38646879590E+02  0.19790513135E+03  0.17278941256E+03 0.  0.
         24    2    5    5    0    0  0.34341814176E+02 -0.10973324145E+02 -0.43195247121E+02  0.11656963842E+03  0.10209249328E+03 0.  0.
          5    1    5    5  501    0  0.23938034230E+02  0.77457441740E+02  0.45483675312E+01  0.81335492935E+02  0.47000000000E+01 0. -1.
        -11    1    6    6    0    0 -0.25230486134E+02 -0.16265120157E+02  0.14616962686E+02  0.33388428571E+02  0.00000000000E+00 0.  1.
         12    1    6    6    0    0  0.59572300310E+02  0.52917960113E+01 -0.57812209807E+02  0.83181209849E+02  0.00000000000E+00 0. -1.
         -5    1    3    3    0  503  0.26485960203E+02 -0.71629776156E+02 -0.12798433408E+03  0.14911207426E+03  0.47000000000E+01 0.  1.
         13    1    4    4    0    0 -0.88415260744E+02 -0.12873882318E+02 -0.19332084773E+03  0.21296935307E+03  0.00000000000E+00 0. -1.
        -14    1    4    4    0    0  0.36494521345E+01  0.18019540879E+02 -0.86454820665E+01  0.20316661009E+02  0.00000000000E+00 0.  1.
</event>
<event>
12    1  0.8271773E-002  0.3869760E+03  0.7818608E-02  0.1048452E+00
         21   -1    0    0  503  502  0.00000000000E+00  0.00000000000E+00  0.20042959163E+04  0.20042959163E+04  0.00000000000E+00 0.  1.
         21   -1    0    0  501  503 -0.00000000000E+00 -0.00000000000E+00 -0.74621044397E+02  0.74621044397E+02  0.00000000000E+00 0. -1.
          6    2    1    2  501    0  0.34546941992E+03  0.26512567021E+02  0.99067500946E+03  0.10633032669E+04  0.17065997396E+03 0.  0.
         24    2    3    3    0    0  0.32874619183E+03  0.39325210318E+01  0.77748643289E+03  0.84821959942E+03  0.83077145775E+02 0.  0.
         -6    2    1    2    0  502 -0.34546941992E+03 -0.26512567021E+02  0.93899986247E+03  0.10156136938E+04  0.17233222873E+03 0.  0.
        -24    2    5    5    0    0 -0.34135339245E+03 -0.37734194498E+02  0.78052717428E+03  0.85662139997E+03  0.81434299372E+02 0.  0.
          5    1    3    3  501    0  0.16723228091E+02  0.22580045989E+02  0.21318857656E+03  0.21508366747E+03  0.47000000000E+01 0. -1.
        -13    1    4    4    0    0  0.38051319172E+02 -0.18500183543E+02  0.15774919088E+03  0.16332472840E+03  0.00000000000E+00 0.  1.
         14    1    4    4    0    0  0.29069487266E+03  0.22432704575E+02  0.61973724201E+03  0.68489487102E+03  0.00000000000E+00 0. -1.
         -5    1    5    5    0  502 -0.41160274674E+01  0.11221627477E+02  0.15847268819E+03  0.15899229386E+03  0.47000000000E+01 0.  1.
         13    1    6    6    0    0 -0.10936497997E+03 -0.42751585998E+02  0.20796547608E+03  0.23882637248E+03  0.00000000000E+00 0. -1.
        -14    1    6    6    0    0 -0.23198841249E+03  0.50173914996E+01  0.57256169820E+03  0.61779502749E+03  0.00000000000E+00 0.  1.
</event>
<event>
12    1  0.8271773E-002  0.2358347E+03  0.7818608E-02  0.1122724E+00
         21   -1    0    0  501  502  0.00000000000E+00  0.00000000000E+00  0.19261550096E+03  0.19261550096E+03  0.00000000000E+00 0. -1.
         21   -1    0    0  502  503 -0.00000000000E+00 -0.00000000000E+00 -0.29314879468E+03  0.29314879468E+03  0.00000000000E+00 0. -1.
         -6    2    1    2    0  503 -0.12745699017E+03 -0.97652356645E+02 -0.82831812299E+02  0.24926622191E+03  0.17173023366E+03 0.  0.
        -24    2    3    3    0    0 -0.15654920175E+03 -0.57076754788E+02 -0.67805077725E+02  0.19691520480E+03  0.80079090963E+02 0.  0.
          6    2    1    2  501    0  0.12745699017E+03  0.97652356645E+02 -0.17701481415E+02  0.23649807373E+03  0.17273311591E+03 0.  0.
         24    2    5    5    0    0  0.35610201972E+02 -0.14606983322E+02  0.96685648366E+01  0.88818686734E+02  0.79459596783E+02 0.  0.
          5    1    5    5  501    0  0.91846788198E+02  0.11225933997E+03 -0.27370046251E+02  0.14767938700E+03  0.47000000000E+01 0. -1.
        -13    1    6    6    0    0  0.21584063081E+02 -0.36772772251E+02 -0.21769253440E+02  0.47874930323E+02  0.00000000000E+00 0.  1.
         14    1    6    6    0    0  0.14026138890E+02  0.22165788929E+02  0.31437818276E+02  0.40943756410E+02  0.00000000000E+00 0. -1.
         -5    1    3    3    0  503  0.29092211577E+02 -0.40575601857E+02 -0.15026734574E+02  0.52351017110E+02  0.47000000000E+01 0.  1.
         13    1    4    4    0    0 -0.13222745815E+03 -0.41879548233E+02 -0.85765862140E+02  0.16307599565E+03  0.00000000000E+00 0. -1.
        -14    1    4    4    0    0 -0.24321743598E+02 -0.15197206555E+02  0.17960784415E+02  0.33839209145E+02  0.00000000000E+00 0.  1.
</event>
<event>
12    1  0.8271773E-002  0.2598838E+03  0.7818608E-02  0.1107237E+00
         21   -1    0    0  503  502  0.00000000000E+00  0.00000000000E+00  0.30984584444E+03  0.30984584444E+03  0.00000000000E+00 0.  1.
         21   -1    0    0  501  503 -0.00000000000E+00 -0.00000000000E+00 -0.27048065039E+03  0.27048065039E+03  0.00000000000E+00 0.  1.
          6    2    1    2  501    0  0.33638865335E+02 -0.19207019697E+03 -0.10831634571E+03  0.28155287836E+03  0.17180529311E+03 0.  0.
         24    2    3    3    0    0  0.28597733744E+02 -0.19233017598E+03 -0.13776689083E+03  0.25130547839E+03  0.79787218852E+02 0.  0.
         -6    2    1    2    0  502 -0.33638865335E+02  0.19207019697E+03  0.14768153976E+03  0.29877361648E+03  0.17156136771E+03 0.  0.
        -24    2    5    5    0    0  0.19250658180E+02  0.14689596307E+03  0.15494632727E+03  0.22868167512E+03  0.79611132340E+02 0.  0.
          5    1    3    3  501    0  0.50411315916E+01  0.25997901238E+00  0.29450545121E+02  0.30247399967E+02  0.47000000000E+01 0. -1.
        -13    1    4    4    0    0 -0.26892448269E+02 -0.86008857857E+02 -0.63525815405E+02  0.11025541541E+03  0.00000000000E+00 0.  1.
         14    1    4    4    0    0  0.55490182013E+02 -0.10632131812E+03 -0.74241075428E+02  0.14105006298E+03  0.00000000000E+00 0. -1.
         -5    1    5    5    0  502 -0.52889523515E+02  0.45174233899E+02 -0.72647875091E+01  0.70091941360E+02  0.47000000000E+01 0.  1.
         13    1    6    6    0    0  0.38513514442E+02  0.11214917512E+03  0.77553746277E+02  0.14168737359E+03  0.00000000000E+00 0. -1.
        -14    1    6    6    0    0 -0.19262856262E+02  0.34746787951E+02  0.77392580997E+02  0.86994301524E+02  0.00000000000E+00 0.  1.
</event>
<event>
12    1  0.8271773E-002  0.2993822E+03  0.7818608E-02  0.1085888E+00
         21   -1    0    0  501  502  0.00000000000E+00  0.00000000000E+00  0.16842129822E+03  0.16842129822E+03  0.00000000000E+00 0. -1.
         21   -1    0    0  502  503 -0.00000000000E+00 -0.00000000000E+00 -0.53987598348E+03  0.53987598348E+03  0.00000000000E+00 0. -1.
         -6    2    1    2    0  503 -0.92171308875E+02 -0.22339586325E+03 -0.24033784231E+03  0.38391659971E+03  0.17671563369E+03 0.  0.
        -24    2    3    3    0    0 -0.65262117527E+02 -0.11681620107E+03 -0.47478743487E+02  0.16188045182E+03  0.77755262089E+02 0.  0.
          6    2    1    2  501    0  0.92171308875E+02  0.22339586325E+03 -0.13111684295E+03  0.32438068199E+03  0.17213349020E+03 0.  0.
         24    2    5    5    0    0 -0.14985036752E+02  0.13307984302E+03 -0.57305088262E+02  0.16592017888E+03  0.79440774621E+02 0.  0.
          5    1    5    5  501    0  0.10715634563E+03  0.90316020222E+02 -0.73811754689E+02  0.15846050311E+03  0.47000000000E+01 0. -1.
        -11    1    6    6    0    0  0.77349084229E+01 -0.41757232041E+00  0.11624820812E+02  0.13969238843E+02  0.00000000000E+00 0.  1.
         12    1    6    6    0    0 -0.22719945175E+02  0.13349741534E+03 -0.68929909074E+02  0.15195094003E+03  0.00000000000E+00 0. -1.
         -5    1    3    3    0  503 -0.26909191348E+02 -0.10657966217E+03 -0.19285909882E+03  0.22203614788E+03  0.47000000000E+01 0.  1.
         11    1    4    4    0    0 -0.57134782184E+02 -0.41410436911E+02 -0.49193387058E+02  0.86018584913E+02  0.00000000000E+00 0. -1.
        -12    1    4    4    0    0 -0.81273353430E+01 -0.75405764161E+02  0.17146435706E+01  0.75861866910E+02  0.00000000000E+00 0.  1.
</event>
<event>
12    1  0.8271773E-002  0.2495810E+03  0.7818608E-02  0.1113643E+00
         21   -1    0    0  501  502  0.00000000000E+00  0.00000000000E+00  0.17537311198E+03  0.17537311198E+03  0.00000000000E+00 0. -1.
         21   -1    0    0  502  503 -0.00000000000E+00 -0.00000000000E+00 -0.86202713659E+03  0.86202713659E+03  0.00000000000E+00 0.  1.
         -6    2    1    2    0  503 -0.11601520273E+03  0.13601259329E+03 -0.74118540428E+03  0.78193137907E+03  0.17349906413E+03 0.  0.
        -24    2    3    3    0    0 -0.22976822350E+02  0.94611911867E+02 -0.56089044171E+03  0.57481179965E+03  0.79568644527E+02 0.  0.
          6    2    1    2  501    0  0.11601520273E+03 -0.13601259329E+03  0.54531379671E+02  0.25546886951E+03  0.17416003881E+03 0.  0.
         24    2    5    5    0    0 -0.39272041700E+01 -0.25544398180E+02 -0.87906333692E-01  0.83437594707E+02  0.79334010815E+02 0.  0.
          5    1    5    5  501    0  0.11994240690E+03 -0.11046819512E+03  0.54619286005E+02  0.17203127480E+03  0.47000000000E+01 0. -1.
        -13    1    6    6    0    0 -0.29380392929E+02 -0.27430280467E+02  0.25254458722E+02  0.47470153366E+02  0.00000000000E+00 0.  1.
         14    1    6    6    0    0  0.25453188759E+02  0.18858822878E+01 -0.25342365056E+02  0.35967441341E+02  0.00000000000E+00 0. -1.
         -5    1    3    3    0  503 -0.93038380385E+02  0.41400681428E+02 -0.18029496258E+03  0.20711957942E+03  0.47000000000E+01 0.  1.
         11    1    4    4    0    0  0.27702962935E+02  0.52688650839E+02 -0.29055460192E+03  0.29658982582E+03  0.00000000000E+00 0. -1.
        -12    1    4    4    0    0 -0.50679785284E+02  0.41923261028E+02 -0.27033583978E+03  0.27822197383E+03  0.00000000000E+00 0.  1.
</event>
<event>
12    1  0.8271773E-002  0.2353407E+03  0.7818608E-02  0.1125712E+00
         21   -1    0    0  503  502  0.00000000000E+00  0.00000000000E+00  0.13080957554E+03  0.13080957554E+03  0.00000000000E+00 0. -1.
         21   -1    0    0  501  503 -0.00000000000E+00 -0.00000000000E+00 -0.44397800785E+03  0.44397800785E+03  0.00000000000E+00 0.  1.
          6    2    1    2  501    0 -0.10486469534E+03  0.88202928532E+02 -0.24650451101E+03  0.33018726142E+03  0.17170554075E+03 0.  0.
         24    2    3    3    0    0 -0.70884958193E+02  0.10083323788E+03 -0.97505567482E+02  0.17676978385E+03  0.80920959175E+02 0.  0.
         -6    2    1    2    0  502  0.10486469534E+03 -0.88202928532E+02 -0.66663921297E+02  0.24460032198E+03  0.19133446678E+03 0.  0.
        -24    2    5    5    0    0 -0.24308270823E+02 -0.17770506768E+02 -0.47013671866E+02  0.96092397855E+02  0.78209850032E+02 0.  0.
          5    1    3    3  501    0 -0.33979737149E+02 -0.12630309343E+02 -0.14899894353E+03  0.15341747757E+03  0.47000000000E+01 0. -1.
        -13    1    4    4    0    0 -0.34141951478E+02  0.57319533840E+01 -0.57766935124E+02  0.67346469350E+02  0.00000000000E+00 0.  1.
         14    1    4    4    0    0 -0.36743006715E+02  0.95101284491E+02 -0.39738632358E+02  0.10942331450E+03  0.00000000000E+00 0. -1.
         -5    1    5    5    0  502  0.12917296617E+03 -0.70432421765E+02 -0.19650249431E+02  0.14850792412E+03  0.47000000000E+01 0.  1.
         11    1    6    6    0    0  0.10618134122E+02 -0.18381879337E+02  0.14251421721E+02  0.25568364853E+02  0.00000000000E+00 0. -1.
        -12    1    6    6    0    0 -0.34926404945E+02  0.61137256922E+00 -0.61265093586E+02  0.70524033003E+02  0.00000000000E+00 0.  1.
</event>
<event>
12    1  0.8271773E-002  0.2183183E+03  0.7818608E-02  0.1135204E+00
         21   -1    0    0  501  502  0.00000000000E+00  0.00000000000E+00  0.28223211018E+03  0.28223211018E+03  0.00000000000E+00 0.  1.
         21   -1    0    0  502  503 -0.00000000000E+00 -0.00000000000E+00 -0.26768277364E+03  0.26768277364E+03  0.00000000000E+00 0. -1.
         -6    2    1    2    0  503 -0.13229055717E+03  0.21767996370E+02 -0.15998934597E+03  0.27040348027E+03  0.17189186757E+03 0.  0.
        -24    2    3    3    0    0 -0.79152951877E+02 -0.39790920004E+02 -0.14640246321E+03  0.18782140798E+03  0.77425402522E+02 0.  0.
          6    2    1    2  501    0  0.13229055717E+03 -0.21767996370E+02  0.17453868252E+03  0.27951140354E+03  0.17230274471E+03 0.  0.
         24    2    5    5    0    0  0.15936995448E+03 -0.21960594560E+02  0.17657197045E+03  0.25195137610E+03  0.80129801344E+02 0.  0.
          5    1    5    5  501    0 -0.27079397316E+02  0.19259819061E+00 -0.20332879290E+01  0.27560027447E+02  0.47000000000E+01 0. -1.
        -11    1    6    6    0    0  0.11359894598E+03  0.95831390781E+01  0.75916991168E+02  0.13696695452E+03  0.00000000000E+00 0.  1.
         12    1    6    6    0    0  0.45771008501E+02 -0.31543733638E+02  0.10065497928E+03  0.11498442157E+03  0.00000000000E+00 0. -1.
         -5    1    3    3    0  503 -0.53137605292E+02  0.61558916374E+02 -0.13586882763E+02  0.82582072295E+02  0.47000000000E+01 0.  1.
         13    1    4    4    0    0 -0.56981248811E+02  0.78180557360E+01 -0.10933262948E+03  0.12353788318E+03  0.00000000000E+00 0. -1.
        -14    1    4    4    0    0 -0.22171703065E+02 -0.47608975740E+02 -0.37069833732E+02  0.64283524800E+02  0.00000000000E+00 0.  1.
</event>
<event>
12    1  0.8271773E-002  0.2641843E+03  0.7818608E-02  0.1104718E+00
         21   -1    0    0  503  502  0.00000000000E+00  0.00000000000E+00  0.13563395949E+03  0.13563395949E+03  0.00000000000E+00 0. -1.
         21   -1    0    0  501  503 -0.00000000000E+00 -0.00000000000E+00 -0.53783165832E+03  0.53783165832E+03  0.00000000000E+00 0.  1.
          6    2    1    2  501    0 -0.19638933068E+03 -0.34006790545E+02 -0.12998525946E+03  0.29443082713E+03  0.17340159538E+03 0.  0.
         24    2    3    3    0    0 -0.76925399847E+02 -0.79377360032E+02 -0.59518552825E+02  0.14842477901E+03  0.79178118604E+02 0.  0.
         -6    2    1    2    0  502  0.19638933068E+03  0.34006790545E+02 -0.27221243937E+03  0.37903479068E+03  0.17274990417E+03 0.  0.
        -24    2    5    5    0    0  0.31505754649E+02  0.38110998224E+01 -0.47683330799E+02  0.98795992551E+02  0.80497273558E+02 0.  0.
          5    1    3    3  501    0 -0.11946393083E+03  0.45370569487E+02 -0.70466706637E+02  0.14600604812E+03  0.47000000000E+01 0. -1.
        -13    1    4    4    0    0 -0.74747082418E+02 -0.63659487939E+02 -0.77030257146E+02  0.12479309777E+03  0.00000000000E+00 0.  1.
         14    1    4    4    0    0 -0.21783174293E+01 -0.15717872093E+02  0.17511704321E+02  0.23631681239E+02  0.00000000000E+00 0. -1.
         -5    1    5    5    0  502  0.16488357603E+03  0.30195690723E+02 -0.22452910857E+03  0.28023879813E+03  0.47000000000E+01 0.  1.
         11    1    6    6    0    0  0.13480390937E+02  0.40545269855E+02 -0.11684932560E+02  0.44296472730E+02  0.00000000000E+00 0. -1.
        -12    1    6    6    0    0  0.18025363712E+02 -0.36734170032E+02 -0.35998398239E+02  0.54499519821E+02  0.00000000000E+00 0.  1.
</event>
<event>
12    1  0.8271773E-002  0.1775107E+03  0.7818608E-02  0.1171991E+00
         21   -1    0    0  503  502  0.00000000000E+00  0.00000000000E+00  0.19649911242E+04  0.19649911242E+04  0.00000000000E+00 0. -1.
         21   -1    0    0  501  503 -0.00000000000E+00 -0.00000000000E+00 -0.26569131532E+02  0.26569131532E+02  0.00000000000E+00 0. -1.
          6    2    1    2  501    0 -0.32447757776E+02  0.24780181730E+02  0.31270884615E+03  0.35618467298E+03  0.16557108568E+03 0.  0.
         24    2    3    3    0    0 -0.72076666612E+02 -0.28539732431E+01  0.14019284073E+03  0.17696983246E+03  0.80380955305E+02 0.  0.
         -6    2    1    2    0  502  0.32447757776E+02 -0.24780181730E+02  0.16257131465E+04  0.16353755827E+04  0.17275169321E+03 0.  0.
        -24    2    5    5    0    0 -0.45760815899E+02 -0.34753436442E+02  0.85064178329E+03  0.85629037887E+03  0.79623588567E+02 0.  0.
          5    1    3    3  501    0  0.39628908836E+02  0.27634154973E+02  0.17251600542E+03  0.17921484052E+03  0.47000000000E+01 0. -1.
        -13    1    4    4    0    0 -0.16580816975E+02 -0.35673584047E+02  0.78148585776E+02  0.87491311278E+02  0.00000000000E+00 0.  1.
         14    1    4    4    0    0 -0.55495849637E+02  0.32819610804E+02  0.62044254958E+02  0.89478521185E+02  0.00000000000E+00 0. -1.
         -5    1    5    5    0  502  0.78208573676E+02  0.99732547125E+01  0.77507136320E+03  0.77908520385E+03  0.47000000000E+01 0.  1.
         13    1    6    6    0    0 -0.30103035392E+02 -0.54697166275E+02  0.39131763657E+03  0.39626691185E+03  0.00000000000E+00 0. -1.
        -14    1    6    6    0    0 -0.15657780507E+02  0.19943729833E+02  0.45932414673E+03  0.46002346703E+03  0.00000000000E+00 0.  1.
</event>
<event>
12    1  0.8271773E-002  0.1738984E+03  0.7818608E-02  0.1174085E+00
         21   -1    0    0  501  502  0.00000000000E+00  0.00000000000E+00  0.63241687260E+03  0.63241687260E+03  0.00000000000E+00 0.  1.
         21   -1    0    0  502  503 -0.00000000000E+00 -0.00000000000E+00 -0.61491490343E+02  0.61491490343E+02  0.00000000000E+00 0.  1.
         -6    2    1    2    0  503 -0.22127386089E+02  0.25927121652E+01  0.11968124934E+03  0.21031563211E+03  0.17150137112E+03 0.  0.
        -24    2    3    3    0    0  0.46927354286E+02 -0.23417869449E+02  0.59832299608E+02  0.11518890449E+03  0.83294696417E+02 0.  0.
          6    2    1    2  501    0  0.22127386089E+02 -0.25927121652E+01  0.45124413292E+03  0.48359273083E+03  0.17246541232E+03 0.  0.
         24    2    5    5    0    0 -0.39588927550E+02  0.37102732271E+02  0.28519157992E+03  0.30198829246E+03  0.83179297907E+02 0.  0.
          5    1    5    5  501    0  0.61716313639E+02 -0.39695444436E+02  0.16605255300E+03  0.18160443837E+03  0.47000000000E+01 0. -1.
        -11    1    6    6    0    0 -0.80673169864E+01  0.57225589826E+02  0.12852776504E+03  0.14092280199E+03  0.00000000000E+00 0.  1.
         12    1    6    6    0    0 -0.31521610564E+02 -0.20122857555E+02  0.15666381487E+03  0.16106549047E+03  0.00000000000E+00 0. -1.
         -5    1    3    3    0  503 -0.69054740375E+02  0.26010581614E+02  0.59848949727E+02  0.95126727620E+02  0.47000000000E+01 0.  1.
         13    1    4    4    0    0  0.38933120539E+02 -0.45757591283E+02  0.67394429580E+02  0.90285957785E+02  0.00000000000E+00 0. -1.
        -14    1    4    4    0    0  0.79942337477E+01  0.22339721834E+02 -0.75621299721E+01  0.24902946704E+02  0.00000000000E+00 0.  1.
</event>
<event>
12    1  0.8271773E-002  0.1869971E+03  0.7818608E-02  0.1161491E+00
         21   -1    0    0  501  502  0.00000000000E+00  0.00000000000E+00  0.12887211524E+03  0.12887211524E+03  0.00000000000E+00 0.  1.
         21   -1    0    0  502  503 -0.00000000000E+00 -0.00000000000E+00 -0.27522053392E+03  0.27522053392E+03  0.00000000000E+00 0.  1.
         -6    2    1    2    0  503  0.67183817774E+02 -0.23006683886E+02 -0.10254621636E+03  0.21326895860E+03  0.17298829249E+03 0.  0.
        -24    2    3    3    0    0 -0.17630473495E+02 -0.21134832049E+02 -0.96431769976E+02  0.12808419302E+03  0.79680358433E+02 0.  0.
          6    2    1    2  501    0 -0.67183817774E+02  0.23006683886E+02 -0.43802202314E+02  0.19082369056E+03  0.17161606882E+03 0.  0.
         24    2    5    5    0    0 -0.21404992977E+02  0.72368829721E+02  0.37652359711E+00  0.11016284464E+03  0.80251413259E+02 0.  0.
          5    1    5    5  501    0 -0.45778824797E+02 -0.49362145834E+02 -0.44178725911E+02  0.80660845919E+02  0.47000000000E+01 0. -1.
        -13    1    6    6    0    0 -0.41749021209E+02  0.19768192432E+02  0.20153958314E+02  0.50397859475E+02  0.00000000000E+00 0.  1.
         14    1    6    6    0    0  0.20344028233E+02  0.52600637289E+02 -0.19777434717E+02  0.59764985167E+02  0.00000000000E+00 0. -1.
         -5    1    3    3    0  503  0.84814291269E+02 -0.18718518376E+01 -0.61144463885E+01  0.85184765582E+02  0.47000000000E+01 0.  1.
         11    1    4    4    0    0  0.20874907086E+02  0.17367137630E+02 -0.17909482001E+02  0.32528891171E+02  0.00000000000E+00 0. -1.
        -12    1    4    4    0    0 -0.38505380581E+02 -0.38501969678E+02 -0.78522287975E+02  0.95555301850E+02  0.00000000000E+00 0.  1.
</event>
<event>
12    1  0.8271773E-002  0.1839716E+03  0.7818608E-02  0.1164671E+00
         21   -1    0    0  501  502  0.00000000000E+00  0.00000000000E+00  0.27594236472E+02  0.27594236472E+02  0.00000000000E+00 0.  1.
         21   -1    0    0  502  503 -0.00000000000E+00 -0.00000000000E+00 -0.12739757737E+04  0.12739757737E+04  0.00000000000E+00 0.  1.
         -6    2    1    2    0  503 -0.59633116478E+02 -0.10806264340E+02 -0.77562577059E+03  0.79714545398E+03  0.17370277734E+03 0.  0.
        -24    2    3    3    0    0 -0.15961420910E+02  0.51931976071E+02 -0.27205563241E+03  0.28778479798E+03  0.76512258681E+02 0.  0.
          6    2    1    2  501    0  0.59633116478E+02  0.10806264340E+02 -0.47075576662E+03  0.50442455618E+03  0.17076374657E+03 0.  0.
         24    2    5    5    0    0 -0.14753680144E+02 -0.27323478081E+02 -0.14661339454E+03  0.16964456851E+03  0.79495588767E+02 0.  0.
          5    1    5    5  501    0  0.74386796622E+02  0.38129742422E+02 -0.32414237207E+03  0.33477998767E+03  0.47000000000E+01 0. -1.
        -13    1    6    6    0    0 -0.12250033574E+02  0.27682640897E+02 -0.53263841854E+02  0.61265233034E+02  0.00000000000E+00 0.  1.
         14    1    6    6    0    0 -0.25036465697E+01 -0.55006118978E+02 -0.93349552691E+02  0.10837933548E+03  0.00000000000E+00 0. -1.
         -5    1    3    3    0  503 -0.43671695567E+02 -0.62738240411E+02 -0.50357013818E+03  0.50936065599E+03  0.47000000000E+01 0.  1.
         13    1    4    4    0    0 -0.19463530666E+02  0.13842731381E+02 -0.15679225842E+02  0.28570760597E+02  0.00000000000E+00 0. -1.
        -14    1    4    4    0    0  0.35021097554E+01  0.38089244690E+02 -0.25637640657E+03  0.25921403739E+03  0.00000000000E+00 0.  1.
</event>
<event>
12    1  0.8271773E-002  0.3081952E+03  0.7818608E-02  0.1081333E+00
         21   -1    0    0  501  502  0.00000000000E+00  0.00000000000E+00  0.43565000095E+03  0.43565000095E+03  0.00000000000E+00 0. -1.
         21   -1    0    0  502  503 -0.00000000000E+00 -0.00000000000E+00 -0.25127344929E+03  0.25127344929E+03  0.00000000000E+00 0.  1.
         -6    2    1    2    0  503  0.22914319489E+03 -0.11128028492E+03  0.21854650149E+03  0.37781851453E+03  0.17347723490E+03 0.  0.
        -24    2    3    3    0    0  0.93831455499E+02 -0.12357241981E+02  0.15232402600E+03  0.19753390203E+03  0.82825057108E+02 0.  0.
          6    2    1    2  501    0 -0.22914319489E+03  0.11128028492E+03 -0.34169949820E+02  0.30910493571E+03  0.17172178147E+03 0.  0.
         24    2    5    5    0    0 -0.46554688577E+02  0.26718451704E+02 -0.46740869282E+02  0.10743841818E+03  0.80480371212E+02 0.  0.
          5    1    5    5  501    0 -0.18258850632E+03  0.84561833218E+02  0.12570919462E+02  0.20166651753E+03  0.47000000000E+01 0. -1.
        -11    1    6    6    0    0  0.22387155738E+02  0.71342795288E+00 -0.57676044764E+01  0.23129180333E+02  0.00000000000E+00 0.  1.
         12    1    6    6    0    0 -0.68941844315E+02  0.26005023751E+02 -0.40973264805E+02  0.84309237849E+02  0.00000000000E+00 0. -1.
         -5    1    3    3    0  503  0.13531173939E+03 -0.98923042941E+02  0.66222475485E+02  0.18028461249E+03  0.47000000000E+01 0.  1.
         13    1    4    4    0    0 -0.13340249219E+02 -0.12943024402E+02  0.23160132092E+02  0.29696394535E+02  0.00000000000E+00 0. -1.
        -14    1    4    4    0    0  0.10717170472E+03  0.58578242118E+00  0.12916389391E+03  0.16783750750E+03  0.00000000000E+00 0.  1.
</event>
<event>
12    1  0.8271773E-002  0.2266341E+03  0.7818608E-02  0.1129060E+00
         21   -1    0    0  501  502  0.00000000000E+00  0.00000000000E+00  0.97453301815E+03  0.97453301815E+03  0.00000000000E+00 0.  1.
         21   -1    0    0  502  503 -0.00000000000E+00 -0.00000000000E+00 -0.12320712882E+03  0.12320712882E+03  0.00000000000E+00 0.  1.
         -6    2    1    2    0  503  0.10188743658E+03  0.10661622382E+03  0.10294816378E+02  0.22670841295E+03  0.17187976130E+03 0.  0.
        -24    2    3    3    0    0  0.57279145052E+02 -0.79689516457E+00 -0.28069382653E+02  0.10414667516E+03  0.82323169304E+02 0.  0.
          6    2    1    2  501    0 -0.10188743658E+03 -0.10661622382E+03  0.84103107294E+03  0.87103173403E+03  0.17208993901E+03 0.  0.
         24    2    5    5    0    0 -0.25763271522E+02 -0.78481645449E+02  0.26695868289E+03  0.29123207723E+03  0.82012618551E+02 0.  0.
          5    1    5    5  501    0 -0.76124165055E+02 -0.28134578369E+02  0.57407239005E+03  0.57979965680E+03  0.47000000000E+01 0. -1.
        -13    1    6    6    0    0 -0.34895996037E+02 -0.61303583323E+02  0.26175508202E+03  0.27109331020E+03  0.00000000000E+00 0.  1.
         14    1    6    6    0    0  0.91327245159E+01 -0.17178062126E+02  0.52036008691E+01  0.20138767030E+02  0.00000000000E+00 0. -1.
         -5    1    3    3    0  503  0.44608291524E+02  0.10741311898E+03  0.38364199031E+02  0.12256173779E+03  0.47000000000E+01 0.  1.
         13    1    4    4    0    0  0.32201447346E+02  0.11061317243E+02 -0.55514668210E+02  0.65124222351E+02  0.00000000000E+00 0. -1.
        -14    1    4    4    0    0  0.25077697706E+02 -0.11858212408E+02  0.27445285558E+02  0.39022452807E+02  0.00000000000E+00 0.  1.
</event>
<event>
12    1  0.8271773E-002  0.2127578E+03  0.7818608E-02  0.1139889E+00
         21   -1    0    0  501  502  0.00000000000E+00  0.00000000000E+00  0.40503396072E+03  0.40503396072E+03  0.00000000000E+00 0.  1.
         21   -1    0    0  502  503 -0.00000000000E+00 -0.00000000000E+00 -0.34208421717E+03  0.34208421717E+03  0.00000000000E+00 0. -1.
         -6    2    1    2    0  503  0.12063071482E+03  0.21632122952E+02 -0.27597583938E+03  0.34694767092E+03  0.17085170276E+03 0.  0.
        -24    2    3    3    0    0  0.12731069190E+03  0.24901989584E+02 -0.29187523937E+03  0.32877640124E+03  0.77940010902E+02 0.  0.
          6    2    1    2  501    0 -0.12063071482E+03 -0.21632122952E+02  0.33892558293E+03  0.40017050698E+03  0.17391424838E+03 0.  0.
         24    2    5    5    0    0 -0.12474812694E+03 -0.11151462428E+02  0.35229340368E+03  0.38207117109E+03  0.78621162620E+02 0.  0.
          5    1    5    5  501    0  0.41174121255E+01 -0.10480660524E+02 -0.13367820756E+02  0.18099335883E+02  0.47000000000E+01 0. -1.
        -13    1    6    6    0    0 -0.11351702338E+03  0.59183687474E+01  0.33935324665E+03  0.35788513199E+03  0.00000000000E+00 0.  1.
         14    1    6    6    0    0 -0.11231103566E+02 -0.17069831175E+02  0.12940157035E+02  0.24186039109E+02  0.00000000000E+00 0. -1.
         -5    1    3    3    0  503 -0.66799770859E+01 -0.32698666318E+01  0.15899399990E+02  0.18171269678E+02  0.47000000000E+01 0.  1.
         13    1    4    4    0    0  0.70701208507E+02 -0.14266475079E+00 -0.74284688377E+02  0.10255191936E+03  0.00000000000E+00 0. -1.
        -14    1    4    4    0    0  0.56609483394E+02  0.25044654335E+02 -0.21759055099E+03  0.22622448188E+03  0.00000000000E+00 0.  1.
</event>
<event>
12    1  0.8271773E-002  0.2114473E+03  0.7818608E-02  0.1140605E+00
         21   -1    0    0  501  502  0.00000000000E+00  0.00000000000E+00  0.41433010777E+03  0.41433010777E+03  0.00000000000E+00 0.  1.
         21   -1    0    0  502  503 -0.00000000000E+00 -0.00000000000E+00 -0.13836603016E+03  0.13836603016E+03  0.00000000000E+00 0. -1.
         -6    2    1    2    0  503 -0.10712739404E+03  0.57717656117E+02  0.75700970155E+01  0.21158279686E+03  0.17292300939E+03 0.  0.
        -24    2    3    3    0    0 -0.86911355960E+02 -0.24541514139E+01  0.56579975209E+02  0.13124978511E+03  0.80408991049E+02 0.  0.
          6    2    1    2  501    0  0.10712739404E+03 -0.57717656117E+02  0.26839398060E+03  0.34111334107E+03  0.17180039654E+03 0.  0.
         24    2    5    5    0    0  0.69996372648E+02  0.51564309410E+01  0.76928667161E+02  0.13614280703E+03  0.87696996027E+02 0.  0.
          5    1    5    5  501    0  0.37131021394E+02 -0.62874087058E+02  0.19146531344E+03  0.20497053403E+03  0.47000000000E+01 0. -1.
        -11    1    6    6    0    0  0.62700872757E+02 -0.30427737936E+02  0.70722540138E+02  0.99292116323E+02  0.00000000000E+00 0.  1.
         12    1    6    6    0    0  0.72954998909E+01  0.35584168877E+02  0.62061270234E+01  0.36850690712E+02  0.00000000000E+00 0. -1.
         -5    1    3    3    0  503 -0.20216038082E+02  0.60171807531E+02 -0.49009878194E+02  0.80333011756E+02  0.47000000000E+01 0.  1.
         13    1    4    4    0    0 -0.98906470926E+02  0.20816757046E+01  0.62612679601E+02  0.11707762814E+03  0.00000000000E+00 0. -1.
        -14    1    4    4    0    0  0.11995114966E+02 -0.45358271185E+01 -0.60327043919E+01  0.14172156962E+02  0.00000000000E+00 0.  1.
</event>
<event>
12    1  0.8271773E-002  0.2387424E+03  0.7818608E-02  0.1120777E+00
         21   -1    0    0  503  502  0.00000000000E+00  0.00000000000E+00  0.16000294167E+03  0.16000294167E+03  0.00000000000E+00 0. -1.
         21   -1    0    0  501  503 -0.00000000000E+00 -0.00000000000E+00 -0.86773703173E+03  0.86773703173E+03  0.00000000000E+00 0.  1.
          6    2    1    2  501    0 -0.91642699837E+02  0.13483708722E+03 -0.74863279411E+03  0.78551970522E+03  0.17323603074E+03 0.  0.
         24    2    3    3    0    0 -0.48601413459E+02  0.10429491823E+02 -0.39918619588E+03  0.41206981950E+03  0.89336697248E+02 0.  0.
         -6    2    1    2    0  502  0.91642699837E+02 -0.13483708722E+03  0.40898704057E+02  0.24222026818E+03  0.17440908749E+03 0.  0.
        -24    2    5    5    0    0 -0.36637060647E+01 -0.19631769565E+02 -0.72612612552E+01  0.85067322037E+02  0.82370469497E+02 0.  0.
          5    1    3    3  501    0 -0.43041286378E+02  0.12440759540E+03 -0.34944659824E+03  0.37344988572E+03  0.47000000000E+01 0. -1.
        -11    1    4    4    0    0 -0.87049850898E+01  0.10566613779E+02 -0.34237692735E+03  0.34265053695E+03  0.00000000000E+00 0.  1.
         12    1    4    4    0    0 -0.39896428369E+02 -0.13712195622E+00 -0.56809268528E+02  0.69419282550E+02  0.00000000000E+00 0. -1.
         -5    1    5    5    0  502  0.95306405901E+02 -0.11520531766E+03  0.48159965312E+02  0.15715294614E+03  0.47000000000E+01 0.  1.
         11    1    6    6    0    0 -0.16026944389E+02  0.11615312671E+01  0.33791231128E+02  0.37417367659E+02  0.00000000000E+00 0. -1.
        -12    1    6    6    0    0  0.12363238324E+02 -0.20793300832E+02 -0.41052492383E+02  0.47649954378E+02  0.00000000000E+00 0.  1.
</event>
<event>
12    1  0.8271773E-002  0.2168473E+03  0.7818608E-02  0.1136322E+00
         21   -1    0    0  501  502  0.00000000000E+00  0.00000000000E+00  0.66470299337E+03  0.66470299337E+03  0.00000000000E+00 0. -1.
         21   -1    0    0  502  503 -0.00000000000E+00 -0.00000000000E+00 -0.14783062163E+03  0.14783062163E+03  0.00000000000E+00 0.  1.
         -6    2    1    2    0  503 -0.13164611797E+03 -0.65196631028E+01 -0.35056170841E+02  0.21966263636E+03  0.17219039554E+03 0.  0.
        -24    2    3    3    0    0 -0.16196680688E+03 -0.19429437734E+02 -0.17764236352E+02  0.18215120537E+03  0.79074293819E+02 0.  0.
          6    2    1    2  501    0  0.13164611797E+03  0.65196631028E+01  0.55192854258E+03  0.59287097863E+03  0.17174887134E+03 0.  0.
         24    2    5    5    0    0  0.19377098424E+02 -0.44234298834E+02  0.22463798727E+03  0.24312607874E+03  0.79472760772E+02 0.  0.
          5    1    5    5  501    0  0.11226901955E+03  0.50753961937E+02  0.32729055531E+03  0.34974489989E+03  0.47000000000E+01 0. -1.
        -13    1    6    6    0    0  0.21749101767E+02 -0.50617169502E+02  0.22866976307E+03  0.23521263108E+03  0.00000000000E+00 0.  1.
         14    1    6    6    0    0 -0.23720033434E+01  0.63828706682E+01 -0.40317758026E+01  0.79134476652E+01  0.00000000000E+00 0. -1.
         -5    1    3    3    0  503  0.30320688909E+02  0.12909774631E+02 -0.17291934489E+02  0.37511430995E+02  0.47000000000E+01 0.  1.
         13    1    4    4    0    0 -0.78349816344E+02  0.66698895213E+01  0.27813879785E+02  0.83407392095E+02  0.00000000000E+00 0. -1.
        -14    1    4    4    0    0 -0.83616990535E+02 -0.26099327255E+02 -0.45578116138E+02  0.98743813274E+02  0.00000000000E+00 0.  1.
</event>
<event>
12    1  0.8271773E-002  0.1983612E+03  0.7818608E-02  0.1151970E+00
         21   -1    0    0  501  502  0.00000000000E+00  0.00000000000E+00  0.50237387778E+03  0.50237387778E+03  0.00000000000E+00 0.  1.
         21   -1    0    0  502  503 -0.00000000000E+00 -0.00000000000E+00 -0.13289566795E+03  0.13289566795E+03  0.00000000000E+00 0.  1.
         -6    2    1    2    0  503  0.78806400241E+02  0.39982329498E+02  0.39005737864E+03  0.43584372393E+03  0.17322227821E+03 0.  0.
        -24    2    3    3    0    0 -0.96579631571E+01  0.28874973960E+02  0.28666515042E+03  0.29923713626E+03  0.80242849393E+02 0.  0.
          6    2    1    2  501    0 -0.78806400241E+02 -0.39982329498E+02 -0.20579168800E+02  0.19942582180E+03  0.17758975427E+03 0.  0.
         24    2    5    5    0    0  0.32746348342E+01  0.32620827811E+00  0.40374868848E+02  0.89427825265E+02  0.79726885377E+02 0.  0.
          5    1    5    5  501    0 -0.82081035075E+02 -0.40308537776E+02 -0.60954037648E+02  0.10999799654E+03  0.47000000000E+01 0. -1.
        -13    1    6    6    0    0 -0.67562729364E+00 -0.32509625729E+02 -0.53932411710E+01  0.32960875103E+02  0.00000000000E+00 0.  1.
         14    1    6    6    0    0  0.39502621278E+01  0.32835834007E+02  0.45768110019E+02  0.56466950161E+02  0.00000000000E+00 0. -1.
         -5    1    3    3    0  503  0.88464363398E+02  0.11107355538E+02  0.10339222822E+03  0.13660658767E+03  0.47000000000E+01 0.  1.
         13    1    4    4    0    0 -0.32279068532E+02 -0.11521244573E+02  0.73447670467E+02  0.81050833671E+02  0.00000000000E+00 0. -1.
        -14    1    4    4    0    0  0.22621105375E+02  0.40396218533E+02  0.21321747995E+03  0.21818630259E+03  0.00000000000E+00 0.  1.
</event>
<event>
12    1  0.8271773E-002  0.1852368E+03  0.7818608E-02  0.1165563E+00
         21   -1    0    0  503  502  0.00000000000E+00  0.00000000000E+00  0.27499793555E+03  0.27499793555E+03  0.00000000000E+00 0.  1.
         21   -1    0    0  501  503 -0.00000000000E+00 -0.00000000000E+00 -0.20286760257E+03  0.20286760257E+03  0.00000000000E+00 0.  1.
          6    2    1    2  501    0  0.29160760165E+02 -0.54306811138E+01 -0.11845003807E+03  0.21987056458E+03  0.18284641484E+03 0.  0.
         24    2    3    3    0    0  0.39791028019E+02  0.36559320826E+01 -0.12080456357E+00  0.10062515948E+03  0.92351049680E+02 0.  0.
         -6    2    1    2    0  502 -0.29160760165E+02  0.54306811138E+01  0.19058037105E+03  0.25799497354E+03  0.17134960260E+03 0.  0.
        -24    2    5    5    0    0 -0.64002577745E+02  0.46125922221E+02  0.10664385654E+03  0.15830804677E+03  0.86397886982E+02 0.  0.
          5    1    3    3  501    0 -0.10630267854E+02 -0.90866131964E+01 -0.11832923351E+03  0.11924540510E+03  0.47000000000E+01 0. -1.
        -11    1    4    4    0    0  0.34608873822E+02  0.16611394237E+02 -0.41751833236E+02  0.56717970207E+02  0.00000000000E+00 0.  1.
         12    1    4    4    0    0  0.51821541966E+01 -0.12955462155E+02  0.41631028673E+02  0.43907189276E+02  0.00000000000E+00 0. -1.
         -5    1    5    5    0  502  0.34841817580E+02 -0.40695241107E+02  0.83936514511E+02  0.99686926772E+02  0.47000000000E+01 0.  1.
         11    1    6    6    0    0 -0.10661748603E+02  0.47699742003E+02  0.13081362296E+02  0.50597038549E+02  0.00000000000E+00 0. -1.
        -12    1    6    6    0    0 -0.53340829142E+02 -0.15738197819E+01  0.93562494245E+02  0.10771100822E+03  0.00000000000E+00 0.  1.
</event>
<event>
12    1  0.8271773E-002  0.2151984E+03  0.7818608E-02  0.1137847E+00
         21   -1    0    0  503  502  0.00000000000E+00  0.00000000000E+00  0.19014256676E+03  0.19014256676E+03  0.00000000000E+00 0.  1.
         21   -1    0    0  501  503 -0.00000000000E+00 -0.00000000000E+00 -0.31749082832E+03  0.31749082832E+03  0.00000000000E+00 0. -1.
          6    2    1    2  501    0 -0.15455843440E+02  0.12491468299E+03 -0.18756561275E+03  0.28416866515E+03  0.17241928559E+03 0.  0.
         24    2    3    3    0    0 -0.69595363953E+02  0.76817578638E+02 -0.76536471022E+02  0.15152636631E+03  0.79736774576E+02 0.  0.
         -6    2    1    2    0  502  0.15455843440E+02 -0.12491468299E+03  0.60217351185E+02  0.22346472992E+03  0.17455026500E+03 0.  0.
        -24    2    5    5    0    0 -0.17020821926E+02 -0.15039360994E+03  0.59790349669E+02  0.18191738534E+03  0.81308688871E+02 0.  0.
          5    1    3    3  501    0  0.54139520513E+02  0.48097104355E+02 -0.11102914173E+03  0.13264229884E+03  0.47000000000E+01 0. -1.
        -11    1    4    4    0    0 -0.72078407838E+01  0.52023784476E+02 -0.64738822934E+02  0.83363914944E+02  0.00000000000E+00 0.  1.
         12    1    4    4    0    0 -0.62387523170E+02  0.24793794162E+02 -0.11797648089E+02  0.68162451369E+02  0.00000000000E+00 0. -1.
         -5    1    5    5    0  502  0.32476665366E+02  0.25478926946E+02  0.42700151575E+00  0.41547344583E+02  0.47000000000E+01 0.  1.
         11    1    6    6    0    0  0.20979474583E+02 -0.19682482893E+02 -0.79857533306E+01  0.29854827798E+02  0.00000000000E+00 0. -1.
        -12    1    6    6    0    0 -0.38000296509E+02 -0.13071112705E+03  0.67776103000E+02  0.15206255754E+03  0.00000000000E+00 0.  1.
</event>
<event>
12    1  0.8271773E-002  0.1844346E+03  0.7818608E-02  0.1163640E+00
         21   -1    0    0  501  502  0.00000000000E+00  0.00000000000E+00  0.73811319963E+03  0.73811319963E+03  0.00000000000E+00 0.  1.
         21   -1    0    0  502  503 -0.00000000000E+00 -0.00000000000E+00 -0.46452569490E+02  0.46452569490E+02  0.00000000000E+00 0.  1.
         -6    2    1    2    0  503  0.32054384649E+02  0.56897696650E+02  0.30822009953E+03  0.35918761534E+03  0.17248559881E+03 0.  0.
        -24    2    3    3    0    0  0.40393322598E+02  0.20778620662E+02  0.30800881572E+03  0.32182105037E+03  0.81461563432E+02 0.  0.
          6    2    1    2  501    0 -0.32054384649E+02 -0.56897696650E+02  0.38344053061E+03  0.42537815378E+03  0.17220656707E+03 0.  0.
         24    2    5    5    0    0 -0.82327185116E+02 -0.59135923452E+02  0.30589510794E+03  0.33281603030E+03  0.83185756674E+02 0.  0.
          5    1    5    5  501    0  0.50272800467E+02  0.22382268022E+01  0.77545422673E+02  0.92562123482E+02  0.47000000000E+01 0. -1.
        -11    1    6    6    0    0  0.16891081069E+02 -0.10791974112E+02  0.35588511242E+02  0.40845042016E+02  0.00000000000E+00 0.  1.
         12    1    6    6    0    0 -0.99218266185E+02 -0.48343949340E+02  0.27030659669E+03  0.29197098828E+03  0.00000000000E+00 0. -1.
         -5    1    3    3    0  503 -0.83389379492E+01  0.36119075988E+02  0.21128381228E+00  0.37366564964E+02  0.47000000000E+01 0.  1.
         13    1    4    4    0    0  0.49458685367E+02 -0.18497978444E+02  0.18383366525E+03  0.19126722993E+03  0.00000000000E+00 0. -1.
        -14    1    4    4    0    0 -0.90653627693E+01  0.39276599106E+02  0.12417515047E+03  0.13055382045E+03  0.00000000000E+00 0.  1.
</event>
<event>
12    1  0.8271773E-002  0.1755383E+03  0.7818608E-02  0.1172594E+00
         21   -1    0    0  501  502  0.00000000000E+00  0.00000000000E+00  0.31438240288E+03  0.31438240288E+03  0.00000000000E+00 0. -1.
         21   -1    0    0  502  503 -0.00000000000E+00 -0.00000000000E+00 -0.44193393458E+03  0.44193393458E+03  0.00000000000E+00 0. -1.
         -6    2    1    2    0  503  0.78277738231E+01 -0.37188763749E+02 -0.39774116360E+03  0.43411122100E+03  0.16973579698E+03 0.  0.
        -24    2    3    3    0    0  0.83424609911E+01 -0.32759933714E+02 -0.40732053448E+03  0.42254688856E+03  0.10720562162E+03 0.  0.
          6    2    1    2  501    0 -0.78277738231E+01  0.37188763749E+02  0.27018963190E+03  0.32220511647E+03  0.17137509067E+03 0.  0.
         24    2    5    5    0    0 -0.43936569334E+02 -0.26055514703E+02  0.11770307113E+03  0.15315504967E+03  0.83625022059E+02 0.  0.
          5    1    5    5  501    0  0.36108795511E+02  0.63244278453E+02  0.15248656077E+03  0.16905006680E+03  0.47000000000E+01 0. -1.
        -11    1    6    6    0    0  0.54549035163E+01  0.24187347385E+02  0.16278788150E+02  0.29661130956E+02  0.00000000000E+00 0.  1.
         12    1    6    6    0    0 -0.49391472850E+02 -0.50242862089E+02  0.10142428298E+03  0.12349391872E+03  0.00000000000E+00 0. -1.
         -5    1    3    3    0  503 -0.51468716798E+00 -0.44288300350E+01  0.95793708768E+01  0.11564332439E+02  0.47000000000E+01 0.  1.
         11    1    4    4    0    0  0.43982657257E+02 -0.54772199250E+02 -0.26916633595E+03  0.27818156726E+03  0.00000000000E+00 0. -1.
        -12    1    4    4    0    0 -0.35640196266E+02  0.22012265536E+02 -0.13815419853E+03  0.14436532130E+03  0.00000000000E+00 0.  1.
</event>
<event>
12    1  0.8271773E-002  0.2000843E+03  0.7818608E-02  0.1149712E+00
         21   -1    0    0  503  502  0.00000000000E+00  0.00000000000E+00  0.25644310450E+03  0.25644310450E+03  0.00000000000E+00 0.  1.
         21   -1    0    0  501  503 -0.00000000000E+00 -0.00000000000E+00 -0.63297106247E+03  0.63297106247E+03  0.00000000000E+00 0.  1.
          6    2    1    2  501    0  0.10192761428E+03  0.10364695368E+02 -0.57429672042E+03  0.60808479895E+03  0.17162090249E+03 0.  0.
         24    2    3    3    0    0  0.47433307721E+02 -0.38629190157E+02 -0.47090961817E+03  0.48127386419E+03  0.78272158813E+02 0.  0.
         -6    2    1    2    0  502 -0.10192761428E+03 -0.10364695368E+02  0.19776876246E+03  0.28132936802E+03  0.17186350527E+03 0.  0.
        -24    2    5    5    0    0 -0.81133550724E+02  0.39536665583E+02  0.52391893300E+02  0.12615506928E+03  0.70882931951E+02 0.  0.
          5    1    3    3  501    0  0.54494306557E+02  0.48993885525E+02 -0.10338710225E+03  0.12681093477E+03  0.47000000000E+01 0. -1.
        -13    1    4    4    0    0  0.46629854067E+02  0.53420574692E+01 -0.14491384890E+03  0.15232499622E+03  0.00000000000E+00 0.  1.
         14    1    4    4    0    0  0.80345365392E+00 -0.43971247626E+02 -0.32599576927E+03  0.32894886797E+03  0.00000000000E+00 0. -1.
         -5    1    5    5    0  502 -0.20794063553E+02 -0.49901360951E+02  0.14537686916E+03  0.15517429874E+03  0.47000000000E+01 0.  1.
         13    1    6    6    0    0 -0.73179809937E+01  0.14625192649E+02  0.45023425725E+02  0.47901544545E+02  0.00000000000E+00 0. -1.
        -14    1    6    6    0    0 -0.73815569731E+02  0.24911472933E+02  0.73684675750E+01  0.78253524731E+02  0.00000000000E+00 0.  1.
</event>
<event>
12    1  0.8271773E-002  0.2147035E+03  0.7818608E-02  0.1137899E+00
         21   -1    0    0  503  502  0.00000000000E+00  0.00000000000E+00  0.62741217320E+02  0.62741217320E+02  0.00000000000E+00 0. -1.
         21   -1    0    0  501  503 -0.00000000000E+00 -0.00000000000E+00 -0.11337328674E+04  0.11337328674E+04  0.00000000000E+00 0.  1.
          6    2    1    2  501    0 -0.12948547591E+03 -0.19907488581E+01 -0.89041439422E+03  0.91592865446E+03  0.17122223882E+03 0.  0.
         24    2    3    3    0    0 -0.39686332651E+02  0.36392559341E+02 -0.63463258306E+03  0.64209733887E+03  0.81431282208E+02 0.  0.
         -6    2    1    2    0  502  0.12948547591E+03  0.19907488581E+01 -0.18057725584E+03  0.28054543024E+03  0.17125169065E+03 0.  0.
        -24    2    5    5    0    0  0.12334870562E+03  0.56270115189E+02 -0.11748132314E+03  0.19695657762E+03  0.81294545575E+02 0.  0.
          5    1    3    3  501    0 -0.89799143258E+02 -0.38383308199E+02 -0.25578181116E+03  0.27383131559E+03  0.47000000000E+01 0. -1.
        -13    1    4    4    0    0 -0.83945754973E+01  0.58102008151E+02 -0.34284233873E+03  0.34783211679E+03  0.00000000000E+00 0.  1.
         14    1    4    4    0    0 -0.31291757154E+02 -0.21709448810E+02 -0.29179024433E+03  0.29426522207E+03  0.00000000000E+00 0. -1.
         -5    1    5    5    0  502  0.61367702875E+01 -0.54279366331E+02 -0.63095932702E+02  0.83588852620E+02  0.47000000000E+01 0.  1.
         11    1    6    6    0    0  0.51118428938E+02  0.47733991253E+02 -0.10020614073E+03  0.12220023870E+03  0.00000000000E+00 0. -1.
        -12    1    6    6    0    0  0.72230276685E+02  0.85361239358E+01 -0.17275182405E+02  0.74756338921E+02  0.00000000000E+00 0.  1.
</event>
<event>
12    1  0.8271773E-002  0.1980122E+03  0.7818608E-02  0.1151868E+00
         21   -1    0    0  501  502  0.00000000000E+00  0.00000000000E+00  0.21623643908E+03  0.21623643908E+03  0.00000000000E+00 0.  1.
         21   -1    0    0  502  503 -0.00000000000E+00 -0.00000000000E+00 -0.18982337281E+03  0.18982337281E+03  0.00000000000E+00 0.  1.
         -6    2    1    2    0  503  0.85595632879E+02  0.46404707834E+02 -0.34194918801E+02  0.20094313353E+03  0.17242053579E+03 0.  0.
        -24    2    3    3    0    0  0.11529957336E+02 -0.32457022996E+02 -0.31980653594E+02  0.92629284671E+02  0.79818694029E+02 0.  0.
          6    2    1    2  501    0 -0.85595632879E+02 -0.46404707834E+02  0.60607985074E+02  0.20511667836E+03  0.17005738623E+03 0.  0.
         24    2    5    5    0    0  0.20987204277E+02 -0.25848089763E+02  0.30833707682E+02  0.92462014380E+02  0.80560040256E+02 0.  0.
          5    1    5    5  501    0 -0.10658283716E+03 -0.20556618071E+02  0.29774277392E+02  0.11265466398E+03  0.47000000000E+01 0. -1.
        -11    1    6    6    0    0 -0.26079569721E+00  0.26749287890E+02 -0.21601872888E+01  0.26837638237E+02  0.00000000000E+00 0.  1.
         12    1    6    6    0    0  0.21247999974E+02 -0.52597377652E+02  0.32993894971E+02  0.65624376143E+02  0.00000000000E+00 0. -1.
         -5    1    3    3    0  503  0.74065675544E+02  0.78861730830E+02 -0.22142652071E+01  0.10831384885E+03  0.47000000000E+01 0.  1.
         13    1    4    4    0    0 -0.53221364108E+00  0.18122553463E+02 -0.36173305499E+02  0.40462553381E+02  0.00000000000E+00 0. -1.
        -14    1    4    4    0    0  0.12062170977E+02 -0.50579576460E+02  0.41926519048E+01  0.52166731290E+02  0.00000000000E+00 0.  1.
</event>
<event>
12    1  0.8271773E-002  0.1808731E+03  0.7818608E-02  0.1167200E+00
         21   -1    0    0  503  502  0.00000000000E+00  0.00000000000E+00  0.12241128994E+03  0.12241128994E+03  0.00000000000E+00 0.  1.
         21   -1    0    0  501  503 -0.00000000000E+00 -0.00000000000E+00 -0.26964428111E+03  0.26964428111E+03  0.00000000000E+00 0.  1.
          6    2    1    2  501    0  0.49485215985E+02  0.24880101915E+02 -0.96857557769E+02  0.20429835593E+03  0.17113919968E+03 0.  0.
         24    2    3    3    0    0  0.76297374859E+02  0.65671640380E+02 -0.51811231867E+02  0.13770929563E+03  0.78392554466E+02 0.  0.
         -6    2    1    2    0  502 -0.49485215985E+02 -0.24880101915E+02 -0.50375433397E+02  0.18775721512E+03  0.17218385949E+03 0.  0.
        -24    2    5    5    0    0  0.28262946780E+02  0.16134469002E+02  0.17343596450E+01  0.85461113671E+02  0.79003029662E+02 0.  0.
          5    1    3    3  501    0 -0.26812158875E+02 -0.40791538465E+02 -0.45046325903E+02  0.66589060297E+02  0.47000000000E+01 0. -1.
        -11    1    4    4    0    0  0.46823172056E+02 -0.67505538818E+01 -0.31790551522E+02  0.56996654157E+02  0.00000000000E+00 0.  1.
         12    1    4    4    0    0  0.29474202803E+02  0.72422194262E+02 -0.20020680345E+02  0.80712641476E+02  0.00000000000E+00 0. -1.
         -5    1    5    5    0  502 -0.77748162765E+02 -0.41014570917E+02 -0.52109793042E+02  0.10229610145E+03  0.47000000000E+01 0.  1.
         11    1    6    6    0    0  0.10368748534E+02  0.44302440566E+02  0.17249333964E+02  0.48659600373E+02  0.00000000000E+00 0. -1.
        -12    1    6    6    0    0  0.17894198246E+02 -0.28167971564E+02 -0.15514974319E+02  0.36801513298E+02  0.00000000000E+00 0.  1.
</event>
<event>
12    1  0.8271773E-002  0.1750782E+03  0.7818608E-02  0.1173580E+00
         21   -1    0    0  503  502  0.00000000000E+00  0.00000000000E+00  0.13859589199E+03  0.13859589199E+03  0.00000000000E+00 0.  1.
         21   -1    0    0  501  503 -0.00000000000E+00 -0.00000000000E+00 -0.26292143018E+03  0.26292143018E+03  0.00000000000E+00 0.  1.
          6    2    1    2  501    0 -0.39713037331E+01  0.27318243254E+02 -0.14698659303E+03  0.22859883343E+03  0.17288814433E+03 0.  0.
         24    2    3    3    0    0  0.44790208182E+02 -0.31574702939E+02 -0.96377683969E+02  0.13678698326E+03  0.80118014256E+02 0.  0.
         -6    2    1    2    0  502  0.39713037331E+01 -0.27318243254E+02  0.22661054835E+02  0.17291848874E+03  0.16918990121E+03 0.  0.
        -24    2    5    5    0    0  0.60682116002E+02  0.52779954181E+01 -0.90755280544E+01  0.10006293509E+03  0.78867289361E+02 0.  0.
          5    1    3    3  501    0 -0.48761511915E+02  0.58892946193E+02 -0.50608909062E+02  0.91811850172E+02  0.47000000000E+01 0. -1.
        -11    1    4    4    0    0  0.16787134730E+02 -0.29141766262E+02 -0.10262280452E+03  0.10799301108E+03  0.00000000000E+00 0.  1.
         12    1    4    4    0    0  0.28003073452E+02 -0.24329366772E+01  0.62451205525E+01  0.28793972188E+02  0.00000000000E+00 0. -1.
         -5    1    5    5    0  502 -0.56710812269E+02 -0.32596238672E+02  0.31736582889E+02  0.72855553647E+02  0.47000000000E+01 0.  1.
         13    1    6    6    0    0  0.57592329610E+02  0.83440146541E+01 -0.38851177236E+02  0.69970800932E+02  0.00000000000E+00 0. -1.
        -14    1    6    6    0    0  0.30897863922E+01 -0.30660192360E+01  0.29775649182E+02  0.30092134157E+02  0.00000000000E+00 0.  1.
</event>
<event>
12    1  0.8271773E-002  0.1812214E+03  0.7818608E-02  0.1167054E+00
         21   -1    0    0  503  502  0.00000000000E+00  0.00000000000E+00  0.80713215515E+03  0.80713215515E+03  0.00000000000E+00 0. -1.
         21   -1    0    0  501  503 -0.00000000000E+00 -0.00000000000E+00 -0.40291696539E+02  0.40291696539E+02  0.00000000000E+00 0. -1.
          6    2    1    2  501    0  0.42836353524E+02 -0.35378575704E+02  0.38401310303E+03  0.42462602678E+03  0.17249522463E+03 0.  0.
         24    2    3    3    0    0 -0.16052409063E+02  0.32948068735E+02  0.15978899892E+03  0.18289279455E+03  0.81080176704E+02 0.  0.
         -6    2    1    2    0  502 -0.42836353524E+02  0.35378575704E+02  0.38282735558E+03  0.42279782491E+03  0.17063006699E+03 0.  0.
        -24    2    5    5    0    0 -0.73828757119E+02  0.85234321201E+01  0.35809477353E+03  0.37467799082E+03  0.81414959950E+02 0.  0.
          5    1    3    3  501    0  0.58888762587E+02 -0.68326644439E+02  0.22422410411E+03  0.24173323223E+03  0.47000000000E+01 0. -1.
        -13    1    4    4    0    0  0.21709258420E+00 -0.20891211077E+02  0.10545316669E+02  0.23402853098E+02  0.00000000000E+00 0.  1.
         14    1    4    4    0    0 -0.16269501647E+02  0.53839279812E+02  0.14924368225E+03  0.15948994145E+03  0.00000000000E+00 0. -1.
         -5    1    5    5    0  502  0.30992403596E+02  0.26855143584E+02  0.24732582054E+02  0.48119834087E+02  0.47000000000E+01 0.  1.
         11    1    6    6    0    0 -0.47486898834E+01 -0.30487424652E+02  0.95492729397E+02  0.10035384639E+03  0.00000000000E+00 0. -1.
        -12    1    6    6    0    0 -0.69080067236E+02  0.39010856772E+02  0.26260204413E+03  0.27432414443E+03  0.00000000000E+00 0.  1.
</event>
<event>
12    1  0.8271773E-002  0.2500929E+03  0.7818608E-02  0.1113343E+00
         21   -1    0    0  501  502  0.00000000000E+00  0.00000000000E+00  0.47018456758E+03  0.47018456758E+03  0.00000000000E+00 0.  1.
         21   -1    0    0  502  503 -0.00000000000E+00 -0.00000000000E+00 -0.44417017635E+03  0.44417017635E+03  0.00000000000E+00 0.  1.
         -6    2    1    2    0  503 -0.10592426664E+03 -0.14633556796E+03 -0.36983886458E+03  0.44611734189E+03  0.17206350068E+03 0.  0.
        -24    2    3    3    0    0 -0.76528236674E+02 -0.90942675427E+02 -0.11644073646E+03  0.18503268041E+03  0.80941376887E+02 0.  0.
          6    2    1    2  501    0  0.10592426664E+03  0.14633556796E+03  0.39585325581E+03  0.46823740203E+03  0.17295206218E+03 0.  0.
         24    2    5    5    0    0 -0.12819333623E+02  0.83621976384E+02  0.19712698198E+03  0.22834730411E+03  0.78271795812E+02 0.  0.
          5    1    5    5  501    0  0.11874360027E+03  0.62713591573E+02  0.19872627383E+03  0.23989009792E+03  0.47000000000E+01 0. -1.
        -11    1    6    6    0    0 -0.63805519320E+01  0.98642933795E+02  0.17169729303E+03  0.19811890436E+03  0.00000000000E+00 0.  1.
         12    1    6    6    0    0 -0.64387816915E+01 -0.15020957411E+02  0.25429688950E+02  0.30228399748E+02  0.00000000000E+00 0. -1.
         -5    1    3    3    0  503 -0.29396029969E+02 -0.55392892530E+02 -0.25339812812E+03  0.26108466148E+03  0.47000000000E+01 0.  1.
         13    1    4    4    0    0  0.80652229415E+01  0.46200891202E+01 -0.28670345735E+02  0.30139372408E+02  0.00000000000E+00 0. -1.
        -14    1    4    4    0    0 -0.84593459615E+02 -0.95562764547E+02 -0.87770390722E+02  0.15489330801E+03  0.00000000000E+00 0.  1.
</event>
<event>
12    1  0.8271773E-002  0.2054486E+03  0.7818608E-02  0.1145463E+00
         21   -1    0    0  503  502  0.00000000000E+00  0.00000000000E+00  0.16637373659E+04  0.16637373659E+04  0.00000000000E+00 0.  1.
         21   -1    0    0  501  503 -0.00000000000E+00 -0.00000000000E+00 -0.25779123004E+02  0.25779123004E+02  0.00000000000E+00 0. -1.
          6    2    1    2  501    0  0.99362785045E+02 -0.48456224798E+02  0.94522724346E+03  0.96729710235E+03  0.17317093771E+03 0.  0.
         24    2    3    3    0    0  0.14671707849E+02  0.31285260705E+02  0.43841520063E+03  0.44728573726E+03  0.81624849561E+02 0.  0.
         -6    2    1    2    0  502 -0.99362785045E+02  0.48456224798E+02  0.69273099946E+03  0.72221938658E+03  0.17176622473E+03 0.  0.
        -24    2    5    5    0    0 -0.16468548506E+02 -0.69845769828E+01  0.48545412796E+03  0.49215216072E+03  0.78917941828E+02 0.  0.
          5    1    3    3  501    0  0.84691077196E+02 -0.79741485503E+02  0.50681204283E+03  0.52001136509E+03  0.47000000000E+01 0. -1.
        -11    1    4    4    0    0  0.30481301451E+02  0.80058334498E-01  0.60401737897E+02  0.67657121491E+02  0.00000000000E+00 0.  1.
         12    1    4    4    0    0 -0.15809593601E+02  0.31205202370E+02  0.37801346273E+03  0.37962861577E+03  0.00000000000E+00 0. -1.
         -5    1    5    5    0  502 -0.82894236539E+02  0.55440801781E+02  0.20727687150E+03  0.23006722586E+03  0.47000000000E+01 0.  1.
         11    1    6    6    0    0  0.87424751031E+01 -0.19280902325E+01  0.36590999929E+01  0.96714743256E+01  0.00000000000E+00 0. -1.
        -12    1    6    6    0    0 -0.25211023609E+02 -0.50564867504E+01  0.48179502797E+03  0.48248068639E+03  0.00000000000E+00 0.  1.
</event>
<event>
12    1  0.8271773E-002  0.2668158E+03  0.7818608E-02  0.1103249E+00
         21   -1    0    0  503  502  0.00000000000E+00  0.00000000000E+00  0.20798894667E+03  0.20798894667E+03  0.00000000000E+00 0. -1.
         21   -1    0    0  501  503 -0.00000000000E+00 -0.00000000000E+00 -0.43707388714E+03  0.43707388714E+03  0.00000000000E+00 0. -1.
          6    2    1    2  501    0  0.19983407500E+03 -0.36006450323E+02  0.36739451326E+02  0.26842871095E+03  0.17168011994E+03 0.  0.
         24    2    3    3    0    0  0.16784273294E+03 -0.25311326217E+01 -0.35776162248E+02  0.18226231916E+03  0.61335385919E+02 0.  0.
         -6    2    1    2    0  502 -0.19983407500E+03  0.36006450323E+02 -0.26582439180E+03  0.37663412286E+03  0.17309111253E+03 0.  0.
        -24    2    5    5    0    0 -0.94774235737E+02 -0.39535437267E+02 -0.17662835410E+03  0.21940127087E+03  0.79963339267E+02 0.  0.
          5    1    3    3  501    0  0.31991342058E+02 -0.33475317701E+02  0.72515613575E+02  0.86166391789E+02  0.47000000000E+01 0. -1.
        -13    1    4    4    0    0  0.11522133230E+03  0.22809164765E+02 -0.83932989252E+01  0.11775678698E+03  0.00000000000E+00 0.  1.
         14    1    4    4    0    0  0.52621400644E+02 -0.25340297386E+02 -0.27382863323E+02  0.64505532175E+02  0.00000000000E+00 0. -1.
         -5    1    5    5    0  502 -0.10505983926E+03  0.75541887590E+02 -0.89196037698E+02  0.15723285200E+03  0.47000000000E+01 0.  1.
         13    1    6    6    0    0 -0.40267185347E+02 -0.13100501656E+02 -0.14501220133E+03  0.15106822265E+03  0.00000000000E+00 0. -1.
        -14    1    6    6    0    0 -0.54507050390E+02 -0.26434935610E+02 -0.31616152770E+02  0.68333048219E+02  0.00000000000E+00 0.  1.
</event>
<event>
12    1  0.8271773E-002  0.1834800E+03  0.7818608E-02  0.1164632E+00
         21   -1    0    0  501  502  0.00000000000E+00  0.00000000000E+00  0.18558050224E+03  0.18558050224E+03  0.00000000000E+00 0. -1.
         21   -1    0    0  502  503 -0.00000000000E+00 -0.00000000000E+00 -0.25270227575E+03  0.25270227575E+03  0.00000000000E+00 0. -1.
         -6    2    1    2    0  503  0.35648052120E+01  0.60962856251E+02  0.83412799151E+02  0.20095266151E+03  0.17232266081E+03 0.  0.
        -24    2    3    3    0    0  0.14532557275E+02  0.12350119440E+02  0.11291988343E+03  0.14284717306E+03  0.85385561461E+02 0.  0.
          6    2    1    2  501    0 -0.35648052120E+01 -0.60962856251E+02 -0.15053457266E+03  0.23733011649E+03  0.17301950452E+03 0.  0.
         24    2    5    5    0    0 -0.10746465315E+02  0.35497999160E+02 -0.77456669292E+02  0.11600929045E+03  0.77993752264E+02 0.  0.
          5    1    5    5  501    0  0.71816601026E+01 -0.96460855411E+02 -0.73077903371E+02  0.12132082603E+03  0.47000000000E+01 0. -1.
        -11    1    6    6    0    0  0.30381234380E+02  0.15546461526E+02 -0.12010169878E+02  0.36179497632E+02  0.00000000000E+00 0.  1.
         12    1    6    6    0    0 -0.41127699694E+02  0.19951537634E+02 -0.65446499414E+02  0.79829792820E+02  0.00000000000E+00 0. -1.
         -5    1    3    3    0  503 -0.10967752063E+02  0.48612736811E+02 -0.29507084279E+02  0.58105488451E+02  0.47000000000E+01 0.  1.
         13    1    4    4    0    0  0.79697884574E+01  0.49189003335E+02  0.59212636311E+02  0.77389998553E+02  0.00000000000E+00 0. -1.
        -14    1    4    4    0    0  0.65627688173E+01 -0.36838883895E+02  0.53707247119E+02  0.65457174506E+02  0.00000000000E+00 0.  1.
</event>
<event>
12    1  0.8271773E-002  0.1924177E+03  0.7818608E-02  0.1156550E+00
         21   -1    0    0  503  502  0.00000000000E+00  0.00000000000E+00  0.15409514667E+03  0.15409514667E+03  0.00000000000E+00 0. -1.
         21   -1    0    0  501  503 -0.00000000000E+00 -0.00000000000E+00 -0.38443658308E+03  0.38443658308E+03  0.00000000000E+00 0. -1.
          6    2    1    2  501    0  0.76438965728E+02 -0.34136049213E+02 -0.28065499709E+03  0.33964472921E+03  0.17199746903E+03 0.  0.
         24    2    3    3    0    0 -0.18631275005E+02  0.13041890012E+02 -0.14782450898E+03  0.16955611350E+03  0.79874744869E+02 0.  0.
         -6    2    1    2    0  502 -0.76438965728E+02  0.34136049213E+02  0.50313560677E+02  0.19888700054E+03  0.17325241487E+03 0.  0.
        -24    2    5    5    0    0 -0.55810871776E+02 -0.40803054773E+02  0.55829667789E+02  0.12082353275E+03  0.81863493532E+02 0.  0.
          5    1    3    3  501    0  0.95070240733E+02 -0.47177939226E+02 -0.13283048811E+03  0.17008861571E+03  0.47000000000E+01 0. -1.
        -13    1    4    4    0    0  0.23629052420E+02  0.19384739895E+02 -0.24921717318E+02  0.39435925919E+02  0.00000000000E+00 0.  1.
         14    1    4    4    0    0 -0.42260327425E+02 -0.63428498821E+01 -0.12290279166E+03  0.13012018758E+03  0.00000000000E+00 0. -1.
         -5    1    5    5    0  502 -0.20628093952E+02  0.74939103986E+02 -0.55161071121E+01  0.78063467794E+02  0.47000000000E+01 0.  1.
         11    1    6    6    0    0  0.20445773251E+02 -0.18018242836E+02  0.10306187427E+02  0.29135960908E+02  0.00000000000E+00 0. -1.
        -12    1    6    6    0    0 -0.76256645027E+02 -0.22784811936E+02  0.45523480362E+02  0.91687571841E+02  0.00000000000E+00 0.  1.
</event>
<event>
12    1  0.8271773E-002  0.1837335E+03  0.7818608E-02  0.1165369E+00
         21   -1    0    0  503  502  0.00000000000E+00  0.00000000000E+00  0.14775425627E+04  0.14775425627E+04  0.00000000000E+00 0.  1.
         21   -1    0    0  501  503 -0.00000000000E+00 -0.00000000000E+00 -0.33244970783E+02  0.33244970783E+02  0.00000000000E+00 0.  1.
          6    2    1    2  501    0  0.14319378084E+02 -0.49176959777E+02  0.28168066303E+03  0.33374202536E+03  0.17151188181E+03 0.  0.
         24    2    3    3    0    0 -0.34830438365E+02  0.23784225850E+02  0.12582922450E+03  0.15471465327E+03  0.79528494024E+02 0.  0.
         -6    2    1    2    0  502 -0.14319378084E+02  0.49176959777E+02  0.11626169289E+04  0.11770455081E+04  0.17644995581E+03 0.  0.
        -24    2    5    5    0    0 -0.40297555628E+02  0.93012955681E+02  0.95713458211E+03  0.96528728495E+03  0.73468573571E+02 0.  0.
          5    1    3    3  501    0  0.49149816448E+02 -0.72961185626E+02  0.15585143853E+03  0.17902737209E+03  0.47000000000E+01 0. -1.
        -11    1    4    4    0    0 -0.25537647238E+02  0.49711366103E+02  0.10885104127E+03  0.12235988122E+03  0.00000000000E+00 0.  1.
         12    1    4    4    0    0 -0.92927911266E+01 -0.25927140253E+02  0.16978183232E+02  0.32354772051E+02  0.00000000000E+00 0. -1.
         -5    1    5    5    0  502  0.25978177544E+02 -0.43835995904E+02  0.20548234676E+03  0.21175822316E+03  0.47000000000E+01 0.  1.
         11    1    6    6    0    0 -0.41772445054E+02  0.26841303488E+02  0.23865647360E+03  0.24376690737E+03  0.00000000000E+00 0. -1.
        -12    1    6    6    0    0  0.14748894257E+01  0.66171652193E+02  0.71847810851E+03  0.72152037758E+03  0.00000000000E+00 0.  1.
</event>
<event>
12    1  0.8271773E-002  0.1863958E+03  0.7818608E-02  0.1161758E+00
         21   -1    0    0  501  502  0.00000000000E+00  0.00000000000E+00  0.12045171651E+03  0.12045171651E+03  0.00000000000E+00 0. -1.
         21   -1    0    0  502  503 -0.00000000000E+00 -0.00000000000E+00 -0.39819627598E+03  0.39819627598E+03  0.00000000000E+00 0. -1.
         -6    2    1    2    0  503 -0.69172138126E+02 -0.12586351297E+02 -0.27503441988E+03  0.33223251228E+03  0.17260159085E+03 0.  0.
        -24    2    3    3    0    0 -0.52344642969E+02 -0.73058064724E+02 -0.20754470630E+03  0.23994522086E+03  0.80134021683E+02 0.  0.
          6    2    1    2  501    0  0.69172138126E+02  0.12586351297E+02 -0.27101395918E+01  0.18641548022E+03  0.17262730223E+03 0.  0.
         24    2    5    5    0    0  0.82565553012E+02  0.64826167670E+02 -0.76731662360E+01  0.13205461552E+03  0.79749867974E+02 0.  0.
          5    1    5    5  501    0 -0.13393414886E+02 -0.52239816373E+02  0.49630266442E+01  0.54360864696E+02  0.47000000000E+01 0. -1.
        -11    1    6    6    0    0  0.18190097026E+02  0.37565187375E+02  0.31157565398E+02  0.52084708062E+02  0.00000000000E+00 0.  1.
         12    1    6    6    0    0  0.64375455986E+02  0.27260980295E+02 -0.38830731634E+02  0.79969907461E+02  0.00000000000E+00 0. -1.
         -5    1    3    3    0  503 -0.16827495158E+02  0.60471713427E+02 -0.67489713582E+02  0.92287291419E+02  0.47000000000E+01 0.  1.
         13    1    4    4    0    0 -0.22889706250E+02 -0.58231810238E+02 -0.19478359882E+03  0.20458624769E+03  0.00000000000E+00 0. -1.
        -14    1    4    4    0    0 -0.29454936719E+02 -0.14826254486E+02 -0.12761107479E+02  0.35358973165E+02  0.00000000000E+00 0.  1.
</event>
<event>
12    1  0.8271773E-002  0.1867164E+03  0.7818608E-02  0.1161787E+00
         21   -1    0    0  501  502  0.00000000000E+00  0.00000000000E+00  0.68023377603E+02  0.68023377603E+02  0.00000000000E+00 0.  1.
         21   -1    0    0  502  503 -0.00000000000E+00 -0.00000000000E+00 -0.65877621960E+03  0.65877621960E+03  0.00000000000E+00 0.  1.
         -6    2    1    2    0  503  0.35318114652E+02 -0.62403958262E+02 -0.46975175763E+03  0.50549947596E+03  0.17239890709E+03 0.  0.
        -24    2    3    3    0    0 -0.30444595955E+02 -0.29218067180E+02 -0.13226042062E+03  0.16003091004E+03  0.79602163511E+02 0.  0.
          6    2    1    2  501    0 -0.35318114652E+02  0.62403958262E+02 -0.12100108436E+03  0.22130012124E+03  0.17085332310E+03 0.  0.
         24    2    5    5    0    0  0.10148956256E+02  0.28422304883E+02 -0.12183221933E+03  0.16433707981E+03  0.10607901492E+03 0.  0.
          5    1    5    5  501    0 -0.45467070908E+02  0.33981653380E+02  0.83113496880E+00  0.56963041428E+02  0.47000000000E+01 0. -1.
        -13    1    6    6    0    0  0.36307726427E+02  0.10845356277E+02  0.61626016302E+00  0.37897922472E+02  0.00000000000E+00 0.  1.
         14    1    6    6    0    0 -0.26158770171E+02  0.17576948606E+02 -0.12244847949E+03  0.12643915734E+03  0.00000000000E+00 0. -1.
         -5    1    3    3    0  503  0.65762710607E+02 -0.33185891082E+02 -0.33749133702E+03  0.34546856592E+03  0.47000000000E+01 0.  1.
         13    1    4    4    0    0  0.16600019055E+02  0.16167834365E+00  0.11376340426E-01  0.16600810280E+02  0.00000000000E+00 0. -1.
        -14    1    4    4    0    0 -0.47044615011E+02 -0.29379745524E+02 -0.13227179696E+03  0.14343009976E+03  0.00000000000E+00 0.  1.
</event>
<event>
12    1  0.8271773E-002  0.2202364E+03  0.7818608E-02  0.1134515E+00
         21   -1    0    0  503  502  0.00000000000E+00  0.00000000000E+00  0.33336161244E+03  0.33336161244E+03  0.00000000000E+00 0.  1.
         21   -1    0    0  501  503 -0.00000000000E+00 -0.00000000000E+00 -0.19330721146E+03  0.19330721146E+03  0.00000000000E+00 0.  1.
          6    2    1    2  501    0  0.10037679800E+01 -0.13522082865E+03 -0.64230282818E+02  0.22941141635E+03  0.17383437137E+03 0.  0.
         24    2    3    3    0    0 -0.58870505497E+01  0.47121876742E+01 -0.18485138278E+02  0.81954844139E+02  0.79486062073E+02 0.  0.
         -6    2    1    2    0  502 -0.10037679800E+01  0.13522082865E+03  0.20428468380E+03  0.29725740755E+03  0.16835692518E+03 0.  0.
        -24    2    5    5    0    0 -0.20053917537E+02  0.18578346269E+02  0.13578012910E+03  0.16057038948E+03  0.81236026246E+02 0.  0.
          5    1    3    3  501    0  0.68908185297E+01 -0.13993301633E+03 -0.45745144540E+02  0.14745657221E+03  0.47000000000E+01 0. -1.
        -11    1    4    4    0    0  0.54064937973E+01 -0.31472046289E+02 -0.28442346625E+02  0.42763149490E+02  0.00000000000E+00 0.  1.
         12    1    4    4    0    0 -0.11293544347E+02  0.36184233963E+02  0.99572083469E+01  0.39191694649E+02  0.00000000000E+00 0. -1.
         -5    1    5    5    0  502  0.19050149557E+02  0.11664248239E+03  0.68504554702E+02  0.13668701807E+03  0.47000000000E+01 0.  1.
         11    1    6    6    0    0 -0.85725057797E+01  0.38788665534E+00 -0.10019779604E+02  0.13192205832E+02  0.00000000000E+00 0. -1.
        -12    1    6    6    0    0 -0.11481411757E+02  0.18190459613E+02  0.14579990870E+03  0.14737818364E+03  0.00000000000E+00 0.  1.
</event>
<event>
12    1  0.8271773E-002  0.3279768E+03  0.7818608E-02  0.1072055E+00
         21   -1    0    0  501  502  0.00000000000E+00  0.00000000000E+00  0.14320418799E+03  0.14320418799E+03  0.00000000000E+00 0.  1.
         21   -1    0    0  502  503 -0.00000000000E+00 -0.00000000000E+00 -0.11822791410E+04  0.11822791410E+04  0.00000000000E+00 0.  1.
         -6    2    1    2    0  503  0.59297294490E+02  0.27239796767E+03 -0.91984251306E+03  0.97650603864E+03  0.17244411482E+03 0.  0.
        -24    2    3    3    0    0  0.16503648652E+02  0.13138280540E+03 -0.29371457575E+03  0.33325270130E+03  0.85178042602E+02 0.  0.
          6    2    1    2  501    0 -0.59297294490E+02 -0.27239796767E+03 -0.11923243991E+03  0.34897729031E+03  0.17277717587E+03 0.  0.
         24    2    5    5    0    0  0.26357057179E+02 -0.15582347652E+03 -0.23152560792E+02  0.17525419709E+03  0.72127264116E+02 0.  0.
          5    1    5    5  501    0 -0.85654351669E+02 -0.11657449115E+03 -0.96079879116E+02  0.17372309322E+03  0.47000000000E+01 0. -1.
        -11    1    6    6    0    0 -0.24560707230E+01 -0.51068383783E+02  0.24407960441E+02  0.56654749479E+02  0.00000000000E+00 0.  1.
         12    1    6    6    0    0  0.28813127902E+02 -0.10475509273E+03 -0.47560521234E+02  0.11859944761E+03  0.00000000000E+00 0. -1.
         -5    1    3    3    0  503  0.42793645838E+02  0.14101516227E+03 -0.62612793731E+03  0.64325333733E+03  0.47000000000E+01 0.  1.
         13    1    4    4    0    0  0.41654691248E+02  0.34547258627E+02 -0.13727116937E+03  0.14755338126E+03  0.00000000000E+00 0. -1.
        -14    1    4    4    0    0 -0.25151042597E+02  0.96835546776E+02 -0.15644340639E+03  0.18569932004E+03  0.00000000000E+00 0.  1.
</event>
<event>
12    1  0.8271773E-002  0.2183852E+03  0.7818608E-02  0.1135096E+00
         21   -1    0    0  501  502  0.00000000000E+00  0.00000000000E+00  0.11744616370E+04  0.11744616370E+04  0.00000000000E+00 0.  1.
         21   -1    0    0  502  503 -0.00000000000E+00 -0.00000000000E+00 -0.47570392098E+02  0.47570392098E+02  0.00000000000E+00 0.  1.
         -6    2    1    2    0  503  0.13471841069E+03  0.15995962867E+02  0.79724144964E+03  0.82660683356E+03  0.17111401828E+03 0.  0.
        -24    2    3    3    0    0 -0.84195593866E+00  0.10684563498E+02  0.24145824000E+03  0.25448631297E+03  0.79663875352E+02 0.  0.
          6    2    1    2  501    0 -0.13471841069E+03 -0.15995962867E+02  0.32964979523E+03  0.39542519551E+03  0.17113496646E+03 0.  0.
         24    2    5    5    0    0 -0.13149720209E+03 -0.27637805162E+02  0.34448964513E+03  0.37572190082E+03  0.66621833716E+02 0.  0.
          5    1    5    5  501    0 -0.32212085982E+01  0.11641842295E+02 -0.14839849893E+02  0.19703294691E+02  0.47000000000E+01 0. -1.
        -13    1    6    6    0    0 -0.52403205121E+02 -0.19385639250E+01  0.61784372093E+02  0.81038031640E+02  0.00000000000E+00 0.  1.
         14    1    6    6    0    0 -0.79093996967E+02 -0.25699241237E+02  0.28270527303E+03  0.29468386918E+03  0.00000000000E+00 0. -1.
         -5    1    3    3    0  503  0.13556036662E+03  0.53113993687E+01  0.55578320964E+03  0.57212052059E+03  0.47000000000E+01 0.  1.
         13    1    4    4    0    0  0.28739635750E+02  0.24251634586E+02  0.65357700612E+02  0.75403829295E+02  0.00000000000E+00 0. -1.
        -14    1    4    4    0    0 -0.29581591688E+02 -0.13567071088E+02  0.17610053939E+03  0.17908248367E+03  0.00000000000E+00 0.  1.
</event>
<event>
12    1  0.8271773E-002  0.2016391E+03  0.7818608E-02  0.1148741E+00
         21   -1    0    0  503  502  0.00000000000E+00  0.00000000000E+00  0.10438307169E+04  0.10438307169E+04  0.00000000000E+00 0. -1.
         21   -1    0    0  501  503 -0.00000000000E+00 -0.00000000000E+00 -0.57753577378E+02  0.57753577378E+02  0.00000000000E+00 0.  1.
          6    2    1    2  501    0 -0.10298323010E+03 -0.27473644252E+01  0.17440251701E+03  0.26523867223E+03  0.17123732542E+03 0.  0.
         24    2    3    3    0    0 -0.33874742391E+02  0.60571753558E+02  0.10219946859E+03  0.14682978753E+03  0.79358803073E+02 0.  0.
         -6    2    1    2    0  502  0.10298323010E+03  0.27473644252E+01  0.81167462250E+03  0.83634562203E+03  0.17333555025E+03 0.  0.
        -24    2    5    5    0    0  0.83541970576E+02  0.35319476732E+02  0.77170338259E+03  0.78104015131E+03  0.79188894178E+02 0.  0.
          5    1    3    3  501    0 -0.69108487713E+02 -0.63319117983E+02  0.72203048411E+02  0.11840888470E+03  0.47000000000E+01 0. -1.
        -11    1    4    4    0    0 -0.60388544605E+01 -0.14200105648E+02 -0.20354027236E+01  0.15564498959E+02  0.00000000000E+00 0.  1.
         12    1    4    4    0    0 -0.27835887930E+02  0.74771859206E+02  0.10423487132E+03  0.13126528857E+03  0.00000000000E+00 0. -1.
         -5    1    5    5    0  502  0.19441259527E+02 -0.32572112307E+02  0.39971239907E+02  0.55305470722E+02  0.47000000000E+01 0.  1.
         11    1    6    6    0    0  0.49187526583E+02  0.92058712528E+01  0.64980557536E+03  0.65172958088E+03  0.00000000000E+00 0. -1.
        -12    1    6    6    0    0  0.34354443994E+02  0.26113605480E+02  0.12189780724E+03  0.12931057042E+03  0.00000000000E+00 0.  1.
</event>
<event>
12    1  0.8271773E-002  0.1741764E+03  0.7818608E-02  0.1174302E+00
         21   -1    0    0  501  502  0.00000000000E+00  0.00000000000E+00  0.81881728629E+03  0.81881728629E+03  0.00000000000E+00 0.  1.
         21   -1    0    0  502  503 -0.00000000000E+00 -0.00000000000E+00 -0.14672548456E+03  0.14672548456E+03  0.00000000000E+00 0.  1.
         -6    2    1    2    0  503 -0.18427438426E+02  0.13996722788E+02 -0.81809031686E+02  0.19243213624E+03  0.17263235693E+03 0.  0.
        -24    2    3    3    0    0  0.61322487055E+01 -0.31915802843E+02 -0.10937129921E+03  0.13333131702E+03  0.68985042306E+02 0.  0.
          6    2    1    2  501    0  0.18427438426E+02 -0.13996722788E+02  0.75390083342E+03  0.77311063461E+03  0.16970005298E+03 0.  0.
         24    2    5    5    0    0  0.39078222509E+02  0.11754847000E+02  0.27684649958E+03  0.29489256128E+03  0.93018032997E+02 0.  0.
          5    1    5    5  501    0 -0.20650784083E+02 -0.25751569788E+02  0.47705433383E+03  0.47821807333E+03  0.47000000000E+01 0. -1.
        -11    1    6    6    0    0  0.38369787596E+02 -0.15878434478E+02  0.44340085658E+02  0.60748732314E+02  0.00000000000E+00 0.  1.
         12    1    6    6    0    0  0.70843491384E+00  0.27633281477E+02  0.23250641392E+03  0.23414382896E+03  0.00000000000E+00 0. -1.
         -5    1    3    3    0  503 -0.24559687132E+02  0.45912525631E+02  0.27562267526E+02  0.59100819224E+02  0.47000000000E+01 0.  1.
         11    1    4    4    0    0  0.30625862508E+02 -0.35617827397E+02 -0.48054836466E+02  0.67200002907E+02  0.00000000000E+00 0. -1.
        -12    1    4    4    0    0 -0.24493613803E+02  0.37020245539E+01 -0.61316462745E+02  0.66131314114E+02  0.00000000000E+00 0.  1.
</event>
<event>
12    1  0.8271773E-002  0.2622679E+03  0.7818608E-02  0.1105934E+00
         21   -1    0    0  501  502  0.00000000000E+00  0.00000000000E+00  0.12309375021E+03  0.12309375021E+03  0.00000000000E+00 0.  1.
         21   -1    0    0  502  503 -0.00000000000E+00 -0.00000000000E+00 -0.60948138312E+03  0.60948138312E+03  0.00000000000E+00 0. -1.
         -6    2    1    2    0  503 -0.53541870438E+02 -0.19023091527E+03 -0.13500135198E+03  0.29410418919E+03  0.17093091015E+03 0.  0.
        -24    2    3    3    0    0  0.35020356594E+02 -0.74468759461E+02 -0.49189004557E+02  0.12490018881E+03  0.80052966733E+02 0.  0.
          6    2    1    2  501    0  0.53541870438E+02  0.19023091527E+03 -0.35138628093E+03  0.43847094414E+03  0.17242365679E+03 0.  0.
         24    2    5    5    0    0 -0.10124867406E+02  0.78272962600E+02 -0.80644253880E+02  0.13861869406E+03  0.80513831383E+02 0.  0.
          5    1    5    5  501    0  0.63666737845E+02  0.11195795267E+03 -0.27074202705E+03  0.29985225009E+03  0.47000000000E+01 0. -1.
        -13    1    6    6    0    0  0.54611173261E+01 -0.16129952421E+02 -0.13451622191E+02  0.21701274320E+02  0.00000000000E+00 0.  1.
         14    1    6    6    0    0 -0.15585984732E+02  0.94402915021E+02 -0.67192631689E+02  0.11691741974E+03  0.00000000000E+00 0. -1.
         -5    1    3    3    0  503 -0.88562227032E+02 -0.11576215581E+03 -0.85812347425E+02  0.16920400038E+03  0.47000000000E+01 0.  1.
         11    1    4    4    0    0  0.46843663330E+02 -0.25380014726E+02 -0.51842654523E+02  0.74337976632E+02  0.00000000000E+00 0. -1.
        -12    1    4    4    0    0 -0.11823306736E+02 -0.49088744735E+02  0.26536499666E+01  0.50562212174E+02  0.00000000000E+00 0.  1.
</event>
<event>
12    1  0.8271773E-002  0.1921213E+03  0.7818608E-02  0.1158385E+00
         21   -1    0    0  503  502  0.00000000000E+00  0.00000000000E+00  0.17744325526E+03  0.17744325526E+03  0.00000000000E+00 0.  1.
         21   -1    0    0  501  503 -0.00000000000E+00 -0.00000000000E+00 -0.20261081653E+03  0.20261081653E+03  0.00000000000E+00 0. -1.
          6    2    1    2  501    0 -0.40906921172E+02  0.54316977943E+02  0.11512868624E+02  0.18446253462E+03  0.17108527184E+03 0.  0.
         24    2    3    3    0    0 -0.13626193222E+02  0.12112654725E+02  0.70215937541E+02  0.10704429829E+03  0.78713495448E+02 0.  0.
         -6    2    1    2    0  502  0.40906921172E+02 -0.54316977943E+02 -0.36680429896E+02  0.19559153718E+03  0.17968551746E+03 0.  0.
        -24    2    5    5    0    0  0.36656077364E+02 -0.68437878978E+02  0.39404943122E+02  0.11794784132E+03  0.79570927118E+02 0.  0.
          5    1    3    3  501    0 -0.27280727950E+02  0.42204323217E+02 -0.58703068917E+02  0.77418236327E+02  0.47000000000E+01 0. -1.
        -11    1    4    4    0    0  0.25036855443E+02  0.29201375117E+02  0.35532094702E+02  0.52365009244E+02  0.00000000000E+00 0.  1.
         12    1    4    4    0    0 -0.38663048664E+02 -0.17088720392E+02  0.34683842839E+02  0.54679289047E+02  0.00000000000E+00 0. -1.
         -5    1    5    5    0  502  0.42508438076E+01  0.14120901035E+02 -0.76085373018E+02  0.77643695857E+02  0.47000000000E+01 0.  1.
         11    1    6    6    0    0  0.24804992906E+02 -0.48030369876E+02 -0.17112487533E+02  0.56701334492E+02  0.00000000000E+00 0. -1.
        -12    1    6    6    0    0  0.11851084458E+02 -0.20407509101E+02  0.56517430656E+02  0.61246506826E+02  0.00000000000E+00 0.  1.
</event>
<event>
12    1  0.8271773E-002  0.2110977E+03  0.7818608E-02  0.1140881E+00
         21   -1    0    0  501  502  0.00000000000E+00  0.00000000000E+00  0.42619999257E+03  0.42619999257E+03  0.00000000000E+00 0. -1.
         21   -1    0    0  502  503 -0.00000000000E+00 -0.00000000000E+00 -0.75389806817E+03  0.75389806817E+03  0.00000000000E+00 0.  1.
         -6    2    1    2    0  503 -0.77504923348E+02  0.92500931622E+02 -0.71169556688E+03  0.74234278575E+03  0.17320160550E+03 0.  0.
        -24    2    3    3    0    0  0.62666750865E+01 -0.87236763792E+01 -0.27581601212E+03  0.28706575116E+03  0.78847315750E+02 0.  0.
          6    2    1    2  501    0  0.77504923348E+02 -0.92500931622E+02  0.38399749128E+03  0.43775527498E+03  0.17208187578E+03 0.  0.
         24    2    5    5    0    0  0.85063958394E+02 -0.34363649541E+02  0.15132136179E+03  0.19776078794E+03  0.88286110364E+02 0.  0.
          5    1    5    5  501    0 -0.75590350461E+01 -0.58137282081E+02  0.23267612949E+03  0.23999448704E+03  0.47000000000E+01 0. -1.
        -11    1    6    6    0    0  0.41349420382E+02 -0.80334729511E+01  0.45462704755E+01  0.42367202278E+02  0.00000000000E+00 0.  1.
         12    1    6    6    0    0  0.43714538012E+02 -0.26330176590E+02  0.14677509132E+03  0.15539358566E+03  0.00000000000E+00 0. -1.
         -5    1    3    3    0  503 -0.83771598434E+02  0.10122460800E+03 -0.43587955476E+03  0.45527703459E+03  0.47000000000E+01 0.  1.
         11    1    4    4    0    0 -0.15008543057E+01 -0.41313811689E+02 -0.10216571845E+03  0.11021305561E+03  0.00000000000E+00 0. -1.
        -12    1    4    4    0    0  0.77675293922E+01  0.32590135310E+02 -0.17365029367E+03  0.17685269555E+03  0.00000000000E+00 0.  1.
</event>
<event>
12    1  0.8271773E-002  0.2113879E+03  0.7818608E-02  0.1141251E+00
         21   -1    0    0  503  502  0.00000000000E+00  0.00000000000E+00  0.85374036411E+03  0.85374036411E+03  0.00000000000E+00 0. -1.
         21   -1    0    0  501  503 -0.00000000000E+00 -0.00000000000E+00 -0.51382806807E+02  0.51382806807E+02  0.00000000000E+00 0.  1.
          6    2    1    2  501    0  0.11408684151E+03 -0.71541739232E+01  0.39065318745E+03  0.44232157572E+03  0.17312271333E+03 0.  0.
         24    2    3    3    0    0 -0.98634731434E+01  0.79309657876E+01  0.19241018200E+03  0.20798502041E+03  0.77948074107E+02 0.  0.
         -6    2    1    2    0  502 -0.11408684151E+03  0.71541739232E+01  0.41170436985E+03  0.46280159520E+03  0.17781405668E+03 0.  0.
        -24    2    5    5    0    0 -0.23854704361E+02 -0.37882429355E+02  0.29187916639E+03  0.30611623023E+03  0.80681926518E+02 0.  0.
          5    1    3    3  501    0  0.12395031465E+03 -0.15085139711E+02  0.19824300544E+03  0.23433655530E+03  0.47000000000E+01 0. -1.
        -13    1    4    4    0    0  0.11480673534E+02  0.48256931738E+01 -0.17980180489E+01  0.12582767911E+02  0.00000000000E+00 0.  1.
         14    1    4    4    0    0 -0.21344146677E+02  0.31052726138E+01  0.19420820005E+03  0.19540225250E+03  0.00000000000E+00 0. -1.
         -5    1    5    5    0  502 -0.90232137150E+02  0.45036603278E+02  0.11982520347E+03  0.15668536497E+03  0.47000000000E+01 0.  1.
         13    1    6    6    0    0 -0.26126240599E+02 -0.43396859074E+02  0.29504665607E+03  0.29936331953E+03  0.00000000000E+00 0. -1.
        -14    1    6    6    0    0  0.22715362380E+01  0.55144297197E+01 -0.31674896812E+01  0.67529106980E+01  0.00000000000E+00 0.  1.
</event>
<event>
12    1  0.8271773E-002  0.1833136E+03  0.7818608E-02  0.1164681E+00
         21   -1    0    0  501  502  0.00000000000E+00  0.00000000000E+00  0.27593292473E+03  0.27593292473E+03  0.00000000000E+00 0.  1.
         21   -1    0    0  502  503 -0.00000000000E+00 -0.00000000000E+00 -0.16078153416E+03  0.16078153416E+03  0.00000000000E+00 0.  1.
         -6    2    1    2    0  503 -0.30126247636E+02  0.56275085626E+02 -0.50122063285E+02  0.19004233222E+03  0.17184117886E+03 0.  0.
        -24    2    3    3    0    0  0.38256954588E+02 -0.14777977806E+01 -0.17218648982E+02  0.94562582743E+02  0.84733828673E+02 0.  0.
          6    2    1    2  501    0  0.30126247636E+02 -0.56275085626E+02  0.16527345385E+03  0.24667212666E+03  0.17163142913E+03 0.  0.
         24    2    5    5    0    0 -0.40786515468E+02 -0.64327371727E+02  0.10593421280E+03  0.15373830714E+03  0.81313338661E+02 0.  0.
          5    1    5    5  501    0  0.70912763104E+02  0.80522861004E+01  0.59339241050E+02  0.92933819522E+02  0.47000000000E+01 0. -1.
        -11    1    6    6    0    0 -0.28860019804E+02 -0.81140971064E+02  0.10063434409E+03  0.13245387551E+03  0.00000000000E+00 0.  1.
         12    1    6    6    0    0 -0.11926495664E+02  0.16813599337E+02  0.52998687130E+01  0.21284431631E+02  0.00000000000E+00 0. -1.
         -5    1    3    3    0  503 -0.68383202224E+02  0.57752883407E+02 -0.32903414302E+02  0.95479749481E+02  0.47000000000E+01 0.  1.
         11    1    4    4    0    0  0.41654150121E+01  0.26766173866E+02  0.22401517636E+02  0.35151198245E+02  0.00000000000E+00 0. -1.
        -12    1    4    4    0    0  0.34091539576E+02 -0.28243971647E+02 -0.39620166619E+02  0.59411384498E+02  0.00000000000E+00 0.  1.
</event>
<event>
12    1  0.8271773E-002  0.2196865E+03  0.7818608E-02  0.1134227E+00
         21   -1    0    0  503  502  0.00000000000E+00  0.00000000000E+00  0.18252440597E+03  0.18252440597E+03  0.00000000000E+00 0.  1.
         21   -1    0    0  501  503 -0.00000000000E+00 -0.00000000000E+00 -0.42909766397E+03  0.42909766397E+03  0.00000000000E+00 0.  1.
          6    2    1    2  501    0 -0.12397685565E+03 -0.48968603729E+02 -0.31324528031E+03  0.38260260639E+03  0.17462520978E+03 0.  0.
         24    2    3    3    0    0 -0.22257367004E+02 -0.74052027988E+02 -0.12461478728E+03  0.16677956443E+03  0.79419674297E+02 0.  0.
         -6    2    1    2    0  502  0.12397685565E+03  0.48968603729E+02  0.66672022310E+02  0.22901946356E+03  0.17388666205E+03 0.  0.
        -24    2    5    5    0    0  0.11796641793E+03  0.95747417496E+02  0.54144710991E+02  0.17999491554E+03  0.79892904421E+02 0.  0.
          5    1    3    3  501    0 -0.10171948865E+03  0.25083424259E+02 -0.18863049303E+03  0.21582304197E+03  0.47000000000E+01 0. -1.
        -13    1    4    4    0    0 -0.69046131466E+01  0.16216477215E+02 -0.32060510639E+02  0.36585846422E+02  0.00000000000E+00 0.  1.
         14    1    4    4    0    0 -0.15352753857E+02 -0.90268505203E+02 -0.92554276644E+02  0.13019371800E+03  0.00000000000E+00 0. -1.
         -5    1    5    5    0  502  0.60104377232E+01 -0.46778813767E+02  0.12527311319E+02  0.49024548013E+02  0.47000000000E+01 0.  1.
         11    1    6    6    0    0 -0.67482532777E+01 -0.48659749879E+01  0.11470549909E+02  0.14170044111E+02  0.00000000000E+00 0. -1.
        -12    1    6    6    0    0  0.12471467121E+03  0.10061339248E+03  0.42674161081E+02  0.16582487143E+03  0.00000000000E+00 0.  1.
</event>
<event>
12    1  0.8271773E-002  0.1740801E+03  0.7818608E-02  0.1174213E+00
         21   -1    0    0  503  502  0.00000000000E+00  0.00000000000E+00  0.31807404894E+02  0.31807404894E+02  0.00000000000E+00 0.  1.
         21   -1    0    0  501  503 -0.00000000000E+00 -0.00000000000E+00 -0.23802827737E+04  0.23802827737E+04  0.00000000000E+00 0.  1.
          6    2    1    2  501    0 -0.19736971502E+02  0.42449783078E+01 -0.21091840916E+04  0.21161777185E+04  0.17071331480E+03 0.  0.
         24    2    3    3    0    0 -0.37806698402E+02 -0.42809895560E+02 -0.18247405611E+04  0.18272644300E+04  0.77169607064E+02 0.  0.
         -6    2    1    2    0  502  0.19736971502E+02 -0.42449783078E+01 -0.23929127717E+03  0.29591246012E+03  0.17290546793E+03 0.  0.
        -24    2    5    5    0    0  0.62523954744E+02  0.40775827615E+02 -0.11681037100E+03  0.15850335826E+03  0.76855310615E+02 0.  0.
          5    1    3    3  501    0  0.18069726901E+02  0.47054873868E+02 -0.28444353058E+03  0.28891328850E+03  0.47000000000E+01 0. -1.
        -11    1    4    4    0    0  0.14619184436E+02  0.11915609095E+02 -0.25562217050E+03  0.25631698411E+03  0.00000000000E+00 0.  1.
         12    1    4    4    0    0 -0.52425882839E+02 -0.54725504655E+02 -0.15691183906E+04  0.15709474459E+04  0.00000000000E+00 0. -1.
         -5    1    5    5    0  502 -0.42786983242E+02 -0.45020805923E+02 -0.12248090616E+03  0.13740910186E+03  0.47000000000E+01 0.  1.
         11    1    6    6    0    0  0.17435214045E+01 -0.61069570750E+01 -0.66324794990E+02  0.66628171384E+02  0.00000000000E+00 0. -1.
        -12    1    6    6    0    0  0.60780433339E+02  0.46882784690E+02 -0.50485576015E+02  0.91875186872E+02  0.00000000000E+00 0.  1.
</event>
<event>
12    1  0.8271773E-002  0.2349503E+03  0.7818608E-02  0.1123440E+00
         21   -1    0    0  503  502  0.00000000000E+00  0.00000000000E+00  0.45118575396E+03  0.45118575396E+03  0.00000000000E+00 0. -1.
         21   -1    0    0  501  503 -0.00000000000E+00 -0.00000000000E+00 -0.20866148086E+03  0.20866148086E+03  0.00000000000E+00 0. -1.
          6    2    1    2  501    0 -0.16493637016E+02 -0.15907894147E+03 -0.91602834880E+02  0.25217595943E+03  0.17211474509E+03 0.  0.
         24    2    3    3    0    0 -0.36209106840E+02 -0.41767611293E+02  0.73017380733E+01  0.97402407141E+02  0.79864139429E+02 0.  0.
         -6    2    1    2    0  502  0.16493637016E+02  0.15907894147E+03  0.33412710798E+03  0.40767127538E+03  0.17022571721E+03 0.  0.
        -24    2    5    5    0    0 -0.76895568160E+01  0.14220597575E+03  0.34014305566E+03  0.37721137612E+03  0.79432078785E+02 0.  0.
          5    1    3    3  501    0  0.19715469823E+02 -0.11731133018E+03 -0.98904572953E+02  0.15477355229E+03  0.47000000000E+01 0. -1.
        -11    1    4    4    0    0 -0.59506294667E+02 -0.41577365187E+02  0.12158209250E+02  0.73603657878E+02  0.00000000000E+00 0.  1.
         12    1    4    4    0    0  0.23297187827E+02 -0.19024610609E+00 -0.48564711767E+01  0.23798749263E+02  0.00000000000E+00 0. -1.
         -5    1    5    5    0  502  0.24183193833E+02  0.16872965723E+02 -0.60159476786E+01  0.30459899256E+02  0.47000000000E+01 0.  1.
         13    1    6    6    0    0 -0.32011791937E+01  0.75450453328E+02  0.86195301837E+02  0.11459776837E+03  0.00000000000E+00 0. -1.
        -14    1    6    6    0    0 -0.44883776223E+01  0.66755522419E+02  0.25394775383E+03  0.26261360776E+03  0.00000000000E+00 0.  1.
</event>
<event>
12    1  0.8271773E-002  0.2187490E+03  0.7818608E-02  0.1134959E+00
         21   -1    0    0  501  502  0.00000000000E+00  0.00000000000E+00  0.90910911755E+03  0.90910911755E+03  0.00000000000E+00 0.  1.
         21   -1    0    0  502  503 -0.00000000000E+00 -0.00000000000E+00 -0.52521745937E+02  0.52521745937E+02  0.00000000000E+00 0.  1.
         -6    2    1    2    0  503  0.32801109598E+02  0.13032395680E+03  0.41063853992E+03  0.46492021162E+03  0.17165822497E+03 0.  0.
        -24    2    3    3    0    0 -0.30632764293E+02  0.73138190195E+02  0.13147410205E+03  0.17294599764E+03  0.79607270250E+02 0.  0.
          6    2    1    2  501    0 -0.32801109598E+02 -0.13032395680E+03  0.44594883169E+03  0.49671065186E+03  0.17260030325E+03 0.  0.
         24    2    5    5    0    0  0.59052698514E+01  0.15813508869E+01  0.20924558025E+03  0.22294485186E+03  0.76702811141E+02 0.  0.
          5    1    5    5  501    0 -0.38706379449E+02 -0.13190530768E+03  0.23670325144E+03  0.27376580000E+03  0.47000000000E+01 0. -1.
        -13    1    6    6    0    0 -0.24657260787E+02 -0.15355770230E+02  0.36234198827E+02  0.46440255743E+02  0.00000000000E+00 0.  1.
         14    1    6    6    0    0  0.30562530638E+02  0.16937121117E+02  0.17301138142E+03  0.17650459612E+03  0.00000000000E+00 0. -1.
         -5    1    3    3    0  503  0.63433873890E+02  0.57185766603E+02  0.27916443788E+03  0.29197421399E+03  0.47000000000E+01 0.  1.
         13    1    4    4    0    0 -0.17162589676E+02  0.34471300133E+02  0.12585745631E+03  0.13161658075E+03  0.00000000000E+00 0. -1.
        -14    1    4    4    0    0 -0.13470174617E+02  0.38666890061E+02  0.56166457305E+01  0.41329416890E+02  0.00000000000E+00 0.  1.
</event>
<event>
12    1  0.8271773E-002  0.1901529E+03  0.7818608E-02  0.1159760E+00
         21   -1    0    0  501  502  0.00000000000E+00  0.00000000000E+00  0.21489189421E+03  0.21489189421E+03  0.00000000000E+00 0. -1.
         21   -1    0    0  502  503 -0.00000000000E+00 -0.00000000000E+00 -0.17659519517E+03  0.17659519517E+03  0.00000000000E+00 0. -1.
         -6    2    1    2    0  503 -0.99515413585E+01 -0.70647317926E+02 -0.35917955179E+02  0.18736472129E+03  0.16948558220E+03 0.  0.
        -24    2    3    3    0    0  0.37664771561E+01 -0.18713227584E+02  0.42223010960E+02  0.92425612592E+02  0.79970869520E+02 0.  0.
          6    2    1    2  501    0  0.99515413585E+01  0.70647317926E+02  0.74214654222E+02  0.20412236809E+03  0.17626131041E+03 0.  0.
         24    2    5    5    0    0  0.58399781214E+02 -0.57860816425E+01  0.39093031845E+02  0.10693741620E+03  0.80394854679E+02 0.  0.
          5    1    5    5  501    0 -0.48448239855E+02  0.76433399569E+02  0.35121622376E+02  0.97184951886E+02  0.47000000000E+01 0. -1.
        -11    1    6    6    0    0 -0.52575279271E+01 -0.65631167736E+01 -0.18984752202E+02  0.20763836781E+02  0.00000000000E+00 0.  1.
         12    1    6    6    0    0  0.63657309141E+02  0.77703513112E+00  0.58077784047E+02  0.86173579423E+02  0.00000000000E+00 0. -1.
         -5    1    3    3    0  503 -0.13718018515E+02 -0.51934090342E+02 -0.78140966140E+02  0.94939108700E+02  0.47000000000E+01 0.  1.
         11    1    4    4    0    0  0.38450110574E+02 -0.18320103412E+02  0.73151019131E+01  0.43215135174E+02  0.00000000000E+00 0. -1.
        -12    1    4    4    0    0 -0.34683633417E+02 -0.39312417256E+00  0.34907909047E+02  0.49210477418E+02  0.00000000000E+00 0.  1.
</event>
<event>
12    1  0.8271773E-002  0.1973717E+03  0.7818608E-02  0.1152060E+00
         21   -1    0    0  501  502  0.00000000000E+00  0.00000000000E+00  0.24715534637E+03  0.24715534637E+03  0.00000000000E+00 0. -1.
         21   -1    0    0  502  503 -0.00000000000E+00 -0.00000000000E+00 -0.19249042466E+03  0.19249042466E+03  0.00000000000E+00 0. -1.
         -6    2    1    2    0  503  0.94649669571E+02  0.20992527189E+02  0.12129892845E+03  0.23132951125E+03  0.17146622579E+03 0.  0.
        -24    2    3    3    0    0  0.50736556926E+02 -0.45233400943E+02  0.10354349779E+03  0.14977229001E+03  0.84203468752E+02 0.  0.
          6    2    1    2  501    0 -0.94649669571E+02 -0.20992527189E+02 -0.66634006746E+02  0.20831625978E+03  0.17191953666E+03 0.  0.
         24    2    5    5    0    0  0.11914723011E+02  0.18270607757E+02 -0.32607525206E+02  0.89667808554E+02  0.80630573969E+02 0.  0.
          5    1    5    5  501    0 -0.10656439258E+03 -0.39263134946E+02 -0.34026481540E+02  0.11864845122E+03  0.47000000000E+01 0. -1.
        -13    1    6    6    0    0  0.16233424937E+02 -0.22477449662E+02 -0.39353461891E+02  0.48139950055E+02  0.00000000000E+00 0.  1.
         14    1    6    6    0    0 -0.43187019260E+01  0.40748057419E+02  0.67459366847E+01  0.41527858499E+02  0.00000000000E+00 0. -1.
         -5    1    3    3    0  503  0.43913112644E+02  0.66225928132E+02  0.17755430659E+02  0.81557221244E+02  0.47000000000E+01 0.  1.
         11    1    4    4    0    0  0.40960803237E+02 -0.75709959657E+01  0.27687959654E+01  0.41746540130E+02  0.00000000000E+00 0. -1.
        -12    1    4    4    0    0  0.97757536899E+01 -0.37662404978E+02  0.10077470182E+03  0.10802574988E+03  0.00000000000E+00 0.  1.
</event>
<event>
12    1  0.8271773E-002  0.2245349E+03  0.7818608E-02  0.1131332E+00
         21   -1    0    0  501  502  0.00000000000E+00  0.00000000000E+00  0.17906020596E+03  0.17906020596E+03  0.00000000000E+00 0. -1.
         21   -1    0    0  502  503 -0.00000000000E+00 -0.00000000000E+00 -0.28786994459E+03  0.28786994459E+03  0.00000000000E+00 0. -1.
         -6    2    1    2    0  503  0.14286376515E+03  0.29173901056E+02 -0.69220777057E+01  0.22035967714E+03  0.16507362070E+03 0.  0.
        -24    2    3    3    0    0  0.14685548650E+03 -0.87005085101E+01  0.27235933730E+02  0.16898590480E+03  0.78563395868E+02 0.  0.
          6    2    1    2  501    0 -0.14286376515E+03 -0.29173901056E+02 -0.10188766092E+03  0.24657047341E+03  0.17074756517E+03 0.  0.
         24    2    5    5    0    0 -0.11965263154E+03 -0.61106466722E+02 -0.12540264422E+03  0.20038075688E+03  0.79849057852E+02 0.  0.
          5    1    5    5  501    0 -0.23211133613E+02  0.31932565666E+02  0.23514983299E+02  0.46189716530E+02  0.47000000000E+01 0. -1.
        -11    1    6    6    0    0 -0.21974604090E+02 -0.22166104449E+02 -0.79944620326E+02  0.85821685665E+02  0.00000000000E+00 0.  1.
         12    1    6    6    0    0 -0.97678027452E+02 -0.38940362273E+02 -0.45458023892E+02  0.11455907121E+03  0.00000000000E+00 0. -1.
         -5    1    3    3    0  503 -0.39917213462E+01  0.37874409566E+02 -0.34158011436E+02  0.51373772340E+02  0.47000000000E+01 0.  1.
         13    1    4    4    0    0  0.47728890857E+01 -0.82658442834E+01 -0.17578517452E+02  0.20002723009E+02  0.00000000000E+00 0. -1.
        -14    1    4    4    0    0  0.14208259742E+03 -0.43466422663E+00  0.44814451182E+02  0.14898318179E+03  0.00000000000E+00 0.  1.
</event>
<event>
12    1  0.8271773E-002  0.1814023E+03  0.7818608E-02  0.1166598E+00
         21   -1    0    0  503  502  0.00000000000E+00  0.00000000000E+00  0.14278268011E+03  0.14278268011E+03  0.00000000000E+00 0. -1.
         21   -1    0    0  501  503 -0.00000000000E+00 -0.00000000000E+00 -0.36237107200E+03  0.36237107200E+03  0.00000000000E+00 0. -1.
          6    2    1    2  501    0  0.22620147997E+02 -0.57719806478E+02 -0.26274094779E+03  0.31927980207E+03  0.17048031912E+03 0.  0.
         24    2    3    3    0    0  0.28146765342E+02 -0.62619793636E+02 -0.28037553414E+03  0.29959168358E+03  0.80195123124E+02 0.  0.
         -6    2    1    2    0  502 -0.22620147997E+02  0.57719806478E+02  0.43152555900E+02  0.18587395005E+03  0.16983443429E+03 0.  0.
        -24    2    5    5    0    0  0.81987164750E+01 -0.68160356624E+01 -0.30111334768E+02  0.83383145566E+02  0.77021939659E+02 0.  0.
          5    1    3    3  501    0 -0.55266173450E+01  0.48999871573E+01  0.17634586354E+02  0.19688118480E+02  0.47000000000E+01 0. -1.
        -11    1    4    4    0    0  0.35667406188E+02  0.50791344751E+01 -0.74775529196E+02  0.83002055623E+02  0.00000000000E+00 0.  1.
         12    1    4    4    0    0 -0.75206408463E+01 -0.67698928111E+02 -0.20560000495E+03  0.21658962796E+03  0.00000000000E+00 0. -1.
         -5    1    5    5    0  502 -0.30818864472E+02  0.64535842141E+02  0.73263890669E+02  0.10249080449E+03  0.47000000000E+01 0.  1.
         11    1    6    6    0    0  0.50076753987E+01  0.13614999601E+01  0.26038858752E+02  0.26550944619E+02  0.00000000000E+00 0. -1.
        -12    1    6    6    0    0  0.31910410764E+01 -0.81775356225E+01 -0.56150193521E+02  0.56832200947E+02  0.00000000000E+00 0.  1.
</event>
<event>
12    1  0.8271773E-002  0.1899775E+03  0.7818608E-02  0.1158567E+00
         21   -1    0    0  501  502  0.00000000000E+00  0.00000000000E+00  0.85773891674E+03  0.85773891674E+03  0.00000000000E+00 0.  1.
         21   -1    0    0  502  503 -0.00000000000E+00 -0.00000000000E+00 -0.57767315097E+02  0.57767315097E+02  0.00000000000E+00 0.  1.
         -6    2    1    2    0  503  0.56000850012E+02  0.57287196797E+02  0.16050032914E+03  0.24841181209E+03  0.17184340143E+03 0.  0.
        -24    2    3    3    0    0 -0.90614053114E+01  0.32997713143E+02  0.15306420337E+02  0.87394927149E+02  0.78946998986E+02 0.  0.
          6    2    1    2  501    0 -0.56000850012E+02 -0.57287196797E+02  0.63947127251E+03  0.66709441975E+03  0.17226008933E+03 0.  0.
         24    2    5    5    0    0 -0.13598699897E+02 -0.10056430689E+03  0.44970317169E+03  0.46783360403E+03  0.79606745775E+02 0.  0.
          5    1    5    5  501    0 -0.42402150115E+02  0.43277110090E+02  0.18976810082E+03  0.19926081572E+03  0.47000000000E+01 0. -1.
        -13    1    6    6    0    0 -0.40534479210E+02 -0.38325793740E+02  0.27129042267E+03  0.27696643100E+03  0.00000000000E+00 0.  1.
         14    1    6    6    0    0  0.26935779313E+02 -0.62238513148E+02  0.17841274903E+03  0.19086717303E+03  0.00000000000E+00 0. -1.
         -5    1    3    3    0  503  0.65062255324E+02  0.24289483655E+02  0.14519390880E+03  0.16101688494E+03  0.47000000000E+01 0.  1.
         13    1    4    4    0    0 -0.33993301791E+02  0.24564744238E+02  0.34917199850E+02  0.54572722779E+02  0.00000000000E+00 0. -1.
        -14    1    4    4    0    0  0.24931896480E+02  0.84329689044E+01 -0.19610779513E+02  0.32822204370E+02  0.00000000000E+00 0.  1.
</event>
<event>
12    1  0.8271773E-002  0.1804456E+03  0.7818608E-02  0.1167829E+00
         21   -1    0    0  503  502  0.00000000000E+00  0.00000000000E+00  0.11430001013E+04  0.11430001013E+04  0.00000000000E+00 0. -1.
         21   -1    0    0  501  503 -0.00000000000E+00 -0.00000000000E+00 -0.36362756763E+02  0.36362756763E+02  0.00000000000E+00 0. -1.
          6    2    1    2  501    0 -0.48461509358E+02  0.17576463361E+02  0.27152106334E+03  0.32497429358E+03  0.17095950895E+03 0.  0.
         24    2    3    3    0    0 -0.22339902353E+02  0.38137327008E+02  0.27734187183E+03  0.29089997366E+03  0.75833725073E+02 0.  0.
         -6    2    1    2    0  502  0.48461509358E+02 -0.17576463361E+02  0.83511628116E+03  0.85438856444E+03  0.17292531925E+03 0.  0.
        -24    2    5    5    0    0  0.95150232452E+02 -0.37802779888E+02  0.61537515825E+03  0.62878450454E+03  0.78744846564E+02 0.  0.
          5    1    3    3  501    0 -0.26121607005E+02 -0.20560863647E+02 -0.58208084933E+01  0.34074319919E+02  0.47000000000E+01 0. -1.
        -13    1    4    4    0    0  0.26170426216E+02  0.48143771768E+01  0.11991387778E+03  0.12283080851E+03  0.00000000000E+00 0.  1.
         14    1    4    4    0    0 -0.48510328569E+02  0.33322949831E+02  0.15742799406E+03  0.16806916515E+03  0.00000000000E+00 0. -1.
         -5    1    5    5    0  502 -0.46688723094E+02  0.20226316527E+02  0.21974112291E+03  0.22560405990E+03  0.47000000000E+01 0.  1.
         13    1    6    6    0    0  0.89279429399E+02 -0.15875378757E+02  0.57789524104E+03  0.58496645526E+03  0.00000000000E+00 0. -1.
        -14    1    6    6    0    0  0.58708030529E+01 -0.21927401131E+02  0.37479917210E+02  0.43818049282E+02  0.00000000000E+00 0.  1.
</event>
<event>
12    1  0.8271773E-002  0.1892207E+03  0.7818608E-02  0.1159719E+00
         21   -1    0    0  501  502  0.00000000000E+00  0.00000000000E+00  0.72894673068E+02  0.72894673068E+02  0.00000000000E+00 0. -1.
         21   -1    0    0  502  503 -0.00000000000E+00 -0.00000000000E+00 -0.49465331575E+03  0.49465331575E+03  0.00000000000E+00 0. -1.
         -6    2    1    2    0  503  0.67811884932E+02  0.37721011695E+02 -0.24935611576E+03  0.31156538004E+03  0.16992112027E+03 0.  0.
        -24    2    3    3    0    0 -0.48352015832E+01 -0.11633631619E+02 -0.18832331431E+03  0.20451131497E+03  0.78743169094E+02 0.  0.
          6    2    1    2  501    0 -0.67811884932E+02 -0.37721011695E+02 -0.17240252693E+03  0.25598260878E+03  0.17257791934E+03 0.  0.
         24    2    5    5    0    0  0.27764296727E+02  0.98572209072E+01 -0.73915164768E+02  0.11065420404E+03  0.76895255460E+02 0.  0.
          5    1    5    5  501    0 -0.95576181660E+02 -0.47578232603E+02 -0.98487362158E+02  0.14532840474E+03  0.47000000000E+01 0. -1.
        -13    1    6    6    0    0  0.18595929585E+01  0.74508596340E+01 -0.82805542907E+02  0.83160876206E+02  0.00000000000E+00 0.  1.
         14    1    6    6    0    0  0.25904703769E+02  0.24063612732E+01  0.88903781388E+01  0.27493327834E+02  0.00000000000E+00 0. -1.
         -5    1    3    3    0  503  0.72647086515E+02  0.49354643315E+02 -0.61032801445E+02  0.10705406507E+03  0.47000000000E+01 0.  1.
         11    1    4    4    0    0  0.10637165987E+02  0.30047416924E+02 -0.10914729651E+03  0.11370632744E+03  0.00000000000E+00 0. -1.
        -12    1    4    4    0    0 -0.15472367570E+02 -0.41681048543E+02 -0.79176017798E+02  0.90804987530E+02  0.00000000000E+00 0.  1.
</event>
<event>
12    1  0.8271773E-002  0.1888753E+03  0.7818608E-02  0.1159960E+00
         21   -1    0    0  501  502  0.00000000000E+00  0.00000000000E+00  0.11846124373E+04  0.11846124373E+04  0.00000000000E+00 0. -1.
         21   -1    0    0  502  503 -0.00000000000E+00 -0.00000000000E+00 -0.36910868863E+02  0.36910868863E+02  0.00000000000E+00 0.  1.
         -6    2    1    2    0  503 -0.56459325465E+02 -0.46513818545E+02  0.30799740820E+03  0.36129803436E+03  0.17413407314E+03 0.  0.
        -24    2    3    3    0    0 -0.37088364135E+02 -0.46778348886E+02  0.68254338812E+02  0.12072760093E+03  0.79704066283E+02 0.  0.
          6    2    1    2  501    0  0.56459325465E+02  0.46513818545E+02  0.83970416019E+03  0.86022527176E+03  0.17185240988E+03 0.  0.
         24    2    5    5    0    0 -0.66897996234E+01  0.46298121791E+02  0.70865483223E+03  0.71467845838E+03  0.79908435931E+02 0.  0.
          5    1    5    5  501    0  0.63149125088E+02  0.21569675354E+00  0.13104932796E+03  0.14554681337E+03  0.47000000000E+01 0. -1.
        -11    1    6    6    0    0 -0.10517526699E+02  0.32998764426E+02  0.99303046108E+02  0.10516953831E+03  0.00000000000E+00 0.  1.
         12    1    6    6    0    0  0.38277270756E+01  0.13299357365E+02  0.60935178612E+03  0.60950892008E+03  0.00000000000E+00 0. -1.
         -5    1    3    3    0  503 -0.19370961330E+02  0.26453034115E+00  0.23974306939E+03  0.24057043343E+03  0.47000000000E+01 0.  1.
         11    1    4    4    0    0 -0.16042118019E+02  0.21259834332E+02  0.29128378488E+02  0.39468880649E+02  0.00000000000E+00 0. -1.
        -12    1    4    4    0    0 -0.21046246116E+02 -0.68038183218E+02  0.39125960324E+02  0.81258720285E+02  0.00000000000E+00 0.  1.
</event>
<event>
12    1  0.8271773E-002  0.3457630E+03  0.7818608E-02  0.1064509E+00
         21   -1    0    0  503  502  0.00000000000E+00  0.00000000000E+00  0.30494187620E+03  0.30494187620E+03  0.00000000000E+00 0. -1.
         21   -1    0    0  501  503 -0.00000000000E+00 -0.00000000000E+00 -0.55400929310E+03  0.55400929310E+03  0.00000000000E+00 0.  1.
          6    2    1    2  501    0  0.16333392857E+03  0.24980729141E+03 -0.35801541350E+03  0.49772188082E+03  0.17455766748E+03 0.  0.
         24    2    3    3    0    0  0.23873648065E+02  0.16446824766E+02 -0.97148168727E+02  0.12091943042E+03  0.65903663397E+02 0.  0.
         -6    2    1    2    0  502 -0.16333392857E+03 -0.24980729141E+03  0.10894799660E+03  0.36122928849E+03  0.17185830743E+03 0.  0.
        -24    2    5    5    0    0 -0.12900752452E+03 -0.26624219761E+03  0.95695502655E+02  0.32065680085E+03  0.78328191192E+02 0.  0.
          5    1    3    3  501    0  0.13946028051E+03  0.23336046665E+03 -0.26086724478E+03  0.37680245040E+03  0.47000000000E+01 0. -1.
        -13    1    4    4    0    0  0.40182086706E+02 -0.78609151991E+01 -0.43059814491E+02  0.59418361672E+02  0.00000000000E+00 0.  1.
         14    1    4    4    0    0 -0.16308438641E+02  0.24307739965E+02 -0.54088354236E+02  0.61501068747E+02  0.00000000000E+00 0. -1.
         -5    1    5    5    0  502 -0.34326404051E+02  0.16434906197E+02  0.13252493949E+02  0.40572487632E+02  0.47000000000E+01 0.  1.
         13    1    6    6    0    0 -0.94832998060E+02 -0.13506891559E+03  0.82374753444E+02  0.18445191646E+03  0.00000000000E+00 0. -1.
        -14    1    6    6    0    0 -0.34174526460E+02 -0.13117328202E+03  0.13320749211E+02  0.13620488439E+03  0.00000000000E+00 0.  1.
</event>
<event>
12    1  0.8271773E-002  0.2520439E+03  0.7818608E-02  0.1112464E+00
         21   -1    0    0  503  502  0.00000000000E+00  0.00000000000E+00  0.23243899279E+04  0.23243899279E+04  0.00000000000E+00 0. -1.
         21   -1    0    0  501  503 -0.00000000000E+00 -0.00000000000E+00 -0.13846689225E+03  0.13846689225E+03  0.00000000000E+00 0. -1.
          6    2    1    2  501    0 -0.11845404091E+02  0.18423546940E+03 -0.10574422547E+02  0.25226566861E+03  0.17158999786E+03 0.  0.
         24    2    3    3    0    0  0.91914164517E+01  0.83002093195E+02 -0.67212590892E+02  0.13427958304E+03  0.80868068078E+02 0.  0.
         -6    2    1    2    0  502  0.11845404091E+02 -0.18423546940E+03  0.21964974582E+04  0.22105911515E+04  0.16741903611E+03 0.  0.
        -24    2    5    5    0    0  0.52866805414E+02 -0.18289057355E+03  0.18955670013E+04  0.19068383013E+04  0.81327671128E+02 0.  0.
          5    1    3    3  501    0 -0.21036820543E+02  0.10123337620E+03  0.56638168345E+02  0.11798608557E+03  0.47000000000E+01 0. -1.
        -13    1    4    4    0    0 -0.34089126820E+02  0.40332029138E+02 -0.45605180227E+02  0.69775164674E+02  0.00000000000E+00 0.  1.
         14    1    4    4    0    0  0.43280543272E+02  0.42670064057E+02 -0.21607410665E+02  0.64504418362E+02  0.00000000000E+00 0. -1.
         -5    1    5    5    0  502 -0.41021401323E+02 -0.13448958473E+01  0.30093045690E+03  0.30375285019E+03  0.47000000000E+01 0.  1.
         11    1    6    6    0    0  0.47032974559E+02 -0.11834797497E+03  0.87538770618E+03  0.88460272440E+03  0.00000000000E+00 0. -1.
        -12    1    6    6    0    0  0.58338308545E+01 -0.64542598582E+02  0.10201792951E+04  0.10222355769E+04  0.00000000000E+00 0.  1.
</event>
<event>
12    1  0.8271773E-002  0.1977039E+03  0.7818608E-02  0.1151820E+00
         21   -1    0    0  501  502  0.00000000000E+00  0.00000000000E+00  0.71026409652E+03  0.71026409652E+03  0.00000000000E+00 0. -1.
         21   -1    0    0  502  503 -0.00000000000E+00 -0.00000000000E+00 -0.95765997684E+02  0.95765997684E+02  0.00000000000E+00 0. -1.
         -6    2    1    2    0  503 -0.96572838510E+02  0.77791848338E+00  0.44134208557E+02  0.20257013600E+03  0.17251061805E+03 0.  0.
        -24    2    3    3    0    0 -0.12748523748E+03 -0.29122613735E+02  0.39486025896E+02  0.15905790968E+03  0.81484108786E+02 0.  0.
          6    2    1    2  501    0  0.96572838510E+02 -0.77791848338E+00  0.57036389028E+03  0.60345995820E+03  0.17181977630E+03 0.  0.
         24    2    5    5    0    0  0.22588236269E+02 -0.58580802188E+02  0.25414695989E+03  0.27356583610E+03  0.79408127153E+02 0.  0.
          5    1    5    5  501    0  0.73984602241E+02  0.57802883705E+02  0.31621693039E+03  0.32989412211E+03  0.47000000000E+01 0. -1.
        -13    1    6    6    0    0 -0.42793963788E+01 -0.41958903432E+02  0.22990948068E+03  0.23374608471E+03  0.00000000000E+00 0.  1.
         14    1    6    6    0    0  0.26867632648E+02 -0.16621898757E+02  0.24237479206E+02  0.39819751389E+02  0.00000000000E+00 0. -1.
         -5    1    3    3    0  503  0.30912398971E+02  0.29900532218E+02  0.46481826608E+01  0.43512226318E+02  0.47000000000E+01 0.  1.
         11    1    4    4    0    0 -0.16045584616E+02 -0.24376755125E+02 -0.17266855780E+02  0.33909162252E+02  0.00000000000E+00 0. -1.
        -12    1    4    4    0    0 -0.11143965287E+03 -0.47458586102E+01  0.56752881676E+02  0.12514874743E+03  0.00000000000E+00 0.  1.
</event>
<event>
12    1  0.8271773E-002  0.1935129E+03  0.7818608E-02  0.1155465E+00
         21   -1    0    0  501  502  0.00000000000E+00  0.00000000000E+00  0.14075658753E+03  0.14075658753E+03  0.00000000000E+00 0.  1.
         21   -1    0    0  502  503 -0.00000000000E+00 -0.00000000000E+00 -0.54400986277E+03  0.54400986277E+03  0.00000000000E+00 0.  1.
         -6    2    1    2    0  503 -0.15660541758E+02 -0.85056347937E+02 -0.44658051911E+03  0.48646242548E+03  0.17242881565E+03 0.  0.
        -24    2    3    3    0    0  0.27449081492E+02 -0.11384320253E+03 -0.33940909805E+03  0.36731996409E+03  0.77535110413E+02 0.  0.
          6    2    1    2  501    0  0.15660541758E+02  0.85056347937E+02  0.43327243867E+02  0.19830402483E+03  0.17311095086E+03 0.  0.
         24    2    5    5    0    0  0.82797612347E+01  0.95590818620E+02 -0.23543887454E+02  0.13004503862E+03  0.84564995021E+02 0.  0.
          5    1    5    5  501    0  0.73807805234E+01 -0.10534470684E+02  0.66871131321E+02  0.68258986206E+02  0.47000000000E+01 0. -1.
        -13    1    6    6    0    0  0.42406492605E+02  0.75729477130E+02 -0.25644679102E+02  0.90503667813E+02  0.00000000000E+00 0.  1.
         14    1    6    6    0    0 -0.34126731370E+02  0.19861341490E+02  0.21007916479E+01  0.39541370807E+02  0.00000000000E+00 0. -1.
         -5    1    3    3    0  503 -0.43109623250E+02  0.28786854593E+02 -0.10717142106E+03  0.11914246139E+03  0.47000000000E+01 0.  1.
         13    1    4    4    0    0  0.26334153263E+02  0.26166952491E+00 -0.64295764909E+02  0.69480223692E+02  0.00000000000E+00 0. -1.
        -14    1    4    4    0    0  0.11149282288E+01 -0.11410487205E+03 -0.27511333314E+03  0.29783974040E+03  0.00000000000E+00 0.  1.
</event>
<event>
12    1  0.8271773E-002  0.1814299E+03  0.7818608E-02  0.1166651E+00
         21   -1    0    0  503  502  0.00000000000E+00  0.00000000000E+00  0.15339257829E+04  0.15339257829E+04  0.00000000000E+00 0. -1.
         21   -1    0    0  501  503 -0.00000000000E+00 -0.00000000000E+00 -0.22874498405E+02  0.22874498405E+02  0.00000000000E+00 0. -1.
          6    2    1    2  501    0  0.38416097569E+02  0.37528797330E+02  0.95840484719E+03  0.97542640432E+03  0.17329919772E+03 0.  0.
         24    2    3    3    0    0 -0.12718110296E+02  0.79521525937E+02  0.53078569725E+03  0.54269285596E+03  0.79351471904E+02 0.  0.
         -6    2    1    2    0  502 -0.38416097569E+02 -0.37528797330E+02  0.55264643732E+03  0.58137387701E+03  0.17231741933E+03 0.  0.
        -24    2    5    5    0    0  0.26740249979E+02  0.21398568302E+02  0.20232509099E+03  0.22017459719E+03  0.79802701143E+02 0.  0.
          5    1    3    3  501    0  0.51134207865E+02 -0.41992728607E+02  0.42761914995E+03  0.43273354835E+03  0.47000000000E+01 0. -1.
        -13    1    4    4    0    0 -0.40806280304E+02  0.16798946597E+02  0.22368024339E+03  0.22799168494E+03  0.00000000000E+00 0.  1.
         14    1    4    4    0    0  0.28088170009E+02  0.62722579340E+02  0.30710545386E+03  0.31470117102E+03  0.00000000000E+00 0. -1.
         -5    1    5    5    0  502 -0.65156347549E+02 -0.58927365632E+02  0.35032134633E+03  0.36119927982E+03  0.47000000000E+01 0.  1.
         13    1    6    6    0    0 -0.26234492179E+02  0.21118356679E+02  0.71683441585E+02  0.79200690440E+02  0.00000000000E+00 0. -1.
        -14    1    6    6    0    0  0.52974742158E+02  0.28021162261E+00  0.13064164940E+03  0.14097390675E+03  0.00000000000E+00 0.  1.
</event>
<event>
12    1  0.8271773E-002  0.1870836E+03  0.7818608E-02  0.1161554E+00
         21   -1    0    0  503  502  0.00000000000E+00  0.00000000000E+00  0.73061300938E+03  0.73061300938E+03  0.00000000000E+00 0. -1.
         21   -1    0    0  501  503 -0.00000000000E+00 -0.00000000000E+00 -0.92269292485E+02  0.92269292485E+02  0.00000000000E+00 0.  1.
          6    2    1    2  501    0 -0.46775324769E+02 -0.50556420227E+02  0.33166156754E+02  0.19000072411E+03  0.17394366495E+03 0.  0.
         24    2    3    3    0    0  0.27806261445E+02 -0.68351710333E+02  0.29118444468E+02  0.11307505007E+03  0.80578773007E+02 0.  0.
         -6    2    1    2    0  502  0.46775324769E+02  0.50556420227E+02  0.60517756014E+03  0.63288157775E+03  0.17191663539E+03 0.  0.
        -24    2    5    5    0    0 -0.35751823082E+02  0.15508878645E+02  0.38851993764E+03  0.39835721720E+03  0.78879733661E+02 0.  0.
          5    1    3    3  501    0 -0.74581586215E+02  0.17795290107E+02  0.40477122867E+01  0.76925674044E+02  0.47000000000E+01 0. -1.
        -13    1    4    4    0    0  0.79157300009E+01  0.18168010225E+02  0.10265955423E+02  0.22318718998E+02  0.00000000000E+00 0.  1.
         14    1    4    4    0    0  0.19890531445E+02 -0.86519720558E+02  0.18852489045E+02  0.90756331073E+02  0.00000000000E+00 0. -1.
         -5    1    5    5    0  502  0.82527147852E+02  0.35047541582E+02  0.21665762250E+03  0.23452436055E+03  0.47000000000E+01 0.  1.
         13    1    6    6    0    0 -0.12878934508E+02  0.33312480154E+02  0.33976507937E+03  0.34163708442E+03  0.00000000000E+00 0. -1.
        -14    1    6    6    0    0 -0.22872888575E+02 -0.17803601509E+02  0.48754858269E+02  0.56720132786E+02  0.00000000000E+00 0.  1.
</event>
<event>
12    1  0.8271773E-002  0.1777238E+03  0.7818608E-02  0.1170213E+00
         21   -1    0    0  501  502  0.00000000000E+00  0.00000000000E+00  0.59137636647E+02  0.59137636647E+02  0.00000000000E+00 0.  1.
         21   -1    0    0  502  503 -0.00000000000E+00 -0.00000000000E+00 -0.53223866973E+03  0.53223866973E+03  0.00000000000E+00 0.  1.
         -6    2    1    2    0  503 -0.23206336872E+02  0.40680201440E+02 -0.22870035135E+03  0.28963701160E+03  0.17144192871E+03 0.  0.
        -24    2    3    3    0    0 -0.36366926714E+02  0.74392058818E+02 -0.22471412900E+03  0.25292638069E+03  0.81354671070E+02 0.  0.
          6    2    1    2  501    0  0.23206336872E+02 -0.40680201440E+02 -0.24440068173E+03  0.30173929477E+03  0.17065021512E+03 0.  0.
         24    2    5    5    0    0 -0.23047075730E+02 -0.64771152968E+02 -0.22078581449E+03  0.24429798492E+03  0.78795048070E+02 0.  0.
          5    1    5    5  501    0  0.46253412602E+02  0.24090951528E+02 -0.23614867240E+02  0.57441309853E+02  0.47000000000E+01 0. -1.
        -13    1    6    6    0    0 -0.16795492543E+02 -0.37365692095E+02 -0.28349355877E+02  0.49819368664E+02  0.00000000000E+00 0.  1.
         14    1    6    6    0    0 -0.62515831875E+01 -0.27405460873E+02 -0.19243645861E+03  0.19447861625E+03  0.00000000000E+00 0. -1.
         -5    1    3    3    0  503  0.13160589843E+02 -0.33711857378E+02 -0.39862223516E+01  0.36710630906E+02  0.47000000000E+01 0.  1.
         11    1    4    4    0    0 -0.49115088118E+02  0.50087686419E+02 -0.83437328127E+02  0.10900851314E+03  0.00000000000E+00 0. -1.
        -12    1    4    4    0    0  0.12748161403E+02  0.24304372399E+02 -0.14127680087E+03  0.14391786756E+03  0.00000000000E+00 0.  1.
</event>
<event>
12    1  0.8271773E-002  0.2440859E+03  0.7818608E-02  0.1117306E+00
         21   -1    0    0  503  502  0.00000000000E+00  0.00000000000E+00  0.26476868616E+03  0.26476868616E+03  0.00000000000E+00 0.  1.
         21   -1    0    0  501  503 -0.00000000000E+00 -0.00000000000E+00 -0.30437794162E+03  0.30437794162E+03  0.00000000000E+00 0.  1.
          6    2    1    2  501    0  0.11821362590E+03 -0.12303606810E+03 -0.16620310568E+03  0.29529882477E+03  0.17454394338E+03 0.  0.
         24    2    3    3    0    0  0.13722677584E+03 -0.50860643721E+02 -0.91660411833E+02  0.18970765581E+03  0.78545340343E+02 0.  0.
         -6    2    1    2    0  502 -0.11821362590E+03  0.12303606810E+03  0.12659385022E+03  0.27384780301E+03  0.17278391388E+03 0.  0.
        -24    2    5    5    0    0 -0.63279089544E+02  0.75233937829E-01  0.51878196394E+02  0.11976441990E+03  0.87452388068E+02 0.  0.
          5    1    3    3  501    0 -0.19013149941E+02 -0.72175424383E+02 -0.74542693851E+02  0.10559116896E+03  0.47000000000E+01 0. -1.
        -11    1    4    4    0    0  0.13848276609E+03 -0.63098901712E+02 -0.91159240648E+02  0.17739491271E+03  0.00000000000E+00 0.  1.
         12    1    4    4    0    0 -0.12559902468E+01  0.12238257991E+02 -0.50117118556E+00  0.12312743102E+02  0.00000000000E+00 0. -1.
         -5    1    5    5    0  502 -0.54934536355E+02  0.12296083417E+03  0.74715653829E+02  0.15408338311E+03  0.47000000000E+01 0.  1.
         13    1    6    6    0    0 -0.79161813625E+02  0.69344766730E+01  0.61026142619E+02  0.10019416044E+03  0.00000000000E+00 0. -1.
        -14    1    6    6    0    0  0.15882724081E+02 -0.68592427352E+01 -0.91479462251E+01  0.19570259459E+02  0.00000000000E+00 0.  1.
</event>
<event>
12    1  0.8271773E-002  0.1895093E+03  0.7818608E-02  0.1159111E+00
         21   -1    0    0  503  502  0.00000000000E+00  0.00000000000E+00  0.52572014748E+03  0.52572014748E+03  0.00000000000E+00 0. -1.
         21   -1    0    0  501  503 -0.00000000000E+00 -0.00000000000E+00 -0.72270021264E+02  0.72270021264E+02  0.00000000000E+00 0. -1.
          6    2    1    2  501    0 -0.40345575077E+02 -0.68032832842E+02  0.15444036810E+03  0.24447007821E+03  0.17221370465E+03 0.  0.
         24    2    3    3    0    0 -0.32660392823E+02  0.16451317730E+01  0.15117091984E+03  0.17413615985E+03  0.80008421088E+02 0.  0.
         -6    2    1    2    0  502  0.40345575077E+02  0.68032832842E+02  0.29900975812E+03  0.35352009053E+03  0.17121152762E+03 0.  0.
        -24    2    5    5    0    0  0.11246319963E+02  0.20835490105E+02  0.44082905359E+02  0.92590701491E+02  0.77904673139E+02 0.  0.
          5    1    3    3  501    0 -0.76851822540E+01 -0.69677964615E+02  0.32694482552E+01  0.70333918354E+02  0.47000000000E+01 0. -1.
        -11    1    4    4    0    0  0.87532421367E+01  0.19801267491E+02  0.11271786567E+03  0.11477816292E+03  0.00000000000E+00 0.  1.
         12    1    4    4    0    0 -0.41413634959E+02 -0.18156135717E+02  0.38453054168E+02  0.59357996930E+02  0.00000000000E+00 0. -1.
         -5    1    5    5    0  502  0.29099255113E+02  0.47197342736E+02  0.25492685276E+03  0.26092938904E+03  0.47000000000E+01 0.  1.
         13    1    6    6    0    0  0.64132385188E+01  0.26894844794E+02  0.64810272260E+02  0.70461576020E+02  0.00000000000E+00 0. -1.
        -14    1    6    6    0    0  0.48330814446E+01 -0.60593546889E+01 -0.20727366900E+02  0.22129125471E+02  0.00000000000E+00 0.  1.
</event>
<event>
12    1  0.8271773E-002  0.2919674E+03  0.7818608E-02  0.1089833E+00
         21   -1    0    0  503  502  0.00000000000E+00  0.00000000000E+00  0.12933271031E+04  0.12933271031E+04  0.00000000000E+00 0. -1.
         21   -1    0    0  501  503 -0.00000000000E+00 -0.00000000000E+00 -0.75727005501E+02  0.75727005501E+02  0.00000000000E+00 0.  1.
          6    2    1    2  501    0  0.19428138959E+03  0.12346989292E+03  0.86947936618E+03  0.91719100543E+03  0.17959649063E+03 0.  0.
         24    2    3    3    0    0  0.12213237611E+03  0.13462882312E+03  0.45668209956E+03  0.49796114582E+03  0.79784242650E+02 0.  0.
         -6    2    1    2    0  502 -0.19428138959E+03 -0.12346989292E+03  0.34812073145E+03  0.45186310319E+03  0.17321128012E+03 0.  0.
        -24    2    5    5    0    0 -0.81404428315E+02 -0.12721289352E+03  0.17213292672E+03  0.24270044913E+03  0.80398770634E+02 0.  0.
          5    1    3    3  501    0  0.72149013478E+02 -0.11158930200E+02  0.41279726661E+03  0.41922985961E+03  0.47000000000E+01 0. -1.
        -13    1    4    4    0    0  0.69895901409E+02  0.11476423311E+03  0.38012071803E+03  0.40317245257E+03  0.00000000000E+00 0.  1.
         14    1    4    4    0    0  0.52236474706E+02  0.19864590010E+02  0.76561381532E+02  0.94788693250E+02  0.00000000000E+00 0. -1.
         -5    1    5    5    0  502 -0.11287696128E+03  0.37430005965E+01  0.17598780473E+03  0.20916265406E+03  0.47000000000E+01 0.  1.
         11    1    6    6    0    0 -0.80189949078E+02 -0.70907296565E+02  0.14487921462E+03  0.18013400420E+03  0.00000000000E+00 0. -1.
        -12    1    6    6    0    0 -0.12144792368E+01 -0.56305596956E+02  0.27253712103E+02  0.62566444935E+02  0.00000000000E+00 0.  1.
</event>
<event>
12    1  0.8271773E-002  0.1945109E+03  0.7818608E-02  0.1155134E+00
         21   -1    0    0  503  502  0.00000000000E+00  0.00000000000E+00  0.15176344647E+03  0.15176344647E+03  0.00000000000E+00 0. -1.
         21   -1    0    0  501  503 -0.00000000000E+00 -0.00000000000E+00 -0.24605055322E+03  0.24605055322E+03  0.00000000000E+00 0. -1.
          6    2    1    2  501    0 -0.14234018055E+02  0.86868281600E+02 -0.57254342217E+02  0.19980917062E+03  0.16999099783E+03 0.  0.
         24    2    3    3    0    0  0.15942837084E+02  0.11510706092E+03 -0.69203838916E+02  0.15653155845E+03  0.78798146821E+02 0.  0.
         -6    2    1    2    0  502  0.14234018055E+02 -0.86868281600E+02 -0.37032764535E+02  0.19800482907E+03  0.17345253261E+03 0.  0.
        -24    2    5    5    0    0  0.51397045878E+02 -0.34041789800E+02 -0.85895812272E+02  0.11687890037E+03  0.49820548061E+02 0.  0.
          5    1    3    3  501    0 -0.30176855139E+02 -0.28238779319E+02  0.11949496699E+02  0.43277612167E+02  0.47000000000E+01 0. -1.
        -11    1    4    4    0    0 -0.18165875293E+02  0.62591906885E+02 -0.67585013379E+02  0.93890786908E+02  0.00000000000E+00 0.  1.
         12    1    4    4    0    0  0.34108712378E+02  0.52515154034E+02 -0.16188255363E+01  0.62640771542E+02  0.00000000000E+00 0. -1.
         -5    1    5    5    0  502 -0.37163027823E+02 -0.52826491800E+02  0.48863047737E+02  0.81125928698E+02  0.47000000000E+01 0.  1.
         13    1    6    6    0    0  0.30915453917E+02 -0.29676802045E+02 -0.85834019288E+02  0.95937254170E+02  0.00000000000E+00 0. -1.
        -14    1    6    6    0    0  0.20481591961E+02 -0.43649877558E+01 -0.61792983232E-01  0.20941646204E+02  0.00000000000E+00 0.  1.
</event>
<event>
12    1  0.8271773E-002  0.2091085E+03  0.7818608E-02  0.1143013E+00
         21   -1    0    0  501  502  0.00000000000E+00  0.00000000000E+00  0.58512847682E+02  0.58512847682E+02  0.00000000000E+00 0. -1.
         21   -1    0    0  502  503 -0.00000000000E+00 -0.00000000000E+00 -0.84072237709E+03  0.84072237709E+03  0.00000000000E+00 0. -1.
         -6    2    1    2    0  503 -0.11626463368E+03  0.13793968017E+02 -0.54810160853E+03  0.58533574798E+03  0.16880410538E+03 0.  0.
        -24    2    3    3    0    0  0.64696062197E-01  0.10741923018E+02 -0.32916182630E+03  0.33734674383E+03  0.73074787615E+02 0.  0.
          6    2    1    2  501    0  0.11626463368E+03 -0.13793968017E+02 -0.23410792088E+03  0.31389947679E+03  0.17325883618E+03 0.  0.
         24    2    5    5    0    0  0.13700807817E+03  0.29605352768E+01 -0.23864602736E+03  0.28644609302E+03  0.79495028648E+02 0.  0.
          5    1    5    5  501    0 -0.20743444491E+02 -0.16754503293E+02  0.45381064812E+01  0.27453383770E+02  0.47000000000E+01 0. -1.
        -11    1    6    6    0    0  0.17368672190E+02 -0.48522359886E+01 -0.10650096277E+03  0.10801698959E+03  0.00000000000E+00 0.  1.
         12    1    6    6    0    0  0.11963940598E+03  0.78127712654E+01 -0.13214506459E+03  0.17842910344E+03  0.00000000000E+00 0. -1.
         -5    1    3    3    0  503 -0.11632932974E+03  0.30520449991E+01 -0.21893978223E+03  0.24798900415E+03  0.47000000000E+01 0.  1.
         13    1    4    4    0    0 -0.19538511677E+02  0.35723881854E+02 -0.21647338456E+03  0.22026955167E+03  0.00000000000E+00 0. -1.
        -14    1    4    4    0    0  0.19603207739E+02 -0.24981958836E+02 -0.11268844174E+03  0.11707719216E+03  0.00000000000E+00 0.  1.
</event>
<event>
12    1  0.8271773E-002  0.1805873E+03  0.7818608E-02  0.1167443E+00
         21   -1    0    0  503  502  0.00000000000E+00  0.00000000000E+00  0.15709275571E+03  0.15709275571E+03  0.00000000000E+00 0. -1.
         21   -1    0    0  501  503 -0.00000000000E+00 -0.00000000000E+00 -0.29006549964E+03  0.29006549964E+03  0.00000000000E+00 0.  1.
          6    2    1    2  501    0 -0.51430649316E+02  0.32330066401E+01 -0.18629935931E+03  0.25886196012E+03  0.17218158757E+03 0.  0.
         24    2    3    3    0    0 -0.95175910551E+02  0.32079301135E+02 -0.12771452252E+03  0.18012169286E+03  0.77751459571E+02 0.  0.
         -6    2    1    2    0  502  0.51430649316E+02 -0.32330066401E+01  0.53326615385E+02  0.18829629522E+03  0.17307860314E+03 0.  0.
        -24    2    5    5    0    0  0.93516475674E+02  0.26935628425E+02  0.21544719899E+02  0.12735745537E+03  0.79277280360E+02 0.  0.
          5    1    3    3  501    0  0.43745261234E+02 -0.28846294495E+02 -0.58584836793E+02  0.78740267263E+02  0.47000000000E+01 0. -1.
        -11    1    4    4    0    0 -0.23084112614E+02 -0.20073988840E+02 -0.63203867467E+02  0.70218018670E+02  0.00000000000E+00 0.  1.
         12    1    4    4    0    0 -0.72091797937E+02  0.52153289975E+02 -0.64510655054E+02  0.10990367419E+03  0.00000000000E+00 0. -1.
         -5    1    5    5    0  502 -0.42085826358E+02 -0.30168635065E+02  0.31781895486E+02  0.60938839853E+02  0.47000000000E+01 0.  1.
         13    1    6    6    0    0 -0.10537191491E+02  0.57708527158E+01  0.17333127580E+02  0.21089629141E+02  0.00000000000E+00 0. -1.
        -14    1    6    6    0    0  0.10405366717E+03  0.21164775709E+02  0.42115923187E+01  0.10626782623E+03  0.00000000000E+00 0.  1.
</event>
<event>
12    1  0.8271773E-002  0.2004035E+03  0.7818608E-02  0.1149489E+00
         21   -1    0    0  501  502  0.00000000000E+00  0.00000000000E+00  0.14174002058E+03  0.14174002058E+03  0.00000000000E+00 0.  1.
         21   -1    0    0  502  503 -0.00000000000E+00 -0.00000000000E+00 -0.34361169268E+03  0.34361169268E+03  0.00000000000E+00 0.  1.
         -6    2    1    2    0  503 -0.77029812618E+02  0.67054151012E+02 -0.20298696597E+03  0.28494506729E+03  0.17193060175E+03 0.  0.
        -24    2    3    3    0    0  0.55220752431E+01 -0.80008019425E+01 -0.12422293187E+03  0.14829250339E+03  0.80404126839E+02 0.  0.
          6    2    1    2  501    0  0.77029812618E+02 -0.67054151012E+02  0.11152938696E+01  0.20040664596E+03  0.17242890902E+03 0.  0.
         24    2    5    5    0    0  0.97492214130E+02 -0.39059859068E+02 -0.48194475116E+02  0.13994232942E+03  0.78935060185E+02 0.  0.
          5    1    5    5  501    0 -0.20462401513E+02 -0.27994291944E+02  0.49309768986E+02  0.60464316539E+02  0.47000000000E+01 0. -1.
        -11    1    6    6    0    0  0.26322662320E+02 -0.50041148224E+02 -0.69819508373E+01  0.56971455174E+02  0.00000000000E+00 0.  1.
         12    1    6    6    0    0  0.71169551810E+02  0.10981289155E+02 -0.41212524279E+02  0.82970874250E+02  0.00000000000E+00 0. -1.
         -5    1    3    3    0  503 -0.82551887861E+02  0.75054952955E+02 -0.78764034105E+02  0.13665256390E+03  0.47000000000E+01 0.  1.
         11    1    4    4    0    0  0.84952139203E+01 -0.83742412242E+01 -0.13580560790E+03  0.13632849927E+03  0.00000000000E+00 0. -1.
        -12    1    4    4    0    0 -0.29731386772E+01  0.37343928165E+00  0.11582676033E+02  0.11964004120E+02  0.00000000000E+00 0.  1.
</event>
<event>
12    1  0.8271773E-002  0.1878163E+03  0.7818608E-02  0.1161185E+00
         21   -1    0    0  503  502  0.00000000000E+00  0.00000000000E+00  0.96625050786E+03  0.96625050786E+03  0.00000000000E+00 0. -1.
         21   -1    0    0  501  503 -0.00000000000E+00 -0.00000000000E+00 -0.66694335316E+02  0.66694335316E+02  0.00000000000E+00 0.  1.
          6    2    1    2  501    0  0.67746850277E+02  0.11931120777E+02  0.96694850721E+02  0.20840784670E+03  0.17132410527E+03 0.  0.
         24    2    3    3    0    0  0.10903355294E+03  0.11285901591E+02  0.98413407558E+02  0.16681395818E+03  0.78268835535E+02 0.  0.
         -6    2    1    2    0  502 -0.67746850277E+02 -0.11931120777E+02  0.80286132183E+03  0.82453699648E+03  0.17476546887E+03 0.  0.
        -24    2    5    5    0    0 -0.29294188927E+02  0.52466223193E+02  0.59485338342E+03  0.60336959944E+03  0.81200195028E+02 0.  0.
          5    1    3    3  501    0 -0.41286702663E+02  0.64521918579E+00 -0.17185568368E+01  0.41593888520E+02  0.47000000000E+01 0. -1.
        -11    1    4    4    0    0  0.55408781848E+02  0.37678940258E+02  0.23562325078E+02  0.71028295826E+02  0.00000000000E+00 0.  1.
         12    1    4    4    0    0  0.53624771092E+02 -0.26393038667E+02  0.74851082480E+02  0.95785662357E+02  0.00000000000E+00 0. -1.
         -5    1    5    5    0  502 -0.38452661350E+02 -0.64397343969E+02  0.20800793840E+03  0.22116739704E+03  0.47000000000E+01 0.  1.
         11    1    6    6    0    0  0.20956565264E+02  0.13485669585E+02  0.63359212196E+02  0.68083997252E+02  0.00000000000E+00 0. -1.
        -12    1    6    6    0    0 -0.50250754191E+02  0.38980553608E+02  0.53149417123E+03  0.53528560218E+03  0.00000000000E+00 0.  1.
</event>
<event>
12    1  0.8271773E-002  0.1766159E+03  0.7818608E-02  0.1171123E+00
         21   -1    0    0  503  502  0.00000000000E+00  0.00000000000E+00  0.36476156244E+03  0.36476156244E+03  0.00000000000E+00 0. -1.
         21   -1    0    0  501  503 -0.00000000000E+00 -0.00000000000E+00 -0.88019896541E+02  0.88019896541E+02  0.00000000000E+00 0. -1.
          6    2    1    2  501    0 -0.16201309967E+02 -0.35024673029E+02  0.17660695817E+03  0.24975407435E+03  0.17233069899E+03 0.  0.
         24    2    3    3    0    0  0.57468164282E+02 -0.11381467374E+02  0.82648212157E+02  0.12794878480E+03  0.78153930504E+02 0.  0.
         -6    2    1    2    0  502  0.16201309967E+02  0.35024673029E+02  0.10013470773E+03  0.20302738464E+03  0.17234833638E+03 0.  0.
        -24    2    5    5    0    0  0.42267517758E+02  0.76098620499E+02  0.10080424369E+03  0.15414942818E+03  0.77608037995E+02 0.  0.
          5    1    3    3  501    0 -0.73669474249E+02 -0.23643205655E+02  0.93958746009E+02  0.12180528955E+03  0.47000000000E+01 0. -1.
        -13    1    4    4    0    0  0.45085758355E+01 -0.66755356431E+01 -0.14850935945E+02  0.16894979450E+02  0.00000000000E+00 0.  1.
         14    1    4    4    0    0  0.52959588447E+02 -0.47059317309E+01  0.97499148102E+02  0.11105380535E+03  0.00000000000E+00 0. -1.
         -5    1    5    5    0  502 -0.26066207792E+02 -0.41073947470E+02 -0.66953595833E+00  0.48877956461E+02  0.47000000000E+01 0.  1.
         13    1    6    6    0    0 -0.17482290574E+02  0.27771224494E+02  0.56790610819E+02  0.65589975383E+02  0.00000000000E+00 0. -1.
        -14    1    6    6    0    0  0.59749808332E+02  0.48327396005E+02  0.44013632873E+02  0.88559452793E+02  0.00000000000E+00 0.  1.
</event>
<event>
12    1  0.8271773E-002  0.2017684E+03  0.7818608E-02  0.1148294E+00
         21   -1    0    0  503  502  0.00000000000E+00  0.00000000000E+00  0.10473094486E+03  0.10473094486E+03  0.00000000000E+00 0. -1.
         21   -1    0    0  501  503 -0.00000000000E+00 -0.00000000000E+00 -0.41583252295E+03  0.41583252295E+03  0.00000000000E+00 0.  1.
          6    2    1    2  501    0  0.22864738447E+02  0.10083648118E+03 -0.22238531345E+03  0.30015238743E+03  0.17304749591E+03 0.  0.
         24    2    3    3    0    0  0.31755722570E+02  0.17408595142E+02 -0.19041717270E+03  0.21024513639E+03  0.81442204131E+02 0.  0.
         -6    2    1    2    0  502 -0.22864738447E+02 -0.10083648118E+03 -0.88716264633E+02  0.22041108038E+03  0.17326187273E+03 0.  0.
        -24    2    5    5    0    0 -0.30728632038E+02  0.32818428564E+00 -0.91202228383E+00  0.86143417344E+02  0.80470491705E+02 0.  0.
          5    1    3    3  501    0 -0.88909841232E+01  0.83427886040E+02 -0.31968140751E+02  0.89907251047E+02  0.47000000000E+01 0. -1.
        -11    1    4    4    0    0  0.31479980764E+02  0.44983744740E+02 -0.84299255827E+02  0.10060263919E+03  0.00000000000E+00 0.  1.
         12    1    4    4    0    0  0.27574180553E+00 -0.27575149598E+02 -0.10611791687E+03  0.10964249719E+03  0.00000000000E+00 0. -1.
         -5    1    5    5    0  502  0.78638935910E+01 -0.10116466547E+03 -0.87804242349E+02  0.13426766303E+03  0.47000000000E+01 0.  1.
         13    1    6    6    0    0 -0.11360771629E+02  0.36533370659E+02 -0.17229761956E+02  0.41959730704E+02  0.00000000000E+00 0. -1.
        -14    1    6    6    0    0 -0.19367860408E+02 -0.36205186373E+02  0.16317739672E+02  0.44183686640E+02  0.00000000000E+00 0.  1.
</event>
<event>
12    1  0.8271773E-002  0.1855974E+03  0.7818608E-02  0.1162762E+00
         21   -1    0    0  501  502  0.00000000000E+00  0.00000000000E+00  0.64945197261E+03  0.64945197261E+03  0.00000000000E+00 0.  1.
         21   -1    0    0  502  503 -0.00000000000E+00 -0.00000000000E+00 -0.98666034766E+02  0.98666034766E+02  0.00000000000E+00 0.  1.
         -6    2    1    2    0  503  0.13134962464E+02  0.64956093442E+02  0.20566539571E+02  0.18673342203E+03  0.17336253067E+03 0.  0.
        -24    2    3    3    0    0  0.32996721143E+02  0.42740179775E+02 -0.51499668269E+02  0.10860746866E+03  0.78916790632E+02 0.  0.
          6    2    1    2  501    0 -0.13134962464E+02 -0.64956093442E+02  0.53021939827E+03  0.56138458534E+03  0.17212850154E+03 0.  0.
         24    2    5    5    0    0 -0.31486737757E+02 -0.95972353942E+02  0.31169815259E+03  0.33986162742E+03  0.90266716399E+02 0.  0.
          5    1    5    5  501    0  0.18351775293E+02  0.31016260500E+02  0.21852124568E+03  0.22152295792E+03  0.47000000000E+01 0. -1.
        -13    1    6    6    0    0 -0.33194251101E+02 -0.43022774912E+02  0.26078282550E+03  0.26638412029E+03  0.00000000000E+00 0.  1.
         14    1    6    6    0    0  0.17075133448E+01 -0.52949579030E+02  0.50915327086E+02  0.73477507126E+02  0.00000000000E+00 0. -1.
         -5    1    3    3    0  503 -0.19861758679E+02  0.22215913667E+02  0.72066207839E+02  0.78125953372E+02  0.47000000000E+01 0.  1.
         13    1    4    4    0    0  0.12899315867E+02 -0.23116155307E+02 -0.18190067650E+02  0.32118959310E+02  0.00000000000E+00 0. -1.
        -14    1    4    4    0    0  0.20097405276E+02  0.65856335082E+02 -0.33309600619E+02  0.76488509350E+02  0.00000000000E+00 0.  1.
</event>
<event>
12    1  0.8271773E-002  0.1711401E+03  0.7818608E-02  0.1177496E+00
         21   -1    0    0  503  502  0.00000000000E+00  0.00000000000E+00  0.67501048129E+02  0.67501048129E+02  0.00000000000E+00 0.  1.
         21   -1    0    0  501  503 -0.00000000000E+00 -0.00000000000E+00 -0.46471846808E+03  0.46471846808E+03  0.00000000000E+00 0.  1.
          6    2    1    2  501    0  0.12673397666E+02  0.12871048805E+02 -0.27384430350E+03  0.32124592466E+03  0.16697892876E+03 0.  0.
         24    2    3    3    0    0  0.43909770130E+02 -0.42402745939E+01 -0.71656616734E+02  0.11589145300E+03  0.79687579430E+02 0.  0.
         -6    2    1    2    0  502 -0.12673397666E+02 -0.12871048805E+02 -0.12337311645E+03  0.21097359154E+03  0.17018416953E+03 0.  0.
        -24    2    5    5    0    0  0.29400739928E+02 -0.57662371004E+02 -0.10628884619E+03  0.14701690394E+03  0.78277063574E+02 0.  0.
          5    1    3    3  501    0 -0.31236372464E+02  0.17111323398E+02 -0.20218768676E+03  0.20535447166E+03  0.47000000000E+01 0. -1.
        -11    1    4    4    0    0  0.57300014075E+02 -0.19108772927E+02 -0.74249003376E+02  0.95714948247E+02  0.00000000000E+00 0.  1.
         12    1    4    4    0    0 -0.13390243945E+02  0.14868498333E+02  0.25923866415E+01  0.20176504754E+02  0.00000000000E+00 0. -1.
         -5    1    5    5    0  502 -0.42074137593E+02  0.44791322199E+02 -0.17084270261E+02  0.63956687601E+02  0.47000000000E+01 0.  1.
         11    1    6    6    0    0  0.13110311756E+01 -0.19319548086E+02 -0.96582937912E+02  0.98504962498E+02  0.00000000000E+00 0. -1.
        -12    1    6    6    0    0  0.28089708752E+02 -0.38342822918E+02 -0.97059082791E+01  0.48511941444E+02  0.00000000000E+00 0.  1.
</event>
<event>
12    1  0.8271773E-002  0.2039583E+03  0.7818608E-02  0.1146556E+00
         21   -1    0    0  503  502  0.00000000000E+00  0.00000000000E+00  0.11975278998E+04  0.11975278998E+04  0.00000000000E+00 0. -1.
         21   -1    0    0  501  503 -0.00000000000E+00 -0.00000000000E+00 -0.10867963462E+03  0.10867963462E+03  0.00000000000E+00 0. -1.
          6    2    1    2  501    0 -0.63489540836E+02  0.89927353404E+02  0.51366693609E+01  0.20347012319E+03  0.17104343007E+03 0.  0.
         24    2    3    3    0    0  0.32811624368E+02  0.46563177835E+02  0.31395108057E+00  0.97641418413E+02  0.79303315194E+02 0.  0.
         -6    2    1    2    0  502  0.63489540836E+02 -0.89927353404E+02  0.10837115958E+04  0.11027374113E+04  0.17170068304E+03 0.  0.
        -24    2    5    5    0    0  0.89106425325E+02 -0.90301505380E+02  0.10471393013E+04  0.10578376620E+04  0.80159128011E+02 0.  0.
          5    1    3    3  501    0 -0.96301165203E+02  0.43364175569E+02  0.48227182803E+01  0.10582870477E+03  0.47000000000E+01 0. -1.
        -11    1    4    4    0    0  0.47541014032E+02  0.70269162393E+01 -0.18435197622E+02  0.51472148570E+02  0.00000000000E+00 0.  1.
         12    1    4    4    0    0 -0.14729389664E+02  0.39536261595E+02  0.18749148702E+02  0.46169269844E+02  0.00000000000E+00 0. -1.
         -5    1    5    5    0  502 -0.25616884489E+02  0.37415197591E+00  0.36572294542E+02  0.44899749316E+02  0.47000000000E+01 0.  1.
         13    1    6    6    0    0  0.10132506550E+03 -0.60884018152E+02  0.82695919353E+03  0.83536527359E+03  0.00000000000E+00 0. -1.
        -14    1    6    6    0    0 -0.12218640174E+02 -0.29417487228E+02  0.22018010778E+03  0.22247238836E+03  0.00000000000E+00 0.  1.
</event>
<event>
12    1  0.8271773E-002  0.2073794E+03  0.7818608E-02  0.1143791E+00
         21   -1    0    0  501  502  0.00000000000E+00  0.00000000000E+00  0.39528929508E+02  0.39528929508E+02  0.00000000000E+00 0.  1.
         21   -1    0    0  502  503 -0.00000000000E+00 -0.00000000000E+00 -0.13789247734E+04  0.13789247734E+04  0.00000000000E+00 0. -1.
         -6    2    1    2    0  503  0.53440078775E+02 -0.10233517990E+03 -0.99824369616E+03  0.10195571070E+04  0.17227270958E+03 0.  0.
        -24    2    3    3    0    0  0.63224145527E+02 -0.95918021045E+00 -0.57549037847E+03  0.58468324151E+03  0.81652339771E+02 0.  0.
          6    2    1    2  501    0 -0.53440078775E+02  0.10233517990E+03 -0.34115214770E+03  0.39889659586E+03  0.17147995582E+03 0.  0.
         24    2    5    5    0    0 -0.32591810455E+02  0.13881467120E+03 -0.25671682294E+03  0.30446769328E+03  0.80407151535E+02 0.  0.
          5    1    5    5  501    0 -0.20848268320E+02 -0.36479491302E+02 -0.84435324753E+02  0.94428902587E+02  0.47000000000E+01 0. -1.
        -11    1    6    6    0    0 -0.40227218070E+02  0.55438041120E+02 -0.61498126189E+02  0.92052294928E+02  0.00000000000E+00 0.  1.
         12    1    6    6    0    0  0.76354076149E+01  0.83376630078E+02 -0.19521869675E+03  0.21241539835E+03  0.00000000000E+00 0. -1.
         -5    1    3    3    0  503 -0.97840667514E+01 -0.10137599969E+03 -0.42275331769E+03  0.43487386550E+03  0.47000000000E+01 0.  1.
         11    1    4    4    0    0  0.26729981861E+02 -0.31259355881E+02 -0.42277787696E+03  0.42477378981E+03  0.00000000000E+00 0. -1.
        -12    1    4    4    0    0  0.36494163665E+02  0.30300175671E+02 -0.15271250151E+03  0.15990945170E+03  0.00000000000E+00 0.  1.
</event>
<event>
12    1  0.8271773E-002  0.2448912E+03  0.7818608E-02  0.1116780E+00
         21   -1    0    0  503  502  0.00000000000E+00  0.00000000000E+00  0.68845074324E+03  0.68845074324E+03  0.00000000000E+00 0.  1.
         21   -1    0    0  501  503 -0.00000000000E+00 -0.00000000000E+00 -0.98308103207E+02  0.98308103207E+02  0.00000000000E+00 0.  1.
          6    2    1    2  501    0  0.10464105126E+03  0.13719211802E+03  0.15903524863E+03  0.29095115911E+03  0.17201435935E+03 0.  0.
         24    2    3    3    0    0  0.59363158940E+02  0.83710527388E+02  0.17569243069E+03  0.21877138504E+03  0.80384399464E+02 0.  0.
         -6    2    1    2    0  502 -0.10464105126E+03 -0.13719211802E+03  0.43110739141E+03  0.49580768734E+03  0.17378220001E+03 0.  0.
        -24    2    5    5    0    0 -0.37126851590E+01 -0.10775351040E+03  0.20709674129E+03  0.24830813568E+03  0.84517849949E+02 0.  0.
          5    1    3    3  501    0  0.45277892325E+02  0.53481590633E+02 -0.16657182061E+02  0.72179774066E+02  0.47000000000E+01 0. -1.
        -11    1    4    4    0    0  0.61461649948E+02  0.22673720926E+02  0.11686556278E+03  0.13397459386E+03  0.00000000000E+00 0.  1.
         12    1    4    4    0    0 -0.20984910075E+01  0.61036806462E+02  0.58826867906E+02  0.84796791185E+02  0.00000000000E+00 0. -1.
         -5    1    5    5    0  502 -0.10092836611E+03 -0.29438607624E+02  0.22401065012E+03  0.24749955165E+03  0.47000000000E+01 0.  1.
         11    1    6    6    0    0  0.27692007412E+02 -0.32317977973E+02  0.26628850402E+02  0.50203532231E+02  0.00000000000E+00 0. -1.
        -12    1    6    6    0    0 -0.31404692571E+02 -0.75435532425E+02  0.18046789089E+03  0.19810460345E+03  0.00000000000E+00 0.  1.
</event>
<event>
12    1  0.8271773E-002  0.2393954E+03  0.7818608E-02  0.1120240E+00
         21   -1    0    0  503  502  0.00000000000E+00  0.00000000000E+00  0.28351674354E+02  0.28351674354E+02  0.00000000000E+00 0. -1.
         21   -1    0    0  501  503 -0.00000000000E+00 -0.00000000000E+00 -0.22266257874E+04  0.22266257874E+04  0.00000000000E+00 0. -1.
          6    2    1    2  501    0  0.16274905853E+03 -0.29320926272E+02 -0.75445318675E+03  0.79144440359E+03  0.17273581043E+03 0.  0.
         24    2    3    3    0    0  0.33540731468E+02  0.33969330186E+02 -0.34767154521E+03  0.35994255859E+03  0.80026533563E+02 0.  0.
         -6    2    1    2    0  502 -0.16274905853E+03  0.29320926272E+02 -0.14438209263E+04  0.14635330581E+04  0.17309873585E+03 0.  0.
        -24    2    5    5    0    0 -0.12437373183E+03  0.41142116280E+02 -0.67250439962E+03  0.69115770864E+03  0.90968740773E+02 0.  0.
          5    1    3    3  501    0  0.12920832707E+03 -0.63290256458E+02 -0.40678164154E+03  0.43150184500E+03  0.47000000000E+01 0. -1.
        -11    1    4    4    0    0 -0.26717059009E+01  0.10069268336E+01  0.39798673931E+01  0.48980872324E+01  0.00000000000E+00 0.  1.
         12    1    4    4    0    0  0.36212437369E+02  0.32962403352E+02 -0.35165141260E+03  0.35504447136E+03  0.00000000000E+00 0. -1.
         -5    1    5    5    0  502 -0.38375326705E+02 -0.11821190008E+02 -0.77131652663E+03  0.77237534948E+03  0.47000000000E+01 0.  1.
         11    1    6    6    0    0 -0.72189657152E+02 -0.34620183496E+01 -0.50478699199E+03  0.50993454429E+03  0.00000000000E+00 0. -1.
        -12    1    6    6    0    0 -0.52184074678E+02  0.44604134630E+02 -0.16771740763E+03  0.18122316435E+03  0.00000000000E+00 0.  1.
</event>
<event>
12    1  0.8271773E-002  0.1907484E+03  0.7818608E-02  0.1158854E+00
         21   -1    0    0  503  502  0.00000000000E+00  0.00000000000E+00  0.37415112454E+03  0.37415112454E+03  0.00000000000E+00 0. -1.
         21   -1    0    0  501  503 -0.00000000000E+00 -0.00000000000E+00 -0.99081388431E+02  0.99081388431E+02  0.00000000000E+00 0. -1.
          6    2    1    2  501    0 -0.23262490108E+01  0.70381635073E+02  0.18793945261E+03  0.26778013341E+03  0.17727373187E+03 0.  0.
         24    2    3    3    0    0 -0.17198175979E+02  0.54486129379E+02  0.21002072641E+03  0.23641910718E+03  0.92308034138E+02 0.  0.
         -6    2    1    2    0  502  0.23262490108E+01 -0.70381635073E+02  0.87130283492E+02  0.20545237956E+03  0.17222081168E+03 0.  0.
        -24    2    5    5    0    0 -0.50316972267E+02 -0.83279616574E+02  0.38152635538E+02  0.13225014822E+03  0.81038175400E+02 0.  0.
          5    1    3    3  501    0  0.14871926968E+02  0.15895505694E+02 -0.22081273802E+02  0.31361026223E+02  0.47000000000E+01 0. -1.
        -11    1    4    4    0    0  0.34404513276E+02  0.37731948156E+01  0.87991912909E+02  0.94554134073E+02  0.00000000000E+00 0.  1.
         12    1    4    4    0    0 -0.51602689255E+02  0.50712934564E+02  0.12202881351E+03  0.14186497311E+03  0.00000000000E+00 0. -1.
         -5    1    5    5    0  502  0.52643221278E+02  0.12897981501E+02  0.48977647955E+02  0.73202231335E+02  0.47000000000E+01 0.  1.
         11    1    6    6    0    0 -0.14222693321E+02 -0.86615874057E+02  0.38864497800E+02  0.95995019836E+02  0.00000000000E+00 0. -1.
        -12    1    6    6    0    0 -0.36094278946E+02  0.33362574829E+01 -0.71186226256E+00  0.36255128389E+02  0.00000000000E+00 0.  1.
</event>
<event>
12    1  0.8271773E-002  0.2384308E+03  0.7818608E-02  0.1122073E+00
         21   -1    0    0  503  502  0.00000000000E+00  0.00000000000E+00  0.28556452277E+03  0.28556452277E+03  0.00000000000E+00 0.  1.
         21   -1    0    0  501  503 -0.00000000000E+00 -0.00000000000E+00 -0.22005046480E+03  0.22005046480E+03  0.00000000000E+00 0.  1.
          6    2    1    2  501    0 -0.98098931081E+02  0.12209735839E+03 -0.55256336082E+02  0.24474992807E+03  0.17977235440E+03 0.  0.
         24    2    3    3    0    0 -0.10103870268E+03  0.14762861179E+03 -0.15759447687E+02  0.19739402716E+03  0.81932992796E+02 0.  0.
         -6    2    1    2    0  502  0.98098931081E+02 -0.12209735839E+03  0.12077039405E+03  0.26086505950E+03  0.17009975303E+03 0.  0.
        -24    2    5    5    0    0  0.70623987991E+02 -0.18435473001E+01  0.50798563759E+02  0.11897073751E+03  0.81131966303E+02 0.  0.
          5    1    3    3  501    0  0.29397716001E+01 -0.25531253405E+02 -0.39496888395E+02  0.47355900904E+02  0.47000000000E+01 0. -1.
        -13    1    4    4    0    0 -0.11232093009E+03  0.12573840727E+03 -0.26239625137E+02  0.17063017414E+03  0.00000000000E+00 0.  1.
         14    1    4    4    0    0  0.11282227408E+02  0.21890204520E+02  0.10480177450E+02  0.26763853022E+02  0.00000000000E+00 0. -1.
         -5    1    5    5    0  502  0.27474943091E+02 -0.12025381109E+03  0.69971830293E+02  0.14189432199E+03  0.47000000000E+01 0.  1.
         13    1    6    6    0    0 -0.10464367542E+02  0.20591926870E+02  0.71025855562E+01  0.24165619418E+02  0.00000000000E+00 0. -1.
        -14    1    6    6    0    0  0.81088355533E+02 -0.22435474170E+02  0.43695978203E+02  0.94805118087E+02  0.00000000000E+00 0.  1.
</event>
<event>
12    1  0.8271773E-002  0.2025889E+03  0.7818608E-02  0.1147804E+00
         21   -1    0    0  503  502  0.00000000000E+00  0.00000000000E+00  0.25955621198E+03  0.25955621198E+03  0.00000000000E+00 0. -1.
         21   -1    0    0  501  503 -0.00000000000E+00 -0.00000000000E+00 -0.18420081811E+03  0.18420081811E+03  0.00000000000E+00 0. -1.
          6    2    1    2  501    0  0.10259600380E+03  0.28562145584E+02 -0.47265942926E+02  0.20694851641E+03  0.17103181847E+03 0.  0.
         24    2    3    3    0    0  0.68312735580E+02 -0.49877810216E+02 -0.37906788663E+02  0.12070552879E+03  0.77320594014E+02 0.  0.
         -6    2    1    2    0  502 -0.10259600380E+03 -0.28562145584E+02  0.12262133680E+03  0.23680851368E+03  0.17233845699E+03 0.  0.
        -24    2    5    5    0    0  0.83207690922E+01 -0.14143662306E+02  0.17873424981E+02  0.83496289121E+02  0.79893007171E+02 0.  0.
          5    1    3    3  501    0  0.34283268223E+02  0.78439955800E+02 -0.93591542628E+01  0.86242987625E+02  0.47000000000E+01 0. -1.
        -11    1    4    4    0    0  0.49834939626E+02  0.81534491525E+01 -0.31779808856E+01  0.50597425854E+02  0.00000000000E+00 0.  1.
         12    1    4    4    0    0  0.18477795954E+02 -0.58031259368E+02 -0.34728807778E+02  0.70108102933E+02  0.00000000000E+00 0. -1.
         -5    1    5    5    0  502 -0.11091677289E+03 -0.14418483277E+02  0.10474791182E+03  0.15331222456E+03  0.47000000000E+01 0.  1.
         13    1    6    6    0    0  0.31801148367E+02 -0.29459915511E+02  0.30240618509E+02  0.52855412847E+02  0.00000000000E+00 0. -1.
        -14    1    6    6    0    0 -0.23480379275E+02  0.15316253204E+02 -0.12367193529E+02  0.30640876275E+02  0.00000000000E+00 0.  1.
</event>
<event>
12    1  0.8271773E-002  0.2079565E+03  0.7818608E-02  0.1143680E+00
         21   -1    0    0  503  502  0.00000000000E+00  0.00000000000E+00  0.27835382732E+03  0.27835382732E+03  0.00000000000E+00 0.  1.
         21   -1    0    0  501  503 -0.00000000000E+00 -0.00000000000E+00 -0.21840889774E+03  0.21840889774E+03  0.00000000000E+00 0. -1.
          6    2    1    2  501    0  0.63430480440E+02  0.92338676805E+02 -0.10548123849E+03  0.23103408822E+03  0.17233862354E+03 0.  0.
         24    2    3    3    0    0 -0.10980498480E+02 -0.12642708978E+02 -0.20584804772E+02  0.76801862009E+02  0.72072063821E+02 0.  0.
         -6    2    1    2    0  502 -0.63430480440E+02 -0.92338676805E+02  0.16542616807E+03  0.26572863683E+03  0.17520283750E+03 0.  0.
        -24    2    5    5    0    0 -0.85746873449E+02 -0.10108479005E+03  0.17889938343E+03  0.23783359379E+03  0.83601243169E+02 0.  0.
          5    1    3    3  501    0  0.74410978920E+02  0.10498138578E+03 -0.84896433720E+02  0.15423222621E+03  0.47000000000E+01 0. -1.
        -11    1    4    4    0    0  0.19989799499E+02 -0.17782809092E+02 -0.33484833362E+02  0.42860873165E+02  0.00000000000E+00 0.  1.
         12    1    4    4    0    0 -0.30970297979E+02  0.51401001133E+01  0.12900028590E+02  0.33940988844E+02  0.00000000000E+00 0. -1.
         -5    1    5    5    0  502  0.22316393009E+02  0.87461132484E+01 -0.13473215360E+02  0.27895043037E+02  0.47000000000E+01 0.  1.
         13    1    6    6    0    0 -0.76852088190E+02 -0.47239952939E+02  0.63922422707E+02  0.11056189550E+03  0.00000000000E+00 0. -1.
        -14    1    6    6    0    0 -0.88947852589E+01 -0.53844837114E+02  0.11497696072E+03  0.12727169829E+03  0.00000000000E+00 0.  1.
</event>
<event>
12    1  0.8271773E-002  0.2596350E+03  0.7818608E-02  0.1107520E+00
         21   -1    0    0  501  502  0.00000000000E+00  0.00000000000E+00  0.17373779273E+03  0.17373779273E+03  0.00000000000E+00 0.  1.
         21   -1    0    0  502  503 -0.00000000000E+00 -0.00000000000E+00 -0.93429936519E+03  0.93429936519E+03  0.00000000000E+00 0.  1.
         -6    2    1    2    0  503 -0.10635487669E+03  0.16070214719E+03 -0.80420729250E+03  0.84475922491E+03  0.17243038842E+03 0.  0.
        -24    2    3    3    0    0 -0.11227891479E+03  0.48018431699E+02 -0.47139434373E+03  0.49330615146E+03  0.78905052332E+02 0.  0.
          6    2    1    2  501    0  0.10635487669E+03 -0.16070214719E+03  0.43645720045E+02  0.26327793301E+03  0.17399362409E+03 0.  0.
         24    2    5    5    0    0  0.12764683286E+03 -0.74641543382E+02  0.13000985536E+02  0.16935794218E+03  0.81535348254E+02 0.  0.
          5    1    5    5  501    0 -0.21291956169E+02 -0.86060603812E+02  0.30644734510E+02  0.93919990838E+02  0.47000000000E+01 0. -1.
        -13    1    6    6    0    0  0.10214346507E+03 -0.77635582073E+02  0.37705990607E+02  0.13372476505E+03  0.00000000000E+00 0.  1.
         14    1    6    6    0    0  0.25503367787E+02  0.29940386906E+01 -0.24705005071E+02  0.35633177121E+02  0.00000000000E+00 0. -1.
         -5    1    3    3    0  503  0.59240380932E+01  0.11268371550E+03 -0.33281294877E+03  0.35145307345E+03  0.47000000000E+01 0.  1.
         11    1    4    4    0    0  0.85114839358E+01 -0.62992001780E+01 -0.17219970421E+02  0.20215159237E+02  0.00000000000E+00 0. -1.
        -12    1    4    4    0    0 -0.12079039872E+03  0.54317631877E+02 -0.45417437331E+03  0.47309099222E+03  0.00000000000E+00 0.  1.
</event>
<event>
12    1  0.8271773E-002  0.2573283E+03  0.7818608E-02  0.1108769E+00
         21   -1    0    0  501  502  0.00000000000E+00  0.00000000000E+00  0.30312568953E+03  0.30312568953E+03  0.00000000000E+00 0. -1.
         21   -1    0    0  502  503 -0.00000000000E+00 -0.00000000000E+00 -0.35836248334E+03  0.35836248334E+03  0.00000000000E+00 0. -1.
         -6    2    1    2    0  503  0.50354686815E+02  0.18436711899E+03 -0.23432209719E+03  0.34802973843E+03  0.17231083701E+03 0.  0.
        -24    2    3    3    0    0  0.20708698248E+02  0.10289611564E+03 -0.22513297972E+03  0.26072029504E+03  0.79207025535E+02 0.  0.
          6    2    1    2  501    0 -0.50354686815E+02 -0.18436711899E+03  0.17908530338E+03  0.31345843443E+03  0.17221444533E+03 0.  0.
         24    2    5    5    0    0  0.23464791365E+02 -0.32643168219E+02  0.75349673174E+02  0.11533563521E+03  0.77514918803E+02 0.  0.
          5    1    5    5  501    0 -0.73819478180E+02 -0.15172395077E+03  0.10373563021E+03  0.19812279922E+03  0.47000000000E+01 0. -1.
        -13    1    6    6    0    0  0.16502897818E+02  0.78033582170E+01 -0.98670771640E+01  0.20750837275E+02  0.00000000000E+00 0.  1.
         14    1    6    6    0    0  0.69618935465E+01 -0.40446526436E+02  0.85216750338E+02  0.94584797936E+02  0.00000000000E+00 0. -1.
         -5    1    3    3    0  503  0.29645988567E+02  0.81471003354E+02 -0.91891174783E+01  0.87309443393E+02  0.47000000000E+01 0.  1.
         11    1    4    4    0    0 -0.10347629553E+02  0.85188006337E+02 -0.19813789810E+03  0.21592289486E+03  0.00000000000E+00 0. -1.
        -12    1    4    4    0    0  0.31056327801E+02  0.17708109298E+02 -0.26995081612E+02  0.44797400177E+02  0.00000000000E+00 0.  1.
</event>
<event>
12    1  0.8271773E-002  0.2548029E+03  0.7818608E-02  0.1110411E+00
         21   -1    0    0  501  502  0.00000000000E+00  0.00000000000E+00  0.70618283855E+03  0.70618283855E+03  0.00000000000E+00 0.  1.
         21   -1    0    0  502  503 -0.00000000000E+00 -0.00000000000E+00 -0.16585893404E+03  0.16585893404E+03  0.00000000000E+00 0. -1.
         -6    2    1    2    0  503 -0.16364542334E+03 -0.91623625438E+02 -0.21603108217E+02  0.25504379849E+03  0.17148157786E+03 0.  0.
        -24    2    3    3    0    0 -0.63273296861E+02 -0.69471101998E+02 -0.68501647157E+02  0.14196479503E+03  0.81435761531E+02 0.  0.
          6    2    1    2  501    0  0.16364542334E+03  0.91623625438E+02  0.56192701273E+03  0.61699797411E+03  0.17248135870E+03 0.  0.
         24    2    5    5    0    0  0.15159208535E+03  0.84904778136E+02  0.30520301726E+03  0.35986041225E+03  0.78496196550E+02 0.  0.
          5    1    5    5  501    0  0.12053337989E+02  0.67188473025E+01  0.25672399547E+03  0.25713756185E+03  0.47000000000E+01 0. -1.
        -11    1    6    6    0    0  0.81359832831E+02  0.62433069693E+02  0.24165713966E+03  0.26251758749E+03  0.00000000000E+00 0.  1.
         12    1    6    6    0    0  0.70232252520E+02  0.22471708443E+02  0.63545877595E+02  0.97342824767E+02  0.00000000000E+00 0. -1.
         -5    1    3    3    0  503 -0.10037212648E+03 -0.22152523440E+02  0.46898538941E+02  0.11307900346E+03  0.47000000000E+01 0.  1.
         13    1    4    4    0    0 -0.45115355063E+01  0.83844974443E+01 -0.38873209811E+02  0.40022246201E+02  0.00000000000E+00 0. -1.
        -14    1    4    4    0    0 -0.58761761355E+02 -0.77855599442E+02 -0.29628437347E+02  0.10194254883E+03  0.00000000000E+00 0.  1.
</event>
<event>
12    1  0.8271773E-002  0.1783018E+03  0.7818608E-02  0.1169537E+00
         21   -1    0    0  501  502  0.00000000000E+00  0.00000000000E+00  0.80517431064E+02  0.80517431064E+02  0.00000000000E+00 0. -1.
         21   -1    0    0  502  503 -0.00000000000E+00 -0.00000000000E+00 -0.40064027284E+03  0.40064027284E+03  0.00000000000E+00 0. -1.
         -6    2    1    2    0  503 -0.55077540486E+02  0.65621486391E+01 -0.12951479982E+03  0.22037605087E+03  0.16945478207E+03 0.  0.
        -24    2    3    3    0    0 -0.77155775790E+02  0.52193342037E+02 -0.11347468495E+03  0.16699974929E+03  0.79594305377E+02 0.  0.
          6    2    1    2  501    0  0.55077540486E+02 -0.65621486391E+01 -0.19060804196E+03  0.26078165304E+03  0.16911252951E+03 0.  0.
         24    2    5    5    0    0  0.89021702636E+02  0.27638613057E+02 -0.16669888218E+03  0.20678502197E+03  0.79263935811E+02 0.  0.
          5    1    5    5  501    0 -0.33944162150E+02 -0.34200761697E+02 -0.23909159781E+02  0.53996631063E+02  0.47000000000E+01 0. -1.
        -13    1    6    6    0    0 -0.14103062825E+02  0.11020481010E+02 -0.25036412992E+02  0.30776116686E+02  0.00000000000E+00 0.  1.
         14    1    6    6    0    0  0.10312476546E+03  0.16618132048E+02 -0.14166246919E+03  0.17600890529E+03  0.00000000000E+00 0. -1.
         -5    1    3    3    0  503  0.22078235305E+02 -0.45631193398E+02 -0.16040114864E+02  0.53376301576E+02  0.47000000000E+01 0.  1.
         11    1    4    4    0    0 -0.52572256336E+02 -0.10996790473E+02 -0.60900324978E+02  0.81201115260E+02  0.00000000000E+00 0. -1.
        -12    1    4    4    0    0 -0.24583519454E+02  0.63190132510E+02 -0.52574359975E+02  0.85798634035E+02  0.00000000000E+00 0.  1.
</event>
<event>
12    1  0.8271773E-002  0.1906198E+03  0.7818608E-02  0.1158109E+00
         21   -1    0    0  503  502  0.00000000000E+00  0.00000000000E+00  0.36832875305E+03  0.36832875305E+03  0.00000000000E+00 0. -1.
         21   -1    0    0  501  503 -0.00000000000E+00 -0.00000000000E+00 -0.12315839373E+03  0.12315839373E+03  0.00000000000E+00 0. -1.
          6    2    1    2  501    0 -0.74423818381E+02 -0.33144236717E+02  0.11680084191E+02  0.19006779294E+03  0.17132395155E+03 0.  0.
         24    2    3    3    0    0 -0.55537388204E+02 -0.40707411914E+02  0.70960436277E+02  0.12721758206E+03  0.80046453981E+02 0.  0.
         -6    2    1    2    0  502  0.74423818381E+02  0.33144236717E+02  0.23349027513E+03  0.30141935385E+03  0.17233244943E+03 0.  0.
        -24    2    5    5    0    0  0.11492757108E+03  0.28534658479E+02  0.20998974513E+03  0.25413122527E+03  0.80401575032E+02 0.  0.
          5    1    3    3  501    0 -0.18886430177E+02  0.75631751977E+01 -0.59280352086E+02  0.62850210877E+02  0.47000000000E+01 0. -1.
        -11    1    4    4    0    0 -0.42561816664E+02  0.16503765424E+02  0.21380682002E+02  0.50408492080E+02  0.00000000000E+00 0.  1.
         12    1    4    4    0    0 -0.12975571540E+02 -0.57211177339E+02  0.49579754275E+02  0.76809089978E+02  0.00000000000E+00 0. -1.
         -5    1    5    5    0  502 -0.40503752704E+02  0.46095782375E+01  0.23500529999E+02  0.47288128583E+02  0.47000000000E+01 0.  1.
         13    1    6    6    0    0  0.36083633549E+02  0.34479997565E+02  0.13966298171E+03  0.14831266737E+03  0.00000000000E+00 0. -1.
        -14    1    6    6    0    0  0.78843937536E+02 -0.59453390859E+01  0.70326763419E+02  0.10581855790E+03  0.00000000000E+00 0.  1.
</event>
<event>
12    1  0.8271773E-002  0.1884989E+03  0.7818608E-02  0.1159829E+00
         21   -1    0    0  501  502  0.00000000000E+00  0.00000000000E+00  0.13048028166E+03  0.13048028166E+03  0.00000000000E+00 0. -1.
         21   -1    0    0  502  503 -0.00000000000E+00 -0.00000000000E+00 -0.30953627402E+03  0.30953627402E+03  0.00000000000E+00 0.  1.
         -6    2    1    2    0  503 -0.15205840171E+02  0.76670161333E+02 -0.16586848686E+03  0.25108600251E+03  0.17152928178E+03 0.  0.
        -24    2    3    3    0    0 -0.17483363175E+02 -0.12653474382E+02 -0.26924106458E+02  0.85823998851E+02  0.78581631876E+02 0.  0.
          6    2    1    2  501    0  0.15205840171E+02 -0.76670161333E+02 -0.13187505494E+02  0.18893055316E+03  0.17149726646E+03 0.  0.
         24    2    5    5    0    0 -0.41825187249E+02 -0.75890235701E+02 -0.42646557254E+02  0.12456385290E+03  0.78668611529E+02 0.  0.
          5    1    5    5  501    0  0.57031027420E+02 -0.77992563203E+00  0.29459051760E+02  0.64366700267E+02  0.47000000000E+01 0. -1.
        -11    1    6    6    0    0 -0.55950059247E+02 -0.41536685524E+02 -0.51172096146E+02  0.86453969244E+02  0.00000000000E+00 0.  1.
         12    1    6    6    0    0  0.14124871998E+02 -0.34353550177E+02  0.85255388915E+01  0.38109883654E+02  0.00000000000E+00 0. -1.
         -5    1    3    3    0  503  0.22775230040E+01  0.89323635715E+02 -0.13894438040E+03  0.16526200366E+03  0.47000000000E+01 0.  1.
         11    1    4    4    0    0  0.12444424596E+02  0.21812196685E+02 -0.31116502236E+02  0.39985901755E+02  0.00000000000E+00 0. -1.
        -12    1    4    4    0    0 -0.29927787771E+02 -0.34465671067E+02  0.41923957782E+01  0.45838097096E+02  0.00000000000E+00 0.  1.
</event>
<event>
12    1  0.8271773E-002  0.2743051E+03  0.7818608E-02  0.1098904E+00
         21   -1    0    0  503  502  0.00000000000E+00  0.00000000000E+00  0.65993961168E+02  0.65993961168E+02  0.00000000000E+00 0.  1.
         21   -1    0    0  501  503 -0.00000000000E+00 -0.00000000000E+00 -0.12630663220E+04  0.12630663220E+04  0.00000000000E+00 0.  1.
          6    2    1    2  501    0  0.17666122775E+03  0.11913566243E+03 -0.38920184528E+03  0.47589087858E+03  0.17202196515E+03 0.  0.
         24    2    3    3    0    0  0.10781596231E+03  0.24482642950E+02 -0.29757291151E+03  0.32717364295E+03  0.79178743607E+02 0.  0.
         -6    2    1    2    0  502 -0.17666122775E+03 -0.11913566243E+03 -0.80787051556E+03  0.85316940459E+03  0.17274480476E+03 0.  0.
        -24    2    5    5    0    0 -0.14835582549E+03 -0.32816344233E+02 -0.40106371029E+03  0.43631680798E+03  0.80211556567E+02 0.  0.
          5    1    3    3  501    0  0.68845265444E+02  0.94653019481E+02 -0.91628933765E+02  0.14871723563E+03  0.47000000000E+01 0. -1.
        -11    1    4    4    0    0 -0.12929456580E+02  0.11749092781E+01 -0.30547341471E+02  0.33191735872E+02  0.00000000000E+00 0.  1.
         12    1    4    4    0    0  0.12074541889E+03  0.23307733672E+02 -0.26702557004E+03  0.29398190708E+03  0.00000000000E+00 0. -1.
         -5    1    5    5    0  502 -0.28305402259E+02 -0.86319318198E+02 -0.40680680527E+03  0.41685259661E+03  0.47000000000E+01 0.  1.
         11    1    6    6    0    0 -0.38454130613E+02  0.11424159533E+02 -0.19082204407E+03  0.19499303600E+03  0.00000000000E+00 0. -1.
        -12    1    6    6    0    0 -0.10990169488E+03 -0.44240503766E+02 -0.21024166622E+03  0.24132377198E+03  0.00000000000E+00 0.  1.
</event>
<event>
12    1  0.8271773E-002  0.2389046E+03  0.7818608E-02  0.1120879E+00
         21   -1    0    0  503  502  0.00000000000E+00  0.00000000000E+00  0.19137259383E+03  0.19137259383E+03  0.00000000000E+00 0. -1.
         21   -1    0    0  501  503 -0.00000000000E+00 -0.00000000000E+00 -0.32850396962E+03  0.32850396962E+03  0.00000000000E+00 0. -1.
          6    2    1    2  501    0  0.11341048517E+03  0.11719212087E+03 -0.15108314584E+03  0.28266857774E+03  0.17458372359E+03 0.  0.
         24    2    3    3    0    0  0.41885284949E+02 -0.79758640072E+01 -0.28944524515E+02  0.93663785406E+02  0.78212068731E+02 0.  0.
         -6    2    1    2    0  502 -0.11341048517E+03 -0.11719212087E+03  0.13951770057E+02  0.23720798572E+03  0.17168880354E+03 0.  0.
        -24    2    5    5    0    0 -0.13867774673E+03 -0.13113353178E+03  0.18420821290E+02  0.20762995563E+03  0.79645158186E+02 0.  0.
          5    1    3    3  501    0  0.71525200225E+02  0.12516798487E+03 -0.12213862133E+03  0.18900479233E+03  0.47000000000E+01 0. -1.
        -13    1    4    4    0    0  0.17502765125E+01 -0.36292895927E+02  0.60755447944E+00  0.36340155271E+02  0.00000000000E+00 0.  1.
         14    1    4    4    0    0  0.40135008436E+02  0.28317031920E+02 -0.29552078995E+02  0.57323630135E+02  0.00000000000E+00 0. -1.
         -5    1    5    5    0  502  0.25267261558E+02  0.13941410914E+02 -0.44690512330E+01  0.29578030087E+02  0.47000000000E+01 0.  1.
         13    1    6    6    0    0 -0.84681572793E+02 -0.63149655823E+02 -0.27858521270E+02  0.10924717392E+03  0.00000000000E+00 0. -1.
        -14    1    6    6    0    0 -0.53996173939E+02 -0.67983875957E+02  0.46279342560E+02  0.98382781715E+02  0.00000000000E+00 0.  1.
</event>
<event>
12    1  0.8271773E-002  0.1797537E+03  0.7818608E-02  0.1169882E+00
         21   -1    0    0  501  502  0.00000000000E+00  0.00000000000E+00  0.24181560684E+02  0.24181560684E+02  0.00000000000E+00 0. -1.
         21   -1    0    0  502  503 -0.00000000000E+00 -0.00000000000E+00 -0.13106476372E+04  0.13106476372E+04  0.00000000000E+00 0. -1.
         -6    2    1    2    0  503  0.21098573910E+02  0.17241501444E+02 -0.53064362315E+03  0.55792574851E+03  0.17016482264E+03 0.  0.
        -24    2    3    3    0    0  0.38715266512E+02  0.31474744990E+02 -0.52893205726E+03  0.53473194464E+03  0.60659706439E+02 0.  0.
          6    2    1    2  501    0 -0.21098573910E+02 -0.17241501444E+02 -0.75582245332E+03  0.77690344934E+03  0.17767658667E+03 0.  0.
         24    2    5    5    0    0  0.82066694341E+01 -0.34786060780E+02 -0.72626624197E+03  0.73149124305E+03  0.79620129326E+02 0.  0.
          5    1    5    5  501    0 -0.29305243344E+02  0.17544559337E+02 -0.29556211355E+02  0.45412206283E+02  0.47000000000E+01 0. -1.
        -11    1    6    6    0    0  0.37788172615E+02  0.26977896871E+01 -0.25274767398E+03  0.25557114619E+03  0.00000000000E+00 0.  1.
         12    1    6    6    0    0 -0.29581503181E+02 -0.37483850467E+02 -0.47351856799E+03  0.47592009687E+03  0.00000000000E+00 0. -1.
         -5    1    3    3    0  503 -0.17616692602E+02 -0.14233243547E+02 -0.17115658902E+01  0.23193803869E+02  0.47000000000E+01 0.  1.
         11    1    4    4    0    0 -0.84508653346E+00  0.11559805000E+02 -0.35695975713E+03  0.35714788460E+03  0.00000000000E+00 0. -1.
        -12    1    4    4    0    0  0.39560353046E+02  0.19914939991E+02 -0.17197230013E+03  0.17758406004E+03  0.00000000000E+00 0.  1.
</event>
<event>
12    1  0.8271773E-002  0.1795919E+03  0.7818608E-02  0.1168295E+00
         21   -1    0    0  503  502  0.00000000000E+00  0.00000000000E+00  0.29658302739E+03  0.29658302739E+03  0.00000000000E+00 0. -1.
         21   -1    0    0  501  503 -0.00000000000E+00 -0.00000000000E+00 -0.10992110738E+03  0.10992110738E+03  0.00000000000E+00 0. -1.
          6    2    1    2  501    0  0.35664651551E+02 -0.38789321238E+02  0.70402969832E+02  0.19289846579E+03  0.17168768485E+03 0.  0.
         24    2    3    3    0    0  0.27325830819E+02  0.40116849934E+02  0.11152983698E+02  0.93760326621E+02  0.79438952184E+02 0.  0.
         -6    2    1    2    0  502 -0.35664651551E+02  0.38789321238E+02  0.11625895018E+03  0.21360566898E+03  0.17127363928E+03 0.  0.
        -24    2    5    5    0    0  0.27605480812E+02  0.50041272100E+02  0.11091782527E+03  0.14895016912E+03  0.81346158080E+02 0.  0.
          5    1    3    3  501    0  0.83388207319E+01 -0.78906171172E+02  0.59249986134E+02  0.99138139165E+02  0.47000000000E+01 0. -1.
        -11    1    4    4    0    0  0.42936062216E+02  0.53622632738E+02 -0.29553157335E+01  0.68757734630E+02  0.00000000000E+00 0.  1.
         12    1    4    4    0    0 -0.15610231397E+02 -0.13505782804E+02  0.14108299432E+02  0.25002591991E+02  0.00000000000E+00 0. -1.
         -5    1    5    5    0  502 -0.63270132363E+02 -0.11251950862E+02  0.53411249179E+01  0.64655499865E+02  0.47000000000E+01 0.  1.
         11    1    6    6    0    0  0.22833168098E+02  0.49624155182E+02  0.12374079496E+03  0.13526157873E+03  0.00000000000E+00 0. -1.
        -12    1    6    6    0    0  0.47723127147E+01  0.41711691756E+00 -0.12822969692E+02  0.13688590391E+02  0.00000000000E+00 0.  1.
</event>
<event>
12    1  0.8271773E-002  0.1808172E+03  0.7818608E-02  0.1167680E+00
         21   -1    0    0  503  502  0.00000000000E+00  0.00000000000E+00  0.20784348729E+03  0.20784348729E+03  0.00000000000E+00 0. -1.
         21   -1    0    0  501  503 -0.00000000000E+00 -0.00000000000E+00 -0.31095148461E+03  0.31095148461E+03  0.00000000000E+00 0. -1.
          6    2    1    2  501    0 -0.26948237660E+02  0.21698912593E+02 -0.23549351105E+03  0.29690412539E+03  0.17747623957E+03 0.  0.
         24    2    3    3    0    0 -0.14048078755E+02  0.58052896110E+02 -0.57241631610E+02  0.11446550903E+03  0.79109172067E+02 0.  0.
         -6    2    1    2    0  502  0.26948237660E+02 -0.21698912593E+02  0.13238551373E+03  0.22189084651E+03  0.17467848522E+03 0.  0.
        -24    2    5    5    0    0  0.66259107315E+02 -0.62101217895E+02  0.10228260769E+03  0.15781303679E+03  0.78717165716E+02 0.  0.
          5    1    3    3  501    0 -0.12900158905E+02 -0.36353983517E+02 -0.17825187944E+03  0.18243861636E+03  0.47000000000E+01 0. -1.
        -13    1    4    4    0    0  0.11913845381E+02 -0.14049416641E+02  0.63512479877E+00  0.18431744443E+02  0.00000000000E+00 0.  1.
         14    1    4    4    0    0 -0.25961924135E+02  0.72102312751E+02 -0.57876756408E+02  0.96033764589E+02  0.00000000000E+00 0. -1.
         -5    1    5    5    0  502 -0.39310869656E+02  0.40402305301E+02  0.30102906033E+02  0.64077809719E+02  0.47000000000E+01 0.  1.
         11    1    6    6    0    0  0.46863521070E+02 -0.92581385901E+00  0.74191690711E+02  0.87757926759E+02  0.00000000000E+00 0. -1.
        -12    1    6    6    0    0  0.19395586245E+02 -0.61175404036E+02  0.28090916983E+02  0.70055110032E+02  0.00000000000E+00 0.  1.
</event>
<event>
12    1  0.8271773E-002  0.1842897E+03  0.7818608E-02  0.1164109E+00
         21   -1    0    0  503  502  0.00000000000E+00  0.00000000000E+00  0.35937288890E+03  0.35937288890E+03  0.00000000000E+00 0.  1.
         21   -1    0    0  501  503 -0.00000000000E+00 -0.00000000000E+00 -0.93890488040E+02  0.93890488040E+02  0.00000000000E+00 0.  1.
          6    2    1    2  501    0 -0.39061687549E+02 -0.57406144151E+02  0.12068147532E+03  0.21889190434E+03  0.16890342353E+03 0.  0.
         24    2    3    3    0    0 -0.58977296158E+01 -0.18723681162E+02  0.14190427450E+03  0.16349625240E+03  0.78796205350E+02 0.  0.
         -6    2    1    2    0  502  0.39061687549E+02  0.57406144151E+02  0.14480092554E+03  0.23437147260E+03  0.17070851856E+03 0.  0.
        -24    2    5    5    0    0  0.20889286906E-01 -0.20257609138E+02  0.29686532702E+02  0.90048030489E+02  0.82565043491E+02 0.  0.
          5    1    3    3  501    0 -0.33163957933E+02 -0.38682462989E+02 -0.21222799181E+02  0.55395651939E+02  0.47000000000E+01 0. -1.
        -13    1    4    4    0    0  0.15281763141E+02 -0.42452081431E+01 -0.31673007711E+01  0.16173616511E+02  0.00000000000E+00 0.  1.
         14    1    4    4    0    0 -0.21179492757E+02 -0.14478473019E+02  0.14507157527E+03  0.14732263589E+03  0.00000000000E+00 0. -1.
         -5    1    5    5    0  502  0.39040798262E+02  0.77663753289E+02  0.11511439284E+03  0.14432344211E+03  0.47000000000E+01 0.  1.
         11    1    6    6    0    0  0.37994655384E+02 -0.26387635759E+02  0.19895891548E+02  0.50356207752E+02  0.00000000000E+00 0. -1.
        -12    1    6    6    0    0 -0.37973766097E+02  0.61300266207E+01  0.97906411539E+01  0.39691822737E+02  0.00000000000E+00 0.  1.
</event>
<event>
12    1  0.8271773E-002  0.4107363E+03  0.7818608E-02  0.1040214E+00
         21   -1    0    0  501  502  0.00000000000E+00  0.00000000000E+00  0.30028070420E+04  0.30028070420E+04  0.00000000000E+00 0.  1.
         21   -1    0    0  502  503 -0.00000000000E+00 -0.00000000000E+00 -0.58914220901E+02  0.58914220901E+02  0.00000000000E+00 0.  1.
         -6    2    1    2    0  503  0.35852463021E+02 -0.37097760064E+03  0.11354286084E+04  0.12074363169E+04  0.17261099398E+03 0.  0.
        -24    2    3    3    0    0  0.49891232719E+02 -0.38114334804E+03  0.10768813359E+04  0.11461966027E+04  0.79585510995E+02 0.  0.
          6    2    1    2  501    0 -0.35852463021E+02  0.37097760064E+03  0.18084642126E+04  0.18542849460E+04  0.17005902855E+03 0.  0.
         24    2    5    5    0    0  0.14052448922E+02  0.14810932029E+03  0.99945396709E+03  0.10136420741E+04  0.80175931465E+02 0.  0.
          5    1    5    5  501    0 -0.49904911943E+02  0.22286828034E+03  0.80901024553E+03  0.84064287185E+03  0.47000000000E+01 0. -1.
        -11    1    6    6    0    0 -0.31931593368E+02  0.49573630979E+02  0.29377624258E+03  0.29963586609E+03  0.00000000000E+00 0.  1.
         12    1    6    6    0    0  0.45984042290E+02  0.98535689312E+02  0.70567772451E+03  0.71400620802E+03  0.00000000000E+00 0. -1.
         -5    1    3    3    0  503 -0.14038769699E+02  0.10165747405E+02  0.58547272519E+02  0.61239714193E+02  0.47000000000E+01 0.  1.
         11    1    4    4    0    0 -0.11737266560E+02 -0.25491669152E+02  0.45292273010E+02  0.53282066560E+02  0.00000000000E+00 0. -1.
        -12    1    4    4    0    0  0.61628499279E+02 -0.35565167889E+03  0.10315890629E+04  0.10929145362E+04  0.00000000000E+00 0.  1.
</event>
<event>
12    1  0.8271773E-002  0.1854408E+03  0.7818608E-02  0.1162766E+00
         21   -1    0    0  503  502  0.00000000000E+00  0.00000000000E+00  0.49146833481E+03  0.49146833481E+03  0.00000000000E+00 0.  1.
         21   -1    0    0  501  503 -0.00000000000E+00 -0.00000000000E+00 -0.70542857203E+02  0.70542857203E+02  0.00000000000E+00 0.  1.
          6    2    1    2  501    0  0.24510230239E+02  0.63557736585E+02  0.24029503869E+03  0.30352925074E+03  0.17247597852E+03 0.  0.
         24    2    3    3    0    0  0.38672820889E+02  0.29501713148E+02  0.24822829141E+03  0.26551059472E+03  0.80701010517E+02 0.  0.
         -6    2    1    2    0  502 -0.24510230239E+02 -0.63557736585E+02  0.18063043892E+03  0.25848194128E+03  0.17188723407E+03 0.  0.
        -24    2    5    5    0    0 -0.83083821999E+02 -0.42619696618E+02  0.11391176905E+03  0.16714335097E+03  0.79004105142E+02 0.  0.
          5    1    3    3  501    0 -0.14162590650E+02  0.34056023437E+02 -0.79332527246E+01  0.38018656013E+02  0.47000000000E+01 0. -1.
        -11    1    4    4    0    0  0.37953925326E+02  0.55198695986E+02  0.19903195332E+03  0.21000265458E+03  0.00000000000E+00 0.  1.
         12    1    4    4    0    0  0.71889556289E+00 -0.25696982837E+02  0.49196338093E+02  0.55507940148E+02  0.00000000000E+00 0. -1.
         -5    1    5    5    0  502  0.58573591760E+02 -0.20938039967E+02  0.66718669874E+02  0.91338590306E+02  0.47000000000E+01 0.  1.
         11    1    6    6    0    0 -0.24553470122E+02 -0.31664154388E+02  0.97445392501E+02  0.10536173920E+03  0.00000000000E+00 0. -1.
        -12    1    6    6    0    0 -0.58530351877E+02 -0.10955542230E+02  0.16466376547E+02  0.61781611771E+02  0.00000000000E+00 0.  1.
</event>
<event>
12    1  0.8271773E-002  0.2584767E+03  0.7818608E-02  0.1108235E+00
         21   -1    0    0  503  502  0.00000000000E+00  0.00000000000E+00  0.10761685736E+04  0.10761685736E+04  0.00000000000E+00 0. -1.
         21   -1    0    0  501  503 -0.00000000000E+00 -0.00000000000E+00 -0.97041552964E+02  0.97041552964E+02  0.00000000000E+00 0.  1.
          6    2    1    2  501    0  0.18951642222E+03  0.25596803186E+02  0.13540915734E+03  0.29078730410E+03  0.17219159594E+03 0.  0.
         24    2    3    3    0    0  0.64271554488E+02 -0.39189258017E+02  0.29282505003E+02  0.11424136970E+03  0.80789818613E+02 0.  0.
         -6    2    1    2    0  502 -0.18951642222E+03 -0.25596803186E+02  0.84371786328E+03  0.88242282244E+03  0.17389230611E+03 0.  0.
        -24    2    5    5    0    0 -0.12414938613E+03 -0.84067736210E+02  0.52371252580E+03  0.55058369661E+03  0.79919603018E+02 0.  0.
          5    1    3    3  501    0  0.12524486773E+03  0.64786061203E+02  0.10612665233E+03  0.17654593440E+03  0.47000000000E+01 0. -1.
        -13    1    4    4    0    0  0.76115789280E+02 -0.12194964166E+02  0.72255087440E+01  0.77424405101E+02  0.00000000000E+00 0.  1.
         14    1    4    4    0    0 -0.11844234791E+02 -0.26994293851E+02  0.22056996259E+02  0.36816964599E+02  0.00000000000E+00 0. -1.
         -5    1    5    5    0  502 -0.65367036091E+02  0.58470933024E+02  0.32000533748E+03  0.33183912583E+03  0.47000000000E+01 0.  1.
         11    1    6    6    0    0 -0.16767821807E+02 -0.89550289800E+00  0.18340171321E+03  0.18416880893E+03  0.00000000000E+00 0. -1.
        -12    1    6    6    0    0 -0.10738156432E+03 -0.83172233312E+02  0.34031081259E+03  0.36641488768E+03  0.00000000000E+00 0.  1.
</event>
<event>
12    1  0.8271773E-002  0.2036604E+03  0.7818608E-02  0.1146708E+00
         21   -1    0    0  501  502  0.00000000000E+00  0.00000000000E+00  0.29700926263E+03  0.29700926263E+03  0.00000000000E+00 0.  1.
         21   -1    0    0  502  503 -0.00000000000E+00 -0.00000000000E+00 -0.18309937683E+03  0.18309937683E+03  0.00000000000E+00 0. -1.
         -6    2    1    2    0  503 -0.79614308418E+02  0.77140642942E+02 -0.60086516606E+02  0.21224246151E+03  0.17072596783E+03 0.  0.
        -24    2    3    3    0    0  0.54253108495E+01  0.47332694791E+02  0.16367355559E+02  0.93973551026E+02  0.79330447941E+02 0.  0.
          6    2    1    2  501    0  0.79614308418E+02 -0.77140642942E+02  0.17399640241E+03  0.26786617796E+03  0.17084620085E+03 0.  0.
         24    2    5    5    0    0  0.11408398563E+03 -0.80570058549E+02  0.11256902986E+03  0.19718851786E+03  0.81883056739E+02 0.  0.
          5    1    5    5  501    0 -0.34469677215E+02  0.34294156079E+01  0.61427372548E+02  0.70677660097E+02  0.47000000000E+01 0. -1.
        -11    1    6    6    0    0  0.56212700233E+02  0.53693291543E+00  0.67471475936E+02  0.87821159349E+02  0.00000000000E+00 0.  1.
         12    1    6    6    0    0  0.57871285400E+02 -0.81106991465E+02  0.45097553922E+02  0.10936735851E+03  0.00000000000E+00 0. -1.
         -5    1    3    3    0  503 -0.85039619268E+02  0.29807948150E+02 -0.76453872165E+02  0.11826891048E+03  0.47000000000E+01 0.  1.
         13    1    4    4    0    0  0.76913649181E+01  0.58767232974E+01 -0.30124836835E+02  0.31641725069E+02  0.00000000000E+00 0. -1.
        -14    1    4    4    0    0 -0.22660540686E+01  0.41455971494E+02  0.46492192394E+02  0.62331825957E+02  0.00000000000E+00 0.  1.
</event>
<event>
12    1  0.8271773E-002  0.3256825E+03  0.7818608E-02  0.1073875E+00
         21   -1    0    0  501  502  0.00000000000E+00  0.00000000000E+00  0.11507136555E+04  0.11507136555E+04  0.00000000000E+00 0.  1.
         21   -1    0    0  502  503 -0.00000000000E+00 -0.00000000000E+00 -0.10137737870E+03  0.10137737870E+03  0.00000000000E+00 0. -1.
         -6    2    1    2    0  503  0.26092826999E+03  0.87215483135E+02  0.32168576927E+03  0.45776725063E+03  0.17429578027E+03 0.  0.
        -24    2    3    3    0    0  0.23855827309E+03  0.82184462486E+02  0.19474128945E+03  0.32868309634E+03  0.80274980370E+02 0.  0.
          6    2    1    2  501    0 -0.26092826999E+03 -0.87215483135E+02  0.72765050748E+03  0.79432378352E+03  0.16057680235E+03 0.  0.
         24    2    5    5    0    0 -0.27245885280E+03 -0.95103322093E+02  0.71373575743E+03  0.77405354394E+03  0.80384632345E+02 0.  0.
          5    1    5    5  501    0  0.11530582816E+02  0.78878389579E+01  0.13914750055E+02  0.20270239579E+02  0.47000000000E+01 0. -1.
        -11    1    6    6    0    0 -0.33172421100E+02  0.68507207636E+01  0.14119254495E+03  0.14519874877E+03  0.00000000000E+00 0.  1.
         12    1    6    6    0    0 -0.23928643170E+03 -0.10195404286E+03  0.57254321248E+03  0.62885479517E+03  0.00000000000E+00 0. -1.
         -5    1    3    3    0  503  0.22369996900E+02  0.50310206491E+01  0.12694447983E+03  0.12908415429E+03  0.47000000000E+01 0.  1.
         13    1    4    4    0    0  0.50730160067E+02  0.51988656781E+02  0.36819812916E+02  0.81437510998E+02  0.00000000000E+00 0. -1.
        -14    1    4    4    0    0  0.18782811302E+03  0.30195805705E+02  0.15792147653E+03  0.24724558534E+03  0.00000000000E+00 0.  1.
</event>
<event>
12    1  0.8271773E-002  0.1742162E+03  0.7818608E-02  0.1173637E+00
         21   -1    0    0  503  502  0.00000000000E+00  0.00000000000E+00  0.51252904956E+02  0.51252904956E+02  0.00000000000E+00 0.  1.
         21   -1    0    0  501  503 -0.00000000000E+00 -0.00000000000E+00 -0.70758365783E+03  0.70758365783E+03  0.00000000000E+00 0.  1.
          6    2    1    2  501    0 -0.16495141162E+02  0.13479033749E+02 -0.48206178856E+03  0.51242031767E+03  0.17244488956E+03 0.  0.
         24    2    3    3    0    0  0.51719715816E+02  0.45492648447E+02 -0.24683970471E+03  0.26537850548E+03  0.68930408976E+02 0.  0.
         -6    2    1    2    0  502  0.16495141162E+02 -0.13479033749E+02 -0.17426896431E+03  0.24641624512E+03  0.17290899312E+03 0.  0.
        -24    2    5    5    0    0 -0.19151283113E+02 -0.70370936363E+02 -0.10887166627E+03  0.15257460864E+03  0.78148135962E+02 0.  0.
          5    1    3    3  501    0 -0.68214856978E+02 -0.32013614698E+02 -0.23522208385E+03  0.24704181219E+03  0.47000000000E+01 0. -1.
        -11    1    4    4    0    0  0.40701439727E+02 -0.86260381588E+01 -0.12098235272E+03  0.12793648971E+03  0.00000000000E+00 0.  1.
         12    1    4    4    0    0  0.11018276090E+02  0.54118686606E+02 -0.12585735199E+03  0.13744201577E+03  0.00000000000E+00 0. -1.
         -5    1    5    5    0  502  0.35646424275E+02  0.56891902614E+02 -0.65397298043E+02  0.93841636483E+02  0.47000000000E+01 0.  1.
         11    1    6    6    0    0 -0.22162226527E+02 -0.65949689034E+02 -0.12085558515E+03  0.13945106034E+03  0.00000000000E+00 0. -1.
        -12    1    6    6    0    0  0.30109434145E+01 -0.44212473293E+01  0.11983918878E+02  0.13123548296E+02  0.00000000000E+00 0.  1.
</event>
<event>
12    1  0.8271773E-002  0.1915587E+03  0.7818608E-02  0.1157163E+00
         21   -1    0    0  503  502  0.00000000000E+00  0.00000000000E+00  0.66452985268E+03  0.66452985268E+03  0.00000000000E+00 0.  1.
         21   -1    0    0  501  503 -0.00000000000E+00 -0.00000000000E+00 -0.59567715187E+02  0.59567715187E+02  0.00000000000E+00 0.  1.
          6    2    1    2  501    0  0.84751548373E+02 -0.28591009474E+00  0.20288332744E+03  0.27871898058E+03  0.17128840850E+03 0.  0.
         24    2    3    3    0    0 -0.17394857039E+02  0.23307002557E+02  0.10571110940E+03  0.13569785059E+03  0.79957930090E+02 0.  0.
         -6    2    1    2    0  502 -0.84751548373E+02  0.28591009474E+00  0.40207881005E+03  0.44537858728E+03  0.17179001665E+03 0.  0.
        -24    2    5    5    0    0 -0.27795769426E+02  0.33830521611E+02  0.97574907185E+02  0.13374752564E+03  0.80314563517E+02 0.  0.
          5    1    3    3  501    0  0.10214640541E+03 -0.23592912652E+02  0.97172218041E+02  0.14302113000E+03  0.47000000000E+01 0. -1.
        -13    1    4    4    0    0 -0.17168781257E+02  0.52812441387E+02  0.66954131686E+02  0.86987221848E+02  0.00000000000E+00 0.  1.
         14    1    4    4    0    0 -0.22607578235E+00 -0.29505438830E+02  0.38756977709E+02  0.48710628737E+02  0.00000000000E+00 0. -1.
         -5    1    5    5    0  502 -0.56955778948E+02 -0.33544611516E+02  0.30450390287E+03  0.31163106164E+03  0.47000000000E+01 0.  1.
         13    1    6    6    0    0  0.16587162564E+02 -0.14875329310E+02  0.10719720748E+02  0.24724922587E+02  0.00000000000E+00 0. -1.
        -14    1    6    6    0    0 -0.44382931990E+02  0.48705850921E+02  0.86855186437E+02  0.10902260306E+03  0.00000000000E+00 0.  1.
</event>
<event>
12    1  0.8271773E-002  0.2671131E+03  0.7818608E-02  0.1103057E+00
         21   -1    0    0  503  502  0.00000000000E+00  0.00000000000E+00  0.10020505869E+04  0.10020505869E+04  0.00000000000E+00 0. -1.
         21   -1    0    0  501  503 -0.00000000000E+00 -0.00000000000E+00 -0.12525401587E+03  0.12525401587E+03  0.00000000000E+00 0.  1.
          6    2    1    2  501    0 -0.15850326994E+03 -0.12946703959E+03  0.67050783724E+02  0.27463957434E+03  0.17042912683E+03 0.  0.
         24    2    3    3    0    0 -0.10403159676E+03 -0.43073231874E+02 -0.20882342734E+02  0.13978640263E+03  0.80164142196E+02 0.  0.
         -6    2    1    2    0  502  0.15850326994E+03  0.12946703959E+03  0.80974578726E+03  0.85266502838E+03  0.17165200178E+03 0.  0.
        -24    2    5    5    0    0  0.34712062122E+02  0.11118579866E+03  0.40016699039E+03  0.42437149849E+03  0.79939598755E+02 0.  0.
          5    1    3    3  501    0 -0.54471673184E+02 -0.86393807715E+02  0.87933126458E+02  0.13485317171E+03  0.47000000000E+01 0. -1.
        -13    1    4    4    0    0 -0.98555984948E+02 -0.57071651804E+02  0.20756331723E+00  0.11388809723E+03  0.00000000000E+00 0.  1.
         14    1    4    4    0    0 -0.54756118109E+01  0.13998419930E+02 -0.21089906051E+02  0.25898305398E+02  0.00000000000E+00 0. -1.
         -5    1    5    5    0  502  0.12379120782E+03  0.18281240927E+02  0.40957879687E+03  0.42829352989E+03  0.47000000000E+01 0.  1.
         11    1    6    6    0    0  0.37134345546E+02  0.12316681409E+03  0.35540503638E+03  0.37797058562E+03  0.00000000000E+00 0. -1.
        -12    1    6    6    0    0 -0.24222834244E+01 -0.11981015429E+02  0.44761954014E+02  0.46400912866E+02  0.00000000000E+00 0.  1.
</event>
<event>
12    1  0.8271773E-002  0.1944492E+03  0.7818608E-02  0.1155014E+00
         21   -1    0    0  503  502  0.00000000000E+00  0.00000000000E+00  0.19824529307E+03  0.19824529307E+03  0.00000000000E+00 0. -1.
         21   -1    0    0  501  503 -0.00000000000E+00 -0.00000000000E+00 -0.62465557777E+03  0.62465557777E+03  0.00000000000E+00 0. -1.
          6    2    1    2  501    0  0.24864045005E+01  0.84233266995E+02 -0.55740202816E+03  0.59034525058E+03  0.17524003084E+03 0.  0.
         24    2    3    3    0    0 -0.66964774822E+02  0.45387014296E+02 -0.28250434738E+03  0.30412274525E+03  0.78343319799E+02 0.  0.
         -6    2    1    2    0  502 -0.24864045005E+01 -0.84233266995E+02  0.13099174347E+03  0.23255562026E+03  0.17269005235E+03 0.  0.
        -24    2    5    5    0    0 -0.23867489977E+02  0.18248192389E+02  0.77049280962E+02  0.11469349914E+03  0.79469198087E+02 0.  0.
          5    1    3    3  501    0  0.69451179322E+02  0.38846252698E+02 -0.27489768079E+03  0.28622250534E+03  0.47000000000E+01 0. -1.
        -13    1    4    4    0    0 -0.73356525351E+01 -0.18500732010E+02 -0.23624906419E+02  0.30890533928E+02  0.00000000000E+00 0.  1.
         14    1    4    4    0    0 -0.59629122286E+02  0.63887746307E+02 -0.25887944096E+03  0.27323221132E+03  0.00000000000E+00 0. -1.
         -5    1    5    5    0  502  0.21381085477E+02 -0.10248145938E+03  0.53942462507E+02  0.11786212112E+03  0.47000000000E+01 0.  1.
         13    1    6    6    0    0  0.42817565882E+01 -0.29347999758E+02  0.27357115033E+02  0.40349104974E+02  0.00000000000E+00 0. -1.
        -14    1    6    6    0    0 -0.28149246565E+02  0.47596192146E+02  0.49692165929E+02  0.74344394165E+02  0.00000000000E+00 0.  1.
</event>
<event>
12    1  0.8271773E-002  0.2774598E+03  0.7818608E-02  0.1097139E+00
         21   -1    0    0  503  502  0.00000000000E+00  0.00000000000E+00  0.90110527595E+02  0.90110527595E+02  0.00000000000E+00 0. -1.
         21   -1    0    0  501  503 -0.00000000000E+00 -0.00000000000E+00 -0.85760535975E+03  0.85760535975E+03  0.00000000000E+00 0.  1.
          6    2    1    2  501    0  0.18138921224E+03 -0.12014904419E+03 -0.41829010477E+03  0.50194678543E+03  0.17218049981E+03 0.  0.
         24    2    3    3    0    0  0.20641338801E+03 -0.95779444895E+02 -0.34614393914E+03  0.42165204115E+03  0.78705961589E+02 0.  0.
         -6    2    1    2    0  502 -0.18138921224E+03  0.12014904419E+03 -0.34920472738E+03  0.44576910192E+03  0.17154682003E+03 0.  0.
        -24    2    5    5    0    0 -0.12252695759E+03  0.14822838765E+03 -0.25379000795E+03  0.33010029352E+03  0.87019109445E+02 0.  0.
          5    1    3    3  501    0 -0.25024175775E+02 -0.24369599298E+02 -0.72146165635E+02  0.80294744280E+02  0.47000000000E+01 0. -1.
        -11    1    4    4    0    0  0.96968173947E+02 -0.56791537558E+02 -0.23678321273E+03  0.26209615664E+03  0.00000000000E+00 0.  1.
         12    1    4    4    0    0  0.10944521406E+03 -0.38987907337E+02 -0.10936072641E+03  0.15955588450E+03  0.00000000000E+00 0. -1.
         -5    1    5    5    0  502 -0.58862254647E+02 -0.28079343452E+02 -0.95414719434E+02  0.11566880839E+03  0.47000000000E+01 0.  1.
         11    1    6    6    0    0 -0.12570981821E+02  0.81498941916E+02 -0.98443158663E+02  0.12841792167E+03  0.00000000000E+00 0. -1.
        -12    1    6    6    0    0 -0.10995597577E+03  0.66729445729E+02 -0.15534684929E+03  0.20168237186E+03  0.00000000000E+00 0.  1.
</event>
<event>
12    1  0.8271773E-002  0.2980309E+03  0.7818608E-02  0.1086410E+00
         21   -1    0    0  503  502  0.00000000000E+00  0.00000000000E+00  0.25441744428E+03  0.25441744428E+03  0.00000000000E+00 0.  1.
         21   -1    0    0  501  503 -0.00000000000E+00 -0.00000000000E+00 -0.41958175143E+03  0.41958175143E+03  0.00000000000E+00 0.  1.
          6    2    1    2  501    0 -0.23551981063E+03 -0.60026985199E+02 -0.22247482980E+03  0.37191054792E+03  0.17248068185E+03 0.  0.
         24    2    3    3    0    0 -0.23349701264E+03 -0.41803223153E+02 -0.13532008244E+03  0.28272401754E+03  0.73164069051E+02 0.  0.
         -6    2    1    2    0  502  0.23551981063E+03  0.60026985199E+02  0.57310522655E+02  0.30208864778E+03  0.17000069106E+03 0.  0.
        -24    2    5    5    0    0  0.60248706188E+02 -0.85879958275E+01 -0.15392467393E+02  0.10025755396E+03  0.78172813711E+02 0.  0.
          5    1    3    3  501    0 -0.20227979820E+01 -0.18223762045E+02 -0.87154747360E+02  0.89186530386E+02  0.47000000000E+01 0. -1.
        -13    1    4    4    0    0 -0.80051245415E+02 -0.24485916313E+02 -0.10904958828E+02  0.84419666650E+02  0.00000000000E+00 0.  1.
         14    1    4    4    0    0 -0.15344576723E+03 -0.17317306840E+02 -0.12441512362E+03  0.19830435089E+03  0.00000000000E+00 0. -1.
         -5    1    5    5    0  502  0.17527110444E+03  0.68614981026E+02  0.72702990048E+02  0.20183109382E+03  0.47000000000E+01 0.  1.
         11    1    6    6    0    0  0.52529604148E+02  0.14778730834E+02 -0.38275060183E+02  0.66653960340E+02  0.00000000000E+00 0. -1.
        -12    1    6    6    0    0  0.77191020401E+01 -0.23366726662E+02  0.22882592790E+02  0.33603593618E+02  0.00000000000E+00 0.  1.
</event>
<event>
12    1  0.8271773E-002  0.2068107E+03  0.7818608E-02  0.1144241E+00
         21   -1    0    0  503  502  0.00000000000E+00  0.00000000000E+00  0.88928988039E+03  0.88928988039E+03  0.00000000000E+00 0. -1.
         21   -1    0    0  501  503 -0.00000000000E+00 -0.00000000000E+00 -0.48144841769E+02  0.48144841769E+02  0.00000000000E+00 0. -1.
          6    2    1    2  501    0  0.33400970017E+02 -0.11053272249E+03  0.39159330550E+03  0.44284981921E+03  0.17157370990E+03 0.  0.
         24    2    3    3    0    0  0.42995513882E+02 -0.14298156331E+03  0.28893699012E+03  0.33465836100E+03  0.78862492166E+02 0.  0.
         -6    2    1    2    0  502 -0.33400970017E+02  0.11053272249E+03  0.44955173312E+03  0.49458490295E+03  0.17083429963E+03 0.  0.
        -24    2    5    5    0    0  0.23578564468E+02  0.24866850758E+01  0.20263277662E+03  0.21906416936E+03  0.79793081374E+02 0.  0.
          5    1    3    3  501    0 -0.95945438654E+01  0.32448840820E+02  0.10265631538E+03  0.10819145821E+03  0.47000000000E+01 0. -1.
        -13    1    4    4    0    0 -0.45414570134E+01 -0.47670309811E+02  0.35072069842E+02  0.59355988344E+02  0.00000000000E+00 0.  1.
         14    1    4    4    0    0  0.47536970896E+02 -0.95311253497E+02  0.25386492027E+03  0.27530237266E+03  0.00000000000E+00 0. -1.
         -5    1    5    5    0  502 -0.56979534484E+02  0.10804603741E+03  0.24691895651E+03  0.27552073358E+03  0.47000000000E+01 0.  1.
         11    1    6    6    0    0  0.29837564993E+02  0.21960998054E+02  0.37661233138E+02  0.52829293027E+02  0.00000000000E+00 0. -1.
        -12    1    6    6    0    0 -0.62590005253E+01 -0.19474312978E+02  0.16497154348E+03  0.16623487634E+03  0.00000000000E+00 0.  1.
</event>
<event>
12    1  0.8271773E-002  0.2110231E+03  0.7818608E-02  0.1141224E+00
         21   -1    0    0  501  502  0.00000000000E+00  0.00000000000E+00  0.10813135502E+04  0.10813135502E+04  0.00000000000E+00 0.  1.
         21   -1    0    0  502  503 -0.00000000000E+00 -0.00000000000E+00 -0.10704465604E+03  0.10704465604E+03  0.00000000000E+00 0.  1.
         -6    2    1    2    0  503  0.99016270037E+02  0.72022053758E+02  0.20485363616E+02  0.21201508922E+03  0.17187015441E+03 0.  0.
        -24    2    3    3    0    0 -0.20550104890E+01  0.26035162469E+01 -0.52669529964E+01  0.86637224718E+02  0.86413347048E+02 0.  0.
          6    2    1    2  501    0 -0.99016270037E+02 -0.72022053758E+02  0.95378353058E+03  0.97634311706E+03  0.16897177591E+03 0.  0.
         24    2    5    5    0    0 -0.12659760774E+03 -0.30018446228E+02  0.80196279205E+03  0.81635355526E+03  0.79754284856E+02 0.  0.
          5    1    5    5  501    0  0.27581337707E+02 -0.42003607530E+02  0.15182073853E+03  0.15998956180E+03  0.47000000000E+01 0. -1.
        -11    1    6    6    0    0 -0.64987391252E+01 -0.22265386861E+02  0.26772710752E+03  0.26872994839E+03  0.00000000000E+00 0.  1.
         12    1    6    6    0    0 -0.12009886862E+03 -0.77530593670E+01  0.53423568454E+03  0.54762360687E+03  0.00000000000E+00 0. -1.
         -5    1    3    3    0  503  0.10107128053E+03  0.69418537511E+02  0.25752316612E+02  0.12537786451E+03  0.47000000000E+01 0.  1.
         13    1    4    4    0    0  0.12230660772E+01  0.27638777370E+02 -0.36927525568E+02  0.46141521970E+02  0.00000000000E+00 0. -1.
        -14    1    4    4    0    0 -0.32780765663E+01 -0.25035261123E+02  0.31660572571E+02  0.40495702748E+02  0.00000000000E+00 0.  1.
</event>
<event>
12    1  0.8271773E-002  0.1867635E+03  0.7818608E-02  0.1163219E+00
         21   -1    0    0  503  502  0.00000000000E+00  0.00000000000E+00  0.30474823786E+03  0.30474823786E+03  0.00000000000E+00 0. -1.
         21   -1    0    0  501  503 -0.00000000000E+00 -0.00000000000E+00 -0.11301292711E+03  0.11301292711E+03  0.00000000000E+00 0. -1.
          6    2    1    2  501    0 -0.70235489491E+02 -0.10574933762E+02  0.13296369468E+03  0.22925954514E+03  0.17273025712E+03 0.  0.
         24    2    3    3    0    0  0.33588960553E+01 -0.52746583615E+02  0.42063011257E+02  0.10484248087E+03  0.80182071640E+02 0.  0.
         -6    2    1    2    0  502  0.70235489491E+02  0.10574933762E+02  0.58771616069E+02  0.18850161983E+03  0.16441990334E+03 0.  0.
        -24    2    5    5    0    0  0.38825383028E+02 -0.46983872468E+02 -0.41352303488E+00  0.10004495443E+03  0.79334275485E+02 0.  0.
          5    1    3    3  501    0 -0.73594385547E+02  0.42171649853E+02  0.90900683426E+02  0.12441706427E+03  0.47000000000E+01 0. -1.
        -13    1    4    4    0    0  0.11659282390E+02 -0.46575823698E+02  0.64340899627E+02  0.80280742298E+02  0.00000000000E+00 0.  1.
         14    1    4    4    0    0 -0.83003863351E+01 -0.61707599169E+01 -0.22277888370E+02  0.24561738569E+02  0.00000000000E+00 0. -1.
         -5    1    5    5    0  502  0.31410106463E+02  0.57558806229E+02  0.59185139104E+02  0.88456665398E+02  0.47000000000E+01 0.  1.
         13    1    6    6    0    0  0.41440225140E+02  0.40947200509E+01  0.18430640706E+02  0.45538417943E+02  0.00000000000E+00 0. -1.
        -14    1    6    6    0    0 -0.26148421113E+01 -0.51078592519E+02 -0.18844163741E+02  0.54506536489E+02  0.00000000000E+00 0.  1.
</event>
<event>
12    1  0.8271773E-002  0.3545149E+03  0.7818608E-02  0.1060838E+00
         21   -1    0    0  503  502  0.00000000000E+00  0.00000000000E+00  0.35906311500E+03  0.35906311500E+03  0.00000000000E+00 0. -1.
         21   -1    0    0  501  503 -0.00000000000E+00 -0.00000000000E+00 -0.15944096396E+04  0.15944096396E+04  0.00000000000E+00 0.  1.
          6    2    1    2  501    0  0.30553328372E+03  0.46774179350E+02 -0.14808826136E+04  0.15227258928E+04  0.17361571958E+03 0.  0.
         24    2    3    3    0    0  0.25856887970E+03  0.91185847216E+01 -0.13698760083E+04  0.13963607257E+04  0.79510904291E+02 0.  0.
         -6    2    1    2    0  502 -0.30553328372E+03 -0.46774179350E+02  0.24553608902E+03  0.43074686176E+03  0.17238467621E+03 0.  0.
        -24    2    5    5    0    0 -0.28004580623E+03 -0.27271189389E+02  0.26314377027E+03  0.39384024223E+03  0.81829830826E+02 0.  0.
          5    1    3    3  501    0  0.46964404020E+02  0.37655594629E+02 -0.11100660529E+03  0.12636516715E+03  0.47000000000E+01 0. -1.
        -13    1    4    4    0    0  0.90273097827E+02  0.35607858244E+02 -0.60564261619E+03  0.61336785888E+03  0.00000000000E+00 0.  1.
         14    1    4    4    0    0  0.16829578187E+03 -0.26489273522E+02 -0.76423339214E+03  0.78299286681E+03  0.00000000000E+00 0. -1.
         -5    1    5    5    0  502 -0.25487477489E+02 -0.19502989962E+02 -0.17607681247E+02  0.36906619529E+02  0.47000000000E+01 0.  1.
         13    1    6    6    0    0 -0.91613232990E+02  0.17053166914E+01  0.38999671163E+02  0.99583467075E+02  0.00000000000E+00 0. -1.
        -14    1    6    6    0    0 -0.18843257324E+03 -0.28976506080E+02  0.22414409910E+03  0.29425677516E+03  0.00000000000E+00 0.  1.
</event>
<event>
12    1  0.8271773E-002  0.2394839E+03  0.7818608E-02  0.1120394E+00
         21   -1    0    0  503  502  0.00000000000E+00  0.00000000000E+00  0.12165583794E+04  0.12165583794E+04  0.00000000000E+00 0.  1.
         21   -1    0    0  501  503 -0.00000000000E+00 -0.00000000000E+00 -0.61021878152E+02  0.61021878152E+02  0.00000000000E+00 0.  1.
          6    2    1    2  501    0 -0.14873155868E+03  0.73201766688E+02  0.27126265356E+03  0.36185073617E+03  0.17283793813E+03 0.  0.
         24    2    3    3    0    0 -0.14620169543E+03  0.11012479263E+03  0.24479891182E+03  0.31611093206E+03  0.80605263135E+02 0.  0.
         -6    2    1    2    0  502  0.14873155868E+03 -0.73201766688E+02  0.88427384772E+03  0.91572952141E+03  0.17070660042E+03 0.  0.
        -24    2    5    5    0    0  0.86990313777E+01 -0.16163696938E+02  0.25108958273E+03  0.26472502562E+03  0.81831671070E+02 0.  0.
          5    1    3    3  501    0 -0.25298632482E+01 -0.36923025942E+02  0.26463741741E+02  0.45739804107E+02  0.47000000000E+01 0. -1.
        -11    1    4    4    0    0 -0.16258620513E+02 -0.71741995108E+00  0.69438959359E+02  0.71320589659E+02  0.00000000000E+00 0.  1.
         12    1    4    4    0    0 -0.12994307492E+03  0.11084221258E+03  0.17535995246E+03  0.24479034241E+03  0.00000000000E+00 0. -1.
         -5    1    5    5    0  502  0.14003252730E+03 -0.57038069750E+02  0.63318426499E+03  0.65100449579E+03  0.47000000000E+01 0.  1.
         13    1    6    6    0    0  0.32176521553E+02 -0.31553500796E+02  0.84303849884E+02  0.95593363039E+02  0.00000000000E+00 0. -1.
        -14    1    6    6    0    0 -0.23477490175E+02  0.15389803859E+02  0.16678573285E+03  0.16913166258E+03  0.00000000000E+00 0.  1.
</event>
<event>
12    1  0.8271773E-002  0.1725841E+03  0.7818608E-02  0.1176362E+00
         21   -1    0    0  503  502  0.00000000000E+00  0.00000000000E+00  0.11808340954E+03  0.11808340954E+03  0.00000000000E+00 0. -1.
         21   -1    0    0  501  503 -0.00000000000E+00 -0.00000000000E+00 -0.17364914036E+04  0.17364914036E+04  0.00000000000E+00 0. -1.
          6    2    1    2  501    0 -0.16285408536E+02 -0.65567841814E+01 -0.16668688458E+04  0.16753159536E+04  0.16710352883E+03 0.  0.
         24    2    3    3    0    0  0.60503689431E+00 -0.64860654948E+02 -0.12205529725E+04  0.12248666477E+04  0.79633379705E+02 0.  0.
         -6    2    1    2    0  502  0.16285408536E+02  0.65567841814E+01  0.48460851734E+02  0.17925885954E+03  0.17168890070E+03 0.  0.
        -24    2    5    5    0    0 -0.26017933429E+02 -0.43339348465E+02 -0.31912599958E+01  0.95776960660E+02  0.81288437478E+02 0.  0.
          5    1    3    3  501    0 -0.16890445430E+02  0.58303870767E+02 -0.44631587327E+03  0.45044930594E+03  0.47000000000E+01 0. -1.
        -11    1    4    4    0    0 -0.23153219047E+02 -0.26822784199E+02 -0.18617705643E+03  0.18951894271E+03  0.00000000000E+00 0.  1.
         12    1    4    4    0    0  0.23758255941E+02 -0.38037870750E+02 -0.10343759161E+04  0.10353477050E+04  0.00000000000E+00 0. -1.
         -5    1    5    5    0  502  0.42303341965E+02  0.49896132646E+02  0.51652111730E+02  0.83481898880E+02  0.47000000000E+01 0.  1.
         11    1    6    6    0    0 -0.46895158266E+02 -0.90821334404E+00  0.69404569104E+01  0.47414667166E+02  0.00000000000E+00 0. -1.
        -12    1    6    6    0    0  0.20877224837E+02 -0.42431135121E+02 -0.10131716906E+02  0.48362293494E+02  0.00000000000E+00 0.  1.
</event>
<event>
12    1  0.8271773E-002  0.2009308E+03  0.7818608E-02  0.1149157E+00
         21   -1    0    0  501  502  0.00000000000E+00  0.00000000000E+00  0.91076846297E+03  0.91076846297E+03  0.00000000000E+00 0.  1.
         21   -1    0    0  502  503 -0.00000000000E+00 -0.00000000000E+00 -0.96428699010E+02  0.96428699010E+02  0.00000000000E+00 0.  1.
         -6    2    1    2    0  503  0.10246465995E+03  0.15335461000E+02  0.36698505605E+02  0.20425463208E+03  0.17215978482E+03 0.  0.
        -24    2    3    3    0    0  0.36621087178E+02  0.43716912322E+02  0.74574627127E+02  0.12302918387E+03  0.79514354828E+02 0.  0.
          6    2    1    2  501    0 -0.10246465995E+03 -0.15335461000E+02  0.77764125835E+03  0.80294252990E+03  0.17104559839E+03 0.  0.
         24    2    5    5    0    0 -0.64108373607E+01 -0.20984923961E+02  0.54549975101E+03  0.55160605682E+03  0.78853013301E+02 0.  0.
          5    1    5    5  501    0 -0.96053822591E+02  0.56494629606E+01  0.23214150735E+03  0.25133647308E+03  0.47000000000E+01 0. -1.
        -11    1    6    6    0    0 -0.23379647146E+02  0.24156980672E+02  0.22100977695E+03  0.22355198304E+03  0.00000000000E+00 0.  1.
         12    1    6    6    0    0  0.16968809785E+02 -0.45141904632E+02  0.32448997406E+03  0.32805407378E+03  0.00000000000E+00 0. -1.
         -5    1    3    3    0  503  0.65843572773E+02 -0.28381451322E+02 -0.37876121523E+02  0.81225448206E+02  0.47000000000E+01 0.  1.
         13    1    4    4    0    0  0.54939650191E+02  0.23972088780E+02  0.21807291655E+02  0.63785454242E+02  0.00000000000E+00 0. -1.
        -14    1    4    4    0    0 -0.18318563012E+02  0.19744823542E+02  0.52767335472E+02  0.59243729629E+02  0.00000000000E+00 0.  1.
</event>
<event>
12    1  0.8271773E-002  0.2067876E+03  0.7818608E-02  0.1144146E+00
         21   -1    0    0  501  502  0.00000000000E+00  0.00000000000E+00  0.10197601195E+03  0.10197601195E+03  0.00000000000E+00 0.  1.
         21   -1    0    0  502  503 -0.00000000000E+00 -0.00000000000E+00 -0.13653364227E+04  0.13653364227E+04  0.00000000000E+00 0.  1.
         -6    2    1    2    0  503 -0.48365249301E+02  0.10530857687E+03 -0.12424278094E+04  0.12595189427E+04  0.17126590991E+03 0.  0.
        -24    2    3    3    0    0 -0.81005369553E+02  0.32573213101E+02 -0.90132440529E+03  0.90919133482E+03  0.81365321997E+02 0.  0.
          6    2    1    2  501    0  0.48365249301E+02 -0.10530857687E+03 -0.20932601393E+02  0.20779349193E+03  0.17120416989E+03 0.  0.
         24    2    5    5    0    0  0.85985833076E+02 -0.10242457797E+03  0.52915859695E+01  0.16160449134E+03  0.90574019875E+02 0.  0.
          5    1    5    5  501    0 -0.37620583776E+02 -0.28839989006E+01 -0.26224187363E+02  0.46189000597E+02  0.47000000000E+01 0. -1.
        -11    1    6    6    0    0  0.20149538822E+02  0.27583273710E+01  0.28852049898E+02  0.35299476879E+02  0.00000000000E+00 0.  1.
         12    1    6    6    0    0  0.65836294254E+02 -0.10518290534E+03 -0.23560463928E+02  0.12630501446E+03  0.00000000000E+00 0. -1.
         -5    1    3    3    0  503  0.32640120253E+02  0.72735363767E+02 -0.34110340409E+03  0.35032760792E+03  0.47000000000E+01 0.  1.
         11    1    4    4    0    0 -0.22703180546E+02 -0.21794754586E+02 -0.12986188528E+03  0.13362093767E+03  0.00000000000E+00 0. -1.
        -12    1    4    4    0    0 -0.58302189007E+02  0.54367967688E+02 -0.77146252001E+03  0.77557039715E+03  0.00000000000E+00 0.  1.
</event>
<event>
12    1  0.8271773E-002  0.1723414E+03  0.7818608E-02  0.1176021E+00
         21   -1    0    0  501  502  0.00000000000E+00  0.00000000000E+00  0.13353991744E+03  0.13353991744E+03  0.00000000000E+00 0.  1.
         21   -1    0    0  502  503 -0.00000000000E+00 -0.00000000000E+00 -0.25458753633E+03  0.25458753633E+03  0.00000000000E+00 0.  1.
         -6    2    1    2    0  503 -0.24992886538E+01 -0.50033549633E+01 -0.13296171110E+03  0.21767036364E+03  0.17225066207E+03 0.  0.
        -24    2    3    3    0    0  0.58638909529E+02  0.26780588660E+02 -0.77768463779E+02  0.12925948818E+03  0.80649610576E+02 0.  0.
          6    2    1    2  501    0  0.24992886538E+01  0.50033549633E+01  0.11914092207E+02  0.17045709013E+03  0.16994820970E+03 0.  0.
         24    2    5    5    0    0 -0.33449188643E+02  0.55161934294E+01 -0.49159026155E+02  0.99431940997E+02  0.79503612667E+02 0.  0.
          5    1    5    5  501    0  0.35948477297E+02 -0.51283846616E+00  0.61073118362E+02  0.71025149135E+02  0.47000000000E+01 0. -1.
        -13    1    6    6    0    0  0.22825074409E+02  0.16109730990E+02 -0.24218668548E+02  0.36973657658E+02  0.00000000000E+00 0.  1.
         14    1    6    6    0    0 -0.56274263052E+02 -0.10593537561E+02 -0.24940357607E+02  0.62458283339E+02  0.00000000000E+00 0. -1.
         -5    1    3    3    0  503 -0.61138198183E+02 -0.31783943623E+02 -0.55193247321E+02  0.88410875457E+02  0.47000000000E+01 0.  1.
         11    1    4    4    0    0  0.26956913193E+02  0.31781913506E+02  0.35683486536E+01  0.41827004520E+02  0.00000000000E+00 0. -1.
        -12    1    4    4    0    0  0.31681996336E+02 -0.50013248463E+01 -0.81336812432E+02  0.87432483658E+02  0.00000000000E+00 0.  1.
</event>
<event>
12    1  0.8271773E-002  0.4907441E+03  0.7818608E-02  0.1016239E+00
         21   -1    0    0  501  502  0.00000000000E+00  0.00000000000E+00  0.34328590289E+03  0.34328590289E+03  0.00000000000E+00 0. -1.
         21   -1    0    0  502  503 -0.00000000000E+00 -0.00000000000E+00 -0.70854888045E+03  0.70854888045E+03  0.00000000000E+00 0.  1.
         -6    2    1    2    0  503 -0.24013028594E+03 -0.39180879972E+03 -0.23610571328E+03  0.54437899744E+03  0.17153977746E+03 0.  0.
        -24    2    3    3    0    0 -0.66070014864E+02 -0.21024717783E+03 -0.77159821007E+02  0.24680969933E+03  0.79951654485E+02 0.  0.
          6    2    1    2  501    0  0.24013028594E+03  0.39180879972E+03 -0.12915726428E+03  0.50745578591E+03  0.17220071419E+03 0.  0.
         24    2    5    5    0    0  0.20446655775E+03  0.21203491656E+03 -0.10237597704E+03  0.32217254888E+03  0.80925468795E+02 0.  0.
          5    1    5    5  501    0  0.35663728186E+02  0.17977388316E+03 -0.26781287250E+02  0.18528323702E+03  0.47000000000E+01 0. -1.
        -11    1    6    6    0    0  0.98052158490E+02  0.15748512796E+03 -0.54404452534E+02  0.19332779358E+03  0.00000000000E+00 0.  1.
         12    1    6    6    0    0  0.10641439926E+03  0.54549788594E+02 -0.47971524501E+02  0.12884475530E+03  0.00000000000E+00 0. -1.
         -5    1    3    3    0  503 -0.17406027107E+03 -0.18156162189E+03 -0.15894589227E+03  0.29756929811E+03  0.47000000000E+01 0.  1.
         11    1    4    4    0    0 -0.61973364148E+02 -0.85636547925E+02 -0.12742932613E+02  0.10647393360E+03  0.00000000000E+00 0. -1.
        -12    1    4    4    0    0 -0.40966507153E+01 -0.12461062990E+03 -0.64416888394E+02  0.14033576573E+03  0.00000000000E+00 0.  1.
</event>
<event>
12    1  0.8271773E-002  0.2380169E+03  0.7818608E-02  0.1121634E+00
         21   -1    0    0  501  502  0.00000000000E+00  0.00000000000E+00  0.99830465977E+03  0.99830465977E+03  0.00000000000E+00 0. -1.
         21   -1    0    0  502  503 -0.00000000000E+00 -0.00000000000E+00 -0.11958527932E+03  0.11958527932E+03  0.00000000000E+00 0.  1.
         -6    2    1    2    0  503  0.34877710324E+02  0.15626128461E+03  0.33196946042E+02  0.24032074747E+03  0.17611922296E+03 0.  0.
        -24    2    3    3    0    0  0.24463982495E+02  0.13543883817E+01  0.25443078808E+01  0.81997450226E+02  0.78209894090E+02 0.  0.
          6    2    1    2  501    0 -0.34877710324E+02 -0.15626128461E+03  0.84552243441E+03  0.87756919162E+03  0.17200423029E+03 0.  0.
         24    2    5    5    0    0 -0.20304259136E+02 -0.41694872969E+02  0.18185186886E+03  0.20390862595E+03  0.79736441843E+02 0.  0.
          5    1    5    5  501    0 -0.14573451188E+02 -0.11456641164E+03  0.66367056556E+03  0.67366056567E+03  0.47000000000E+01 0. -1.
        -13    1    6    6    0    0  0.12837294800E+02  0.19023922708E+02  0.40967659076E+02  0.46958011704E+02  0.00000000000E+00 0.  1.
         14    1    6    6    0    0 -0.33141553936E+02 -0.60718795677E+02  0.14088420978E+03  0.15695061424E+03  0.00000000000E+00 0. -1.
         -5    1    3    3    0  503  0.10413727829E+02  0.15490689622E+03  0.30652638161E+02  0.15832329725E+03  0.47000000000E+01 0.  1.
         11    1    4    4    0    0  0.47713783332E+02  0.11205011929E+02  0.18206249152E+02  0.52284079034E+02  0.00000000000E+00 0. -1.
        -12    1    4    4    0    0 -0.23249800837E+02 -0.98506235475E+01 -0.15661941271E+02  0.29713371193E+02  0.00000000000E+00 0.  1.
</event>
<event>
12    1  0.8271773E-002  0.2046952E+03  0.7818608E-02  0.1145900E+00
         21   -1    0    0  501  502  0.00000000000E+00  0.00000000000E+00  0.37888242460E+03  0.37888242460E+03  0.00000000000E+00 0. -1.
         21   -1    0    0  502  503 -0.00000000000E+00 -0.00000000000E+00 -0.11054383993E+03  0.11054383993E+03  0.00000000000E+00 0. -1.
         -6    2    1    2    0  503 -0.64677451847E+01 -0.11127289489E+03  0.12601420784E+03  0.24011454172E+03  0.17132403130E+03 0.  0.
        -24    2    3    3    0    0  0.54069049793E+02 -0.87781985630E+02  0.48024844267E+02  0.13852242985E+03  0.79075525654E+02 0.  0.
          6    2    1    2  501    0  0.64677451847E+01  0.11127289489E+03  0.14232437683E+03  0.24931172281E+03  0.17168755933E+03 0.  0.
         24    2    5    5    0    0  0.22102380441E+01  0.10882995785E+03  0.29323324343E+02  0.13610650133E+03  0.76264523051E+02 0.  0.
          5    1    5    5  501    0  0.42575071406E+01  0.24429370422E+01  0.11300105248E+03  0.11320522148E+03  0.47000000000E+01 0. -1.
        -11    1    6    6    0    0 -0.13105384083E+02 -0.21215298019E+01 -0.10819575384E+02  0.17126447155E+02  0.00000000000E+00 0.  1.
         12    1    6    6    0    0  0.15315622127E+02  0.11095148765E+03  0.40142899727E+02  0.11898005418E+03  0.00000000000E+00 0. -1.
         -5    1    3    3    0  503 -0.60536794977E+02 -0.23490909264E+02  0.77989363572E+02  0.10159211187E+03  0.47000000000E+01 0.  1.
         11    1    4    4    0    0 -0.18907389143E+02 -0.22975213473E+02  0.15345614009E-01  0.29754832108E+02  0.00000000000E+00 0. -1.
        -12    1    4    4    0    0  0.72976438935E+02 -0.64806772157E+02  0.48009498653E+02  0.10876759774E+03  0.00000000000E+00 0.  1.
</event>
<event>
12    1  0.8271773E-002  0.2176493E+03  0.7818608E-02  0.1135719E+00
         21   -1    0    0  503  502  0.00000000000E+00  0.00000000000E+00  0.88587564694E+03  0.88587564694E+03  0.00000000000E+00 0.  1.
         21   -1    0    0  501  503 -0.00000000000E+00 -0.00000000000E+00 -0.53657211552E+02  0.53657211552E+02  0.00000000000E+00 0.  1.
          6    2    1    2  501    0 -0.46322284034E+02 -0.12416860363E+03  0.38278158451E+03  0.44033278193E+03  0.17264883802E+03 0.  0.
         24    2    3    3    0    0 -0.89188451848E+02 -0.12653618794E+03  0.31301051149E+03  0.35827666436E+03  0.80128653561E+02 0.  0.
         -6    2    1    2    0  502  0.46322284034E+02  0.12416860363E+03  0.44943685088E+03  0.49920007657E+03  0.17217327724E+03 0.  0.
        -24    2    5    5    0    0  0.45441707846E+02  0.45323255177E+02  0.36911578133E+03  0.38654605489E+03  0.95143293266E+02 0.  0.
          5    1    3    3  501    0  0.42866167814E+02  0.23675843124E+01  0.69771073027E+02  0.82056117565E+02  0.47000000000E+01 0. -1.
        -11    1    4    4    0    0 -0.98728486074E+02 -0.92667336181E+02  0.21441875375E+03  0.25359406759E+03  0.00000000000E+00 0.  1.
         12    1    4    4    0    0  0.95400342263E+01 -0.33868851763E+02  0.98591757740E+02  0.10468259677E+03  0.00000000000E+00 0. -1.
         -5    1    5    5    0  502  0.88057618786E+00  0.78845348455E+02  0.80321069549E+02  0.11265402168E+03  0.47000000000E+01 0.  1.
         13    1    6    6    0    0  0.14666848002E+02 -0.26973009568E+02  0.57579211496E+02  0.65253546049E+02  0.00000000000E+00 0. -1.
        -14    1    6    6    0    0  0.30774859844E+02  0.72296264745E+02  0.31153656983E+03  0.32129250884E+03  0.00000000000E+00 0.  1.
</event>
<event>
12    1  0.8271773E-002  0.1937430E+03  0.7818608E-02  0.1155246E+00
         21   -1    0    0  503  502  0.00000000000E+00  0.00000000000E+00  0.10632755066E+03  0.10632755066E+03  0.00000000000E+00 0.  1.
         21   -1    0    0  501  503 -0.00000000000E+00 -0.00000000000E+00 -0.35651197915E+03  0.35651197915E+03  0.00000000000E+00 0.  1.
          6    2    1    2  501    0 -0.41056441671E+02 -0.78545837195E+02 -0.99027477380E+02  0.21710639626E+03  0.17167896225E+03 0.  0.
         24    2    3    3    0    0 -0.61333704678E+02 -0.71981529736E+01 -0.10097042472E+03  0.14275907296E+03  0.79821610524E+02 0.  0.
         -6    2    1    2    0  502  0.41056441671E+02  0.78545837195E+02 -0.15115695111E+03  0.24573313355E+03  0.17228252701E+03 0.  0.
        -24    2    5    5    0    0 -0.28972690084E+02  0.44880820763E+01 -0.10139736059E+03  0.13221336771E+03  0.79620287714E+02 0.  0.
          5    1    3    3  501    0  0.20277263006E+02 -0.71347684221E+02  0.19429473431E+01  0.74347323308E+02  0.47000000000E+01 0. -1.
        -13    1    4    4    0    0  0.10362523535E+02 -0.10733242766E+00 -0.57900782304E+02  0.58820863693E+02  0.00000000000E+00 0.  1.
         14    1    4    4    0    0 -0.71696228213E+02 -0.70908205460E+01 -0.43069642419E+02  0.83938209262E+02  0.00000000000E+00 0. -1.
         -5    1    5    5    0  502  0.70029131755E+02  0.74057755118E+02 -0.49759590516E+02  0.11351976584E+03  0.47000000000E+01 0.  1.
         11    1    6    6    0    0 -0.26968778652E+02  0.37530143056E+02 -0.81214082601E+02  0.93442783951E+02  0.00000000000E+00 0. -1.
        -12    1    6    6    0    0 -0.20039114320E+01 -0.33042060980E+02 -0.20183277993E+02  0.38770583764E+02  0.00000000000E+00 0.  1.
</event>
<event>
12    1  0.8271773E-002  0.1821940E+03  0.7818608E-02  0.1165812E+00
         21   -1    0    0  501  502  0.00000000000E+00  0.00000000000E+00  0.45008816776E+03  0.45008816776E+03  0.00000000000E+00 0.  1.
         21   -1    0    0  502  503 -0.00000000000E+00 -0.00000000000E+00 -0.46455542050E+03  0.46455542050E+03  0.00000000000E+00 0.  1.
         -6    2    1    2    0  503 -0.57892674240E+02  0.32501856078E+01 -0.42678968488E+03  0.46386153981E+03  0.17220908095E+03 0.  0.
        -24    2    3    3    0    0 -0.46984419657E+02  0.66364094079E+02 -0.22824641560E+03  0.25518984735E+03  0.80085599716E+02 0.  0.
          6    2    1    2  501    0  0.57892674240E+02 -0.32501856078E+01  0.41232243214E+03  0.45078204844E+03  0.17272099384E+03 0.  0.
         24    2    5    5    0    0  0.19287005089E+02 -0.63864784062E+02  0.29882064112E+03  0.31636004949E+03  0.79619131787E+02 0.  0.
          5    1    5    5  501    0  0.38605669151E+02  0.60614598454E+02  0.11350179102E+03  0.13442199895E+03  0.47000000000E+01 0. -1.
        -13    1    6    6    0    0  0.40009147627E+02 -0.63908200474E+02  0.17119991736E+03  0.18706790662E+03  0.00000000000E+00 0.  1.
         14    1    6    6    0    0 -0.20722142538E+02  0.43416412701E-01  0.12762072376E+03  0.12929214287E+03  0.00000000000E+00 0. -1.
         -5    1    3    3    0  503 -0.10908254583E+02 -0.63113908471E+02 -0.19854326928E+03  0.20867169247E+03  0.47000000000E+01 0.  1.
         13    1    4    4    0    0  0.36406946288E+00 -0.14487484819E+02 -0.68301445227E+02  0.69821967769E+02  0.00000000000E+00 0. -1.
        -14    1    4    4    0    0 -0.47348489120E+02  0.80851578898E+02 -0.15994497037E+03  0.18536787958E+03  0.00000000000E+00 0.  1.
</event>
<event>
12    1  0.8271773E-002  0.2116320E+03  0.7818608E-02  0.1141075E+00
         21   -1    0    0  501  502  0.00000000000E+00  0.00000000000E+00  0.13772476136E+03  0.13772476136E+03  0.00000000000E+00 0. -1.
         21   -1    0    0  502  503 -0.00000000000E+00 -0.00000000000E+00 -0.34397824804E+03  0.34397824804E+03  0.00000000000E+00 0. -1.
         -6    2    1    2    0  503 -0.17441185796E+02  0.11741733440E+03 -0.16886602206E+03  0.27074683349E+03  0.17520584767E+03 0.  0.
        -24    2    3    3    0    0 -0.35779702202E+02  0.13148311923E+03 -0.18624459141E+03  0.24145089249E+03  0.71017518411E+02 0.  0.
          6    2    1    2  501    0  0.17441185796E+02 -0.11741733440E+03 -0.37387464618E+02  0.21095617590E+03  0.17033396684E+03 0.  0.
         24    2    5    5    0    0 -0.21204571571E+02 -0.13045611681E+03  0.51209574362E+00  0.15508157448E+03  0.81127062262E+02 0.  0.
          5    1    5    5  501    0  0.38645757367E+02  0.13038782407E+02 -0.37899560362E+02  0.55874601428E+02  0.47000000000E+01 0. -1.
        -11    1    6    6    0    0 -0.27431721524E+02 -0.26023786538E+02  0.27837718470E+02  0.46953970878E+02  0.00000000000E+00 0.  1.
         12    1    6    6    0    0  0.62271499532E+01 -0.10443233027E+03 -0.27325622726E+02  0.10812760360E+03  0.00000000000E+00 0. -1.
         -5    1    3    3    0  503  0.18338516406E+02 -0.14065784825E+02  0.17378569349E+02  0.29295941005E+02  0.47000000000E+01 0.  1.
         11    1    4    4    0    0 -0.12834611918E+02  0.10315529011E+03 -0.86432583434E+02  0.13518998713E+03  0.00000000000E+00 0. -1.
        -12    1    4    4    0    0 -0.22945090284E+02  0.28327829114E+02 -0.99812007979E+02  0.10626090536E+03  0.00000000000E+00 0.  1.
</event>
<event>
12    1  0.8271773E-002  0.2466731E+03  0.7818608E-02  0.1116977E+00
         21   -1    0    0  501  502  0.00000000000E+00  0.00000000000E+00  0.39453524466E+03  0.39453524466E+03  0.00000000000E+00 0.  1.
         21   -1    0    0  502  503 -0.00000000000E+00 -0.00000000000E+00 -0.27805263679E+03  0.27805263679E+03  0.00000000000E+00 0. -1.
         -6    2    1    2    0  503 -0.16026300696E+03  0.35851990353E+02  0.28727365245E+03  0.37255924264E+03  0.17118598444E+03 0.  0.
        -24    2    3    3    0    0 -0.15755435209E+02 -0.15452685190E+02  0.14043280282E+03  0.16019414864E+03  0.73849671181E+02 0.  0.
          6    2    1    2  501    0  0.16026300696E+03 -0.35851990353E+02 -0.17079104458E+03  0.30002863881E+03  0.18405979078E+03 0.  0.
         24    2    5    5    0    0  0.47149360442E+02 -0.83294935478E+02 -0.91509151363E+02  0.15390116479E+03  0.78425348413E+02 0.  0.
          5    1    5    5  501    0  0.11311364652E+03  0.47442945125E+02 -0.79281893219E+02  0.14612747402E+03  0.47000000000E+01 0. -1.
        -13    1    6    6    0    0  0.65667999680E+02 -0.50203593619E+02 -0.45766161119E+02  0.94484011863E+02  0.00000000000E+00 0.  1.
         14    1    6    6    0    0 -0.18518639238E+02 -0.33091341859E+02 -0.45742990244E+02  0.59417152925E+02  0.00000000000E+00 0. -1.
         -5    1    3    3    0  503 -0.14450757175E+03  0.51304675542E+02  0.14684084963E+03  0.21236509400E+03  0.47000000000E+01 0.  1.
         11    1    4    4    0    0 -0.17075505580E+02 -0.36007555808E+02  0.35853754926E+02  0.53606051042E+02  0.00000000000E+00 0. -1.
        -12    1    4    4    0    0  0.13200703712E+01  0.20554870618E+02  0.10457904789E+03  0.10658809760E+03  0.00000000000E+00 0.  1.
</event>
<event>
12    1  0.8271773E-002  0.1773627E+03  0.7818608E-02  0.1171210E+00
         21   -1    0    0  503  502  0.00000000000E+00  0.00000000000E+00  0.26390101452E+03  0.26390101452E+03  0.00000000000E+00 0. -1.
         21   -1    0    0  501  503 -0.00000000000E+00 -0.00000000000E+00 -0.12066368939E+03  0.12066368939E+03  0.00000000000E+00 0. -1.
          6    2    1    2  501    0 -0.13748422198E+02  0.29610171753E+02  0.38650984784E+02  0.18152528317E+03  0.17433229311E+03 0.  0.
         24    2    3    3    0    0 -0.19113965544E+02  0.83574796841E+02  0.47791318903E+02  0.12632921878E+03  0.79529686342E+02 0.  0.
         -6    2    1    2    0  502  0.13748422198E+02 -0.29610171753E+02  0.10458634035E+03  0.20303942074E+03  0.17094128350E+03 0.  0.
        -24    2    5    5    0    0  0.21685711905E+02  0.65892564052E+01  0.13383750553E+03  0.15559345325E+03  0.76047067048E+02 0.  0.
          5    1    3    3  501    0  0.53655433455E+01 -0.53964625088E+02 -0.91403341191E+01  0.55196064390E+02  0.47000000000E+01 0. -1.
        -13    1    4    4    0    0  0.12904157929E+02  0.29781008078E+02  0.54434672661E+02  0.63376330927E+02  0.00000000000E+00 0.  1.
         14    1    4    4    0    0 -0.32018123473E+02  0.53793788763E+02 -0.66433537576E+01  0.62952887855E+02  0.00000000000E+00 0. -1.
         -5    1    5    5    0  502 -0.79372897063E+01 -0.36199428158E+02 -0.29251165185E+02  0.47445967495E+02  0.47000000000E+01 0.  1.
         11    1    6    6    0    0 -0.14795093658E+02 -0.41987170214E+01  0.10918231262E+03  0.11026015332E+03  0.00000000000E+00 0. -1.
        -12    1    6    6    0    0  0.36480805562E+02  0.10787973427E+02  0.24655192912E+02  0.45333299932E+02  0.00000000000E+00 0.  1.
</event>
<event>
12    1  0.8271773E-002  0.1937097E+03  0.7818608E-02  0.1155512E+00
         21   -1    0    0  501  502  0.00000000000E+00  0.00000000000E+00  0.57200194521E+03  0.57200194521E+03  0.00000000000E+00 0.  1.
         21   -1    0    0  502  503 -0.00000000000E+00 -0.00000000000E+00 -0.70794176816E+02  0.70794176816E+02  0.00000000000E+00 0. -1.
         -6    2    1    2    0  503 -0.68884874294E+02 -0.56527006805E+02  0.16007456011E+03  0.25129126949E+03  0.17199711894E+03 0.  0.
        -24    2    3    3    0    0 -0.62334081666E+02 -0.30190731667E+02  0.18880895646E+02  0.10743629684E+03  0.79931543472E+02 0.  0.
          6    2    1    2  501    0  0.68884874294E+02  0.56527006805E+02  0.34113320828E+03  0.39150485253E+03  0.17018741246E+03 0.  0.
         24    2    5    5    0    0  0.39053519694E+02  0.98764653104E+02  0.29183830545E+03  0.31990872186E+03  0.76761707193E+02 0.  0.
          5    1    5    5  501    0  0.29831354600E+02 -0.42237646299E+02  0.49294902825E+02  0.71596130669E+02  0.47000000000E+01 0. -1.
        -11    1    6    6    0    0  0.12006863604E+02  0.29565487680E+02  0.19632335374E+03  0.19889982920E+03  0.00000000000E+00 0.  1.
         12    1    6    6    0    0  0.27046656091E+02  0.69199165424E+02  0.95514951717E+02  0.12100889266E+03  0.00000000000E+00 0. -1.
         -5    1    3    3    0  503 -0.65507926289E+01 -0.26336275138E+02  0.14119366447E+03  0.14385497266E+03  0.47000000000E+01 0.  1.
         13    1    4    4    0    0  0.29406055244E+01  0.66909280932E+01 -0.21197905140E+02  0.22422463333E+02  0.00000000000E+00 0. -1.
        -14    1    4    4    0    0 -0.65274687190E+02 -0.36881659760E+02  0.40078800786E+02  0.85013833503E+02  0.00000000000E+00 0.  1.
</event>
<event>
12    1  0.8271773E-002  0.2042889E+03  0.7818608E-02  0.1146571E+00
         21   -1    0    0  501  502  0.00000000000E+00  0.00000000000E+00  0.65330874734E+03  0.65330874734E+03  0.00000000000E+00 0.  1.
         21   -1    0    0  502  503 -0.00000000000E+00 -0.00000000000E+00 -0.96396499658E+02  0.96396499658E+02  0.00000000000E+00 0. -1.
         -6    2    1    2    0  503  0.10183672013E+03  0.33034596798E+02  0.59602787936E+02  0.21280615751E+03  0.17398840821E+03 0.  0.
        -24    2    3    3    0    0  0.94284462903E+02  0.14292426005E+01  0.10181846679E+03  0.15932542692E+03  0.78268696197E+02 0.  0.
          6    2    1    2  501    0 -0.10183672013E+03 -0.33034596798E+02  0.49730945975E+03  0.53689908949E+03  0.17170303255E+03 0.  0.
         24    2    5    5    0    0 -0.77814477860E+02 -0.43487503482E+02  0.49602302598E+03  0.51025183271E+03  0.79823771925E+02 0.  0.
          5    1    5    5  501    0 -0.24022242273E+02  0.10452906684E+02  0.12864337721E+01  0.26647256779E+02  0.47000000000E+01 0. -1.
        -13    1    6    6    0    0 -0.51676561815E+01 -0.46364555114E+02  0.21185425106E+03  0.21692994338E+03  0.00000000000E+00 0.  1.
         14    1    6    6    0    0 -0.72646821679E+02  0.28770516315E+01  0.28416877491E+03  0.29332188933E+03  0.00000000000E+00 0. -1.
         -5    1    3    3    0  503  0.75522572304E+01  0.31605354198E+02 -0.42215678854E+02  0.53480730589E+02  0.47000000000E+01 0.  1.
         13    1    4    4    0    0  0.72793196415E+01  0.16401015210E+01 -0.13165901765E+02  0.15133386823E+02  0.00000000000E+00 0. -1.
        -14    1    4    4    0    0  0.87005143261E+02 -0.21085892054E+00  0.11498436855E+03  0.14419204010E+03  0.00000000000E+00 0.  1.
</event>
<event>
12    1  0.8271773E-002  0.1918981E+03  0.7818608E-02  0.1157913E+00
         21   -1    0    0  501  502  0.00000000000E+00  0.00000000000E+00  0.18132303593E+04  0.18132303593E+04  0.00000000000E+00 0. -1.
         21   -1    0    0  502  503 -0.00000000000E+00 -0.00000000000E+00 -0.11590220553E+03  0.11590220553E+03  0.00000000000E+00 0.  1.
         -6    2    1    2    0  503  0.82466060861E+02  0.11114881275E+02 -0.27817335862E+02  0.19390376566E+03  0.17291811468E+03 0.  0.
        -24    2    3    3    0    0  0.34512452473E+02 -0.60851113756E+02 -0.12548192361E+02  0.10596122908E+03  0.78589805412E+02 0.  0.
          6    2    1    2  501    0 -0.82466060861E+02 -0.11114881275E+02  0.17251454897E+04  0.17352287992E+04  0.16723586116E+03 0.  0.
         24    2    5    5    0    0 -0.87570412620E+01 -0.11319246190E+02  0.41289655819E+03  0.42090296079E+03  0.80442050762E+02 0.  0.
          5    1    5    5  501    0 -0.73709019599E+02  0.20436491543E+00  0.13122489315E+04  0.13143258384E+04  0.47000000000E+01 0. -1.
        -11    1    6    6    0    0 -0.25552507777E+02 -0.40139866698E+02  0.27034492243E+03  0.27450048568E+03  0.00000000000E+00 0.  1.
         12    1    6    6    0    0  0.16795466515E+02  0.28820620508E+02  0.14255163575E+03  0.14640247511E+03  0.00000000000E+00 0. -1.
         -5    1    3    3    0  503  0.47953608388E+02  0.71965995031E+02 -0.15269143500E+02  0.87942536588E+02  0.47000000000E+01 0.  1.
         13    1    4    4    0    0  0.50683630393E+02 -0.40399028045E+02  0.16546705792E+02  0.66893238293E+02  0.00000000000E+00 0. -1.
        -14    1    4    4    0    0 -0.16171177920E+02 -0.20452085711E+02 -0.29094898154E+02  0.39067990783E+02  0.00000000000E+00 0.  1.
</event>
<event>
12    1  0.8271773E-002  0.2266608E+03  0.7818608E-02  0.1129026E+00
         21   -1    0    0  501  502  0.00000000000E+00  0.00000000000E+00  0.12776761874E+03  0.12776761874E+03  0.00000000000E+00 0. -1.
         21   -1    0    0  502  503 -0.00000000000E+00 -0.00000000000E+00 -0.59215671794E+03  0.59215671794E+03  0.00000000000E+00 0.  1.
         -6    2    1    2    0  503  0.38211101662E+02  0.14243197274E+03 -0.43617169486E+03  0.49151386116E+03  0.17202666411E+03 0.  0.
        -24    2    3    3    0    0  0.90328627762E+02  0.11219064039E+03 -0.32875465262E+03  0.36826092743E+03  0.82404418985E+02 0.  0.
          6    2    1    2  501    0 -0.38211101662E+02 -0.14243197274E+03 -0.28217404342E+02  0.22841047552E+03  0.17212834825E+03 0.  0.
         24    2    5    5    0    0 -0.76331051452E+02 -0.47383089352E+02  0.48381107339E+01  0.12069706929E+03  0.80453642842E+02 0.  0.
          5    1    5    5  501    0  0.38119949790E+02 -0.95048883385E+02 -0.33055515076E+02  0.10771340623E+03  0.47000000000E+01 0. -1.
        -13    1    6    6    0    0 -0.54691782840E+02  0.95773598465E-01 -0.25495878109E+02  0.60342688731E+02  0.00000000000E+00 0.  1.
         14    1    6    6    0    0 -0.21639268613E+02 -0.47478862950E+02  0.30333988843E+02  0.60354380556E+02  0.00000000000E+00 0. -1.
         -5    1    3    3    0  503 -0.52117526100E+02  0.30241332343E+02 -0.10741704224E+03  0.12325293372E+03  0.47000000000E+01 0.  1.
         13    1    4    4    0    0 -0.68067555435E+01 -0.19053327333E+01 -0.61173916831E+02  0.61580924922E+02  0.00000000000E+00 0. -1.
        -14    1    4    4    0    0  0.97135383306E+02  0.11409597313E+03 -0.26758073579E+03  0.30668000251E+03  0.00000000000E+00 0.  1.
</event>
<event>
12    1  0.8271773E-002  0.3160152E+03  0.7818608E-02  0.1077588E+00
         21   -1    0    0  503  502  0.00000000000E+00  0.00000000000E+00  0.68577140410E+02  0.68577140410E+02  0.00000000000E+00 0. -1.
         21   -1    0    0  501  503 -0.00000000000E+00 -0.00000000000E+00 -0.14790380226E+04  0.14790380226E+04  0.00000000000E+00 0.  1.
          6    2    1    2  501    0  0.25371975796E+03  0.76080062521E+02 -0.80928001121E+03  0.86879212023E+03  0.17234767230E+03 0.  0.
         24    2    3    3    0    0  0.23601763051E+03  0.11205725850E+03 -0.73470901002E+03  0.78399443061E+03  0.81171341793E+02 0.  0.
         -6    2    1    2    0  502 -0.25371975796E+03 -0.76080062521E+02 -0.60118087102E+03  0.67882304282E+03  0.17093973291E+03 0.  0.
        -24    2    5    5    0    0 -0.19355552529E+03 -0.11613661185E+03 -0.50181726845E+03  0.55586175805E+03  0.78805260995E+02 0.  0.
          5    1    3    3  501    0  0.17702127442E+02 -0.35977195984E+02 -0.74571001189E+02  0.84797689622E+02  0.47000000000E+01 0. -1.
        -11    1    4    4    0    0  0.93524515286E+02  0.44537717344E+02 -0.41199906044E+03  0.42482192626E+03  0.00000000000E+00 0.  1.
         12    1    4    4    0    0  0.14249311523E+03  0.67519541160E+02 -0.32270994957E+03  0.35917250435E+03  0.00000000000E+00 0. -1.
         -5    1    5    5    0  502 -0.60164232662E+02  0.40056549333E+02 -0.99363602570E+02  0.12296128477E+03  0.47000000000E+01 0.  1.
         11    1    6    6    0    0 -0.13508908301E+03 -0.75758688815E+02 -0.24891376233E+03  0.29316633565E+03  0.00000000000E+00 0. -1.
        -12    1    6    6    0    0 -0.58466442284E+02 -0.40377923038E+02 -0.25290350612E+03  0.26269542240E+03  0.00000000000E+00 0.  1.
</event>
<event>
12    1  0.8271773E-002  0.2846743E+03  0.7818608E-02  0.1093178E+00
         21   -1    0    0  501  502  0.00000000000E+00  0.00000000000E+00  0.13225783784E+03  0.13225783784E+03  0.00000000000E+00 0. -1.
         21   -1    0    0  502  503 -0.00000000000E+00 -0.00000000000E+00 -0.66722318015E+03  0.66722318015E+03  0.00000000000E+00 0. -1.
         -6    2    1    2    0  503  0.53494635919E+02 -0.22026276109E+03 -0.38192264039E+03  0.47627590795E+03  0.17203626727E+03 0.  0.
        -24    2    3    3    0    0  0.42134629180E+01 -0.57352907349E+02 -0.22010284641E+03  0.24138020730E+03  0.80697163694E+02 0.  0.
          6    2    1    2  501    0 -0.53494635919E+02  0.22026276109E+03 -0.15304270192E+03  0.32320511005E+03  0.17222692749E+03 0.  0.
         24    2    5    5    0    0 -0.56874681656E+02  0.23518862054E+03 -0.16413854062E+03  0.30372656735E+03  0.82218918452E+02 0.  0.
          5    1    5    5  501    0  0.33800457364E+01 -0.14925859448E+02  0.11095838694E+02  0.19478542701E+02  0.47000000000E+01 0. -1.
        -11    1    6    6    0    0 -0.54606622775E+02  0.63276893013E+02 -0.50971999298E+02  0.97897871033E+02  0.00000000000E+00 0.  1.
         12    1    6    6    0    0 -0.22680588809E+01  0.17191172752E+03 -0.11316654132E+03  0.20582869631E+03  0.00000000000E+00 0. -1.
         -5    1    3    3    0  503  0.49281173001E+02 -0.16290985374E+03 -0.16181979398E+03  0.23489570065E+03  0.47000000000E+01 0.  1.
         13    1    4    4    0    0 -0.35002660520E+02 -0.84789527356E+01 -0.69962220022E+02  0.78687934992E+02  0.00000000000E+00 0. -1.
        -14    1    4    4    0    0  0.39216123438E+02 -0.48873954614E+02 -0.15014062639E+03  0.16269227231E+03  0.00000000000E+00 0.  1.
</event>
<event>
12    1  0.8271773E-002  0.1747100E+03  0.7818608E-02  0.1173274E+00
         21   -1    0    0  501  502  0.00000000000E+00  0.00000000000E+00  0.39952402316E+03  0.39952402316E+03  0.00000000000E+00 0.  1.
         21   -1    0    0  502  503 -0.00000000000E+00 -0.00000000000E+00 -0.17003769467E+03  0.17003769467E+03  0.00000000000E+00 0.  1.
         -6    2    1    2    0  503 -0.20348235072E+02 -0.99808805249E+01 -0.96930820861E+02  0.19979781288E+03  0.17323369578E+03 0.  0.
        -24    2    3    3    0    0 -0.56833948584E+02 -0.44583770403E+01 -0.97799733046E+01  0.10503988147E+03  0.87679837961E+02 0.  0.
          6    2    1    2  501    0  0.20348235072E+02  0.99808805249E+01  0.32641714936E+03  0.36976390495E+03  0.17223101161E+03 0.  0.
         24    2    5    5    0    0  0.23710487184E+02  0.38808800464E+02  0.32769683993E+03  0.34033464544E+03  0.79838222592E+02 0.  0.
          5    1    5    5  501    0 -0.33622521115E+01 -0.28827919939E+02 -0.12796905748E+01  0.29429259509E+02  0.47000000000E+01 0. -1.
        -11    1    6    6    0    0  0.43601692630E+02  0.49132730258E+02  0.28047304650E+03  0.28806294902E+03  0.00000000000E+00 0.  1.
         12    1    6    6    0    0 -0.19891205446E+02 -0.10323929794E+02  0.47223793429E+02  0.52271696417E+02  0.00000000000E+00 0. -1.
         -5    1    3    3    0  503  0.36485713511E+02 -0.55225034846E+01 -0.87150847556E+02  0.94757931409E+02  0.47000000000E+01 0.  1.
         11    1    4    4    0    0 -0.21445164985E+02 -0.25076640097E+02  0.32402070517E+02  0.46245293313E+02  0.00000000000E+00 0. -1.
        -12    1    4    4    0    0 -0.35388783598E+02  0.20618263057E+02 -0.42182043822E+02  0.58794588161E+02  0.00000000000E+00 0.  1.
</event>
<event>
12    1  0.8271773E-002  0.1765264E+03  0.7818608E-02  0.1171363E+00
         21   -1    0    0  503  502  0.00000000000E+00  0.00000000000E+00  0.31639173215E+03  0.31639173215E+03  0.00000000000E+00 0. -1.
         21   -1    0    0  501  503 -0.00000000000E+00 -0.00000000000E+00 -0.10594655324E+03  0.10594655324E+03  0.00000000000E+00 0. -1.
          6    2    1    2  501    0 -0.21120580797E+02  0.36727666058E+02  0.48085001001E+02  0.18295832118E+03  0.17136679836E+03 0.  0.
         24    2    3    3    0    0  0.20067736918E+02  0.64958958820E+02 -0.13568444156E+02  0.10348052109E+03  0.76822751659E+02 0.  0.
         -6    2    1    2    0  502  0.21120580797E+02 -0.36727666058E+02  0.16236017791E+03  0.23937996421E+03  0.17072474779E+03 0.  0.
        -24    2    5    5    0    0  0.63699453143E+02  0.31887667031E+01  0.14461174569E+03  0.17819680623E+03  0.82302832230E+02 0.  0.
          5    1    3    3  501    0 -0.41188317715E+02 -0.28231292763E+02  0.61653445157E+02  0.79477800089E+02  0.47000000000E+01 0. -1.
        -11    1    4    4    0    0  0.28896444665E+02 -0.72527971468E+01 -0.53348131647E+01  0.30266612169E+02  0.00000000000E+00 0.  1.
         12    1    4    4    0    0 -0.88287077468E+01  0.72211755967E+02 -0.82336309910E+01  0.73213908922E+02  0.00000000000E+00 0. -1.
         -5    1    5    5    0  502 -0.42578872346E+02 -0.39916432761E+02  0.17748432213E+02  0.61183157981E+02  0.47000000000E+01 0.  1.
         13    1    6    6    0    0  0.48494966785E+02 -0.37059665942E+02  0.87879142217E+02  0.10699497315E+03  0.00000000000E+00 0. -1.
        -14    1    6    6    0    0  0.15204486357E+02  0.40248432645E+02  0.56732603475E+02  0.71201833073E+02  0.00000000000E+00 0.  1.
</event>
<event>
12    1  0.8271773E-002  0.2182563E+03  0.7818608E-02  0.1136238E+00
         21   -1    0    0  503  502  0.00000000000E+00  0.00000000000E+00  0.56622194548E+03  0.56622194548E+03  0.00000000000E+00 0.  1.
         21   -1    0    0  501  503 -0.00000000000E+00 -0.00000000000E+00 -0.11443938008E+03  0.11443938008E+03  0.00000000000E+00 0. -1.
          6    2    1    2  501    0 -0.10520534285E+03  0.76615455809E+02  0.46841242985E+02  0.22322615018E+03  0.17520764779E+03 0.  0.
         24    2    3    3    0    0 -0.10959312711E+02 -0.11843961838E+02 -0.28460546058E+02  0.73560415286E+02  0.65884338412E+02 0.  0.
         -6    2    1    2    0  502  0.10520534285E+03 -0.76615455809E+02  0.40494132241E+03  0.45743517538E+03  0.16831925870E+03 0.  0.
        -24    2    5    5    0    0  0.11266586062E+03 -0.96950091419E+02  0.25442100329E+03  0.30529177855E+03  0.79875570494E+02 0.  0.
          5    1    3    3  501    0 -0.94246030141E+02  0.88459417647E+02  0.75301789043E+02  0.14966573489E+03  0.47000000000E+01 0. -1.
        -13    1    4    4    0    0  0.11590999538E+02 -0.33948639026E+02 -0.11239411831E+02  0.37592362792E+02  0.00000000000E+00 0.  1.
         14    1    4    4    0    0 -0.22550312249E+02  0.22104677188E+02 -0.17221134227E+02  0.35968052494E+02  0.00000000000E+00 0. -1.
         -5    1    5    5    0  502 -0.74605177651E+01  0.20334635610E+02  0.15052031912E+03  0.15214339683E+03  0.47000000000E+01 0.  1.
         13    1    6    6    0    0  0.32703757832E+02 -0.80491352496E+02  0.12337626099E+03  0.15089763212E+03  0.00000000000E+00 0. -1.
        -14    1    6    6    0    0  0.79962102785E+02 -0.16458738924E+02  0.13104474230E+03  0.15439414643E+03  0.00000000000E+00 0.  1.
</event>
<event>
12    1  0.8271773E-002  0.1790154E+03  0.7818608E-02  0.1168848E+00
         21   -1    0    0  501  502  0.00000000000E+00  0.00000000000E+00  0.35909697669E+03  0.35909697669E+03  0.00000000000E+00 0. -1.
         21   -1    0    0  502  503 -0.00000000000E+00 -0.00000000000E+00 -0.13942854835E+03  0.13942854835E+03  0.00000000000E+00 0. -1.
         -6    2    1    2    0  503  0.40936374635E+02  0.23720728979E+02 -0.40052609132E+02  0.18308686942E+03  0.17227341787E+03 0.  0.
        -24    2    3    3    0    0  0.21524832711E+02  0.14632055143E+02  0.44934220330E+02  0.95312937451E+02  0.79925317816E+02 0.  0.
          6    2    1    2  501    0 -0.40936374635E+02 -0.23720728979E+02  0.25972103747E+03  0.31543865562E+03  0.17265013294E+03 0.  0.
         24    2    5    5    0    0 -0.55595370997E+02  0.43039316309E+02  0.18498728604E+03  0.21405318613E+03  0.81579669472E+02 0.  0.
          5    1    5    5  501    0  0.14658996362E+02 -0.66760045288E+02  0.74733751425E+02  0.10138546949E+03  0.47000000000E+01 0. -1.
        -11    1    6    6    0    0  0.63250671165E+01  0.36090333461E+02  0.11327105561E+03  0.11904978237E+03  0.00000000000E+00 0.  1.
         12    1    6    6    0    0 -0.61920438114E+02  0.69489828477E+01  0.71716230431E+02  0.95003403760E+02  0.00000000000E+00 0. -1.
         -5    1    3    3    0  503  0.19411541924E+02  0.90886738363E+01 -0.84986829462E+02  0.87773931973E+02  0.47000000000E+01 0.  1.
         13    1    4    4    0    0  0.40754282321E+01 -0.18090002230E+02 -0.15660230455E+02  0.24271384671E+02  0.00000000000E+00 0. -1.
        -14    1    4    4    0    0  0.17449404479E+02  0.32722057373E+02  0.60594450785E+02  0.71041552779E+02  0.00000000000E+00 0.  1.
</event>
<event>
12    1  0.8271773E-002  0.2370132E+03  0.7818608E-02  0.1121833E+00
         21   -1    0    0  501  502  0.00000000000E+00  0.00000000000E+00  0.85241381959E+02  0.85241381959E+02  0.00000000000E+00 0.  1.
         21   -1    0    0  502  503 -0.00000000000E+00 -0.00000000000E+00 -0.75179385472E+03  0.75179385472E+03  0.00000000000E+00 0.  1.
         -6    2    1    2    0  503  0.23933069216E+02 -0.16192460093E+03 -0.48087787540E+03  0.53611452320E+03  0.17141435984E+03 0.  0.
        -24    2    3    3    0    0  0.27343928023E+02 -0.99406337900E+02 -0.14882646937E+03  0.19817903615E+03  0.80599640005E+02 0.  0.
          6    2    1    2  501    0 -0.23933069216E+02  0.16192460093E+03 -0.18567459737E+03  0.30092071347E+03  0.17113109449E+03 0.  0.
         24    2    5    5    0    0  0.36266571256E+02  0.14642305343E+03 -0.15844484475E+03  0.23289245379E+03  0.79869590204E+02 0.  0.
          5    1    5    5  501    0 -0.60199640472E+02  0.15501547502E+02 -0.27229752611E+02  0.68028259681E+02  0.47000000000E+01 0. -1.
        -11    1    6    6    0    0 -0.19687762732E+02  0.80532047045E+02 -0.92150910854E+02  0.12395486668E+03  0.00000000000E+00 0.  1.
         12    1    6    6    0    0  0.55954333987E+02  0.65891006381E+02 -0.66293933900E+02  0.10893758711E+03  0.00000000000E+00 0. -1.
         -5    1    3    3    0  503 -0.34108588065E+01 -0.62518263027E+02 -0.33205140602E+03  0.33793548705E+03  0.47000000000E+01 0.  1.
         13    1    4    4    0    0 -0.80285599143E+01 -0.29437826107E+02 -0.62751704111E+00  0.30519455399E+02  0.00000000000E+00 0. -1.
        -14    1    4    4    0    0  0.35372487937E+02 -0.69968511793E+02 -0.14819895233E+03  0.16765958075E+03  0.00000000000E+00 0.  1.
</event>
<event>
12    1  0.8271773E-002  0.2235909E+03  0.7818608E-02  0.1131353E+00
         21   -1    0    0  503  502  0.00000000000E+00  0.00000000000E+00  0.61469527458E+02  0.61469527458E+02  0.00000000000E+00 0.  1.
         21   -1    0    0  501  503 -0.00000000000E+00 -0.00000000000E+00 -0.30248141022E+04  0.30248141022E+04  0.00000000000E+00 0. -1.
          6    2    1    2  501    0  0.14055786471E+01  0.14198892438E+03 -0.28012753272E+04  0.28101327002E+04  0.17187060083E+03 0.  0.
         24    2    3    3    0    0 -0.56216279728E+02  0.97724122900E+02 -0.13080232683E+04  0.13151064620E+04  0.76615023468E+02 0.  0.
         -6    2    1    2    0  502 -0.14055786471E+01 -0.14198892438E+03 -0.16206924751E+03  0.27615092946E+03  0.17271382272E+03 0.  0.
        -24    2    5    5    0    0  0.15115876241E+02 -0.15091030351E+03 -0.74265298096E+02  0.18623890018E+03  0.78531420602E+02 0.  0.
          5    1    3    3  501    0  0.57621858375E+02  0.44264801481E+02 -0.14932520589E+04  0.14950262381E+04  0.47000000000E+01 0. -1.
        -11    1    4    4    0    0 -0.13454812349E+02 -0.57322475206E+01 -0.49528848437E+02  0.51642980787E+02  0.00000000000E+00 0.  1.
         12    1    4    4    0    0 -0.42761467378E+02  0.10345637042E+03 -0.12584944198E+04  0.12634634813E+04  0.00000000000E+00 0. -1.
         -5    1    5    5    0  502 -0.16521454888E+02  0.89213791249E+01 -0.87803949411E+02  0.89912029280E+02  0.47000000000E+01 0.  1.
         11    1    6    6    0    0 -0.93146926337E+01 -0.26992307280E+02 -0.50068738013E+02  0.57638760200E+02  0.00000000000E+00 0. -1.
        -12    1    6    6    0    0  0.24430568875E+02 -0.12391799622E+03 -0.24196560082E+02  0.12860013998E+03  0.00000000000E+00 0.  1.
</event>
<event>
12    1  0.8271773E-002  0.2056433E+03  0.7818608E-02  0.1145465E+00
         21   -1    0    0  503  502  0.00000000000E+00  0.00000000000E+00  0.11560686410E+03  0.11560686410E+03  0.00000000000E+00 0.  1.
         21   -1    0    0  501  503 -0.00000000000E+00 -0.00000000000E+00 -0.11429246404E+04  0.11429246404E+04  0.00000000000E+00 0. -1.
          6    2    1    2  501    0  0.23732884178E+02  0.10015406566E+03 -0.10329223968E+04  0.10528118244E+04  0.17575543542E+03 0.  0.
         24    2    3    3    0    0 -0.59156765677E+01  0.22493644600E+02 -0.20426079558E+03  0.21997791688E+03  0.78274210468E+02 0.  0.
         -6    2    1    2    0  502 -0.23732884178E+02 -0.10015406566E+03  0.56046204555E+01  0.20571968017E+03  0.17803114441E+03 0.  0.
        -24    2    5    5    0    0 -0.74489407361E+02 -0.20600875658E+02  0.17996521788E+00  0.11108114906E+03  0.79786724479E+02 0.  0.
          5    1    3    3  501    0  0.29648560746E+02  0.77660421058E+02 -0.82866160120E+03  0.83283390749E+03  0.47000000000E+01 0. -1.
        -11    1    4    4    0    0  0.47023628959E+01  0.50385168750E+02 -0.14594300455E+03  0.15446727170E+03  0.00000000000E+00 0.  1.
         12    1    4    4    0    0 -0.10618039464E+02 -0.27891524150E+02 -0.58317791030E+02  0.65510645181E+02  0.00000000000E+00 0. -1.
         -5    1    5    5    0  502  0.50756523183E+02 -0.79553190000E+02  0.54246552377E+01  0.94638531102E+02  0.47000000000E+01 0.  1.
         13    1    6    6    0    0 -0.54736728750E+00  0.23296664050E+02 -0.81515052640E+01  0.24687673136E+02  0.00000000000E+00 0. -1.
        -14    1    6    6    0    0 -0.73942040074E+02 -0.43897539708E+02  0.83314704819E+01  0.86393475929E+02  0.00000000000E+00 0.  1.
</event>
<event>
12    1  0.8271773E-002  0.1966941E+03  0.7818608E-02  0.1152707E+00
         21   -1    0    0  503  502  0.00000000000E+00  0.00000000000E+00  0.50604331311E+03  0.50604331311E+03  0.00000000000E+00 0. -1.
         21   -1    0    0  501  503 -0.00000000000E+00 -0.00000000000E+00 -0.84913111294E+02  0.84913111294E+02  0.00000000000E+00 0.  1.
          6    2    1    2  501    0  0.64787952153E+02  0.69795075277E+02  0.30561754055E+03  0.36344279360E+03  0.17210389841E+03 0.  0.
         24    2    3    3    0    0 -0.33676812823E+02  0.26664216990E+02  0.15683914449E+03  0.17983265768E+03  0.76786452793E+02 0.  0.
         -6    2    1    2    0  502 -0.64787952153E+02 -0.69795075277E+02  0.11551266126E+03  0.22751363081E+03  0.17131971870E+03 0.  0.
        -24    2    5    5    0    0 -0.49039218681E+02 -0.86789005055E+02  0.25669907396E+02  0.13461246463E+03  0.86743271323E+02 0.  0.
          5    1    3    3  501    0  0.98464764976E+02  0.43130858287E+02  0.14877839606E+03  0.18361013592E+03  0.47000000000E+01 0. -1.
        -13    1    4    4    0    0  0.13060232487E+02  0.32292169309E+02  0.35745933005E+02  0.49911177083E+02  0.00000000000E+00 0.  1.
         14    1    4    4    0    0 -0.46737045311E+02 -0.56279523194E+01  0.12109321149E+03  0.12992148060E+03  0.00000000000E+00 0. -1.
         -5    1    5    5    0  502 -0.15748733471E+02  0.16993929778E+02  0.89842753867E+02  0.92901166180E+02  0.47000000000E+01 0.  1.
         11    1    6    6    0    0 -0.40941239691E+02 -0.81580938499E+02  0.53060042901E+02  0.10557936724E+03  0.00000000000E+00 0. -1.
        -12    1    6    6    0    0 -0.80979789903E+01 -0.52080665554E+01 -0.27390135505E+02  0.29033097388E+02  0.00000000000E+00 0.  1.
</event>
<event>
12    1  0.8271773E-002  0.2087554E+03  0.7818608E-02  0.1142661E+00
         21   -1    0    0  501  502  0.00000000000E+00  0.00000000000E+00  0.27971883715E+03  0.27971883715E+03  0.00000000000E+00 0. -1.
         21   -1    0    0  502  503 -0.00000000000E+00 -0.00000000000E+00 -0.25125325593E+03  0.25125325593E+03  0.00000000000E+00 0. -1.
         -6    2    1    2    0  503 -0.12762459818E+02  0.11710360793E+03 -0.14975598764E+03  0.25648759914E+03  0.17170584530E+03 0.  0.
        -24    2    3    3    0    0 -0.30774705710E+02  0.11790817083E+03 -0.46911070352E+02  0.15196843661E+03  0.77745340348E+02 0.  0.
          6    2    1    2  501    0  0.12762459818E+02 -0.11710360793E+03  0.17822156886E+03  0.27448449394E+03  0.17234463855E+03 0.  0.
         24    2    5    5    0    0 -0.11031046852E+02 -0.15854936913E+02  0.13955085472E+03  0.16342172577E+03  0.82820024044E+02 0.  0.
          5    1    5    5  501    0  0.23793506669E+02 -0.10124867101E+03  0.38670714144E+02  0.11106276817E+03  0.47000000000E+01 0. -1.
        -11    1    6    6    0    0  0.20230745995E+02 -0.18177424053E+01  0.61446012271E+00  0.20321536168E+02  0.00000000000E+00 0.  1.
         12    1    6    6    0    0 -0.31261792847E+02 -0.14037194508E+02  0.13893639459E+03  0.14310018960E+03  0.00000000000E+00 0. -1.
         -5    1    3    3    0  503  0.18012245892E+02 -0.80456290363E+00 -0.10284491729E+03  0.10451916253E+03  0.47000000000E+01 0.  1.
         13    1    4    4    0    0 -0.48710301208E+02  0.40952865159E+02 -0.33172598336E+02  0.71765255443E+02  0.00000000000E+00 0. -1.
        -14    1    4    4    0    0  0.17935595499E+02  0.76955305670E+02 -0.13738472017E+02  0.80203181171E+02  0.00000000000E+00 0.  1.
</event>
<event>
12    1  0.8271773E-002  0.2250064E+03  0.7818608E-02  0.1130519E+00
         21   -1    0    0  501  502  0.00000000000E+00  0.00000000000E+00  0.49837134528E+02  0.49837134528E+02  0.00000000000E+00 0. -1.
         21   -1    0    0  502  503 -0.00000000000E+00 -0.00000000000E+00 -0.16705616577E+04  0.16705616577E+04  0.00000000000E+00 0. -1.
         -6    2    1    2    0  503  0.14465338848E+03  0.13586990007E+02 -0.13501691175E+04  0.13685065994E+04  0.16954190537E+03 0.  0.
        -24    2    3    3    0    0  0.27408137966E+02  0.47323019324E+02 -0.54820770067E+03  0.55730454534E+03  0.84059496771E+02 0.  0.
          6    2    1    2  501    0 -0.14465338848E+03 -0.13586990007E+02 -0.27055540572E+03  0.35189219286E+03  0.17181000768E+03 0.  0.
         24    2    5    5    0    0 -0.12437466551E+03 -0.63798261425E+02 -0.15119261850E+03  0.22073593737E+03  0.79535341679E+02 0.  0.
          5    1    5    5  501    0 -0.20278722974E+02  0.50211271418E+02 -0.11936278722E+03  0.13115625550E+03  0.47000000000E+01 0. -1.
        -11    1    6    6    0    0 -0.25209306298E+02 -0.20579979112E+02  0.26704605055E+01  0.32652350966E+02  0.00000000000E+00 0.  1.
         12    1    6    6    0    0 -0.99165359210E+02 -0.43218282313E+02 -0.15386307900E+03  0.18808358640E+03  0.00000000000E+00 0. -1.
         -5    1    3    3    0  503  0.11724525052E+03 -0.33736029317E+02 -0.80196141680E+03  0.81120205404E+03  0.47000000000E+01 0.  1.
         13    1    4    4    0    0  0.36911462145E+02 -0.10507578394E+02 -0.15120670310E+03  0.15600106508E+03  0.00000000000E+00 0. -1.
        -14    1    4    4    0    0 -0.95033241787E+01  0.57830597718E+02 -0.39700099757E+03  0.40130348026E+03  0.00000000000E+00 0.  1.
</event>
<event>
12    1  0.8271773E-002  0.2729316E+03  0.7818608E-02  0.1099910E+00
         21   -1    0    0  503  502  0.00000000000E+00  0.00000000000E+00  0.61045878820E+03  0.61045878820E+03  0.00000000000E+00 0. -1.
         21   -1    0    0  501  503 -0.00000000000E+00 -0.00000000000E+00 -0.17291327851E+03  0.17291327851E+03  0.00000000000E+00 0.  1.
          6    2    1    2  501    0  0.18570948988E+02 -0.20934866954E+03  0.37595032245E+01  0.27086651570E+03  0.17082971018E+03 0.  0.
         24    2    3    3    0    0  0.73079686681E+02 -0.17464269452E+03 -0.83588061650E+01  0.20495255201E+03  0.78070273348E+02 0.  0.
         -6    2    1    2    0  502 -0.18570948988E+02  0.20934866954E+03  0.43378600646E+03  0.51250555100E+03  0.17412608885E+03 0.  0.
        -24    2    5    5    0    0  0.96307241491E+01  0.22343798388E+03  0.40511750091E+03  0.46963579060E+03  0.80126791894E+02 0.  0.
          5    1    3    3  501    0 -0.54508737693E+02 -0.34705975015E+02  0.12118309390E+02  0.65913963688E+02  0.47000000000E+01 0. -1.
        -11    1    4    4    0    0 -0.42642222364E+01 -0.87964369377E+02 -0.11011281733E+02  0.88753378508E+02  0.00000000000E+00 0.  1.
         12    1    4    4    0    0  0.77343908917E+02 -0.86678325147E+02  0.26524755684E+01  0.11619917351E+03  0.00000000000E+00 0. -1.
         -5    1    5    5    0  502 -0.28201673137E+02 -0.14089314341E+02  0.28668505557E+02  0.42869760405E+02  0.47000000000E+01 0.  1.
         13    1    6    6    0    0 -0.16170321628E+02  0.16287521181E+03  0.33842098872E+03  0.37592363524E+03  0.00000000000E+00 0. -1.
        -14    1    6    6    0    0  0.25801045777E+02  0.60562772071E+02  0.66696512188E+02  0.93712155360E+02  0.00000000000E+00 0.  1.
</event>
<event>
12    1  0.8271773E-002  0.1827592E+03  0.7818608E-02  0.1165258E+00
         21   -1    0    0  501  502  0.00000000000E+00  0.00000000000E+00  0.16286879589E+03  0.16286879589E+03  0.00000000000E+00 0.  1.
         21   -1    0    0  502  503 -0.00000000000E+00 -0.00000000000E+00 -0.62190259703E+03  0.62190259703E+03  0.00000000000E+00 0.  1.
         -6    2    1    2    0  503 -0.28053516456E+02  0.55372618848E+02 -0.55102180551E+03  0.58053935919E+03  0.17189470824E+03 0.  0.
        -24    2    3    3    0    0  0.32840923400E+02  0.15271123172E+02 -0.16191172051E+03  0.18462900190E+03  0.80998331174E+02 0.  0.
          6    2    1    2  501    0  0.28053516456E+02 -0.55372618848E+02  0.91988004371E+02  0.20423203372E+03  0.17145204562E+03 0.  0.
         24    2    5    5    0    0  0.52910065572E+02  0.18163355443E+02  0.84527846732E+02  0.12610949216E+03  0.75028425406E+02 0.  0.
          5    1    5    5  501    0 -0.24856549116E+02 -0.73535974291E+02  0.74601576393E+01  0.78122541567E+02  0.47000000000E+01 0. -1.
        -13    1    6    6    0    0  0.97603542982E+01 -0.13629762964E+02  0.67978529611E+02  0.70015108674E+02  0.00000000000E+00 0.  1.
         14    1    6    6    0    0  0.43149711274E+02  0.31793118407E+02  0.16549317120E+02  0.56094383482E+02  0.00000000000E+00 0. -1.
         -5    1    3    3    0  503 -0.60894439856E+02  0.40101495676E+02 -0.38911008500E+03  0.39591035729E+03  0.47000000000E+01 0.  1.
         11    1    4    4    0    0 -0.21058048642E+02  0.51273560204E+01 -0.11511209603E+02  0.24540561096E+02  0.00000000000E+00 0. -1.
        -12    1    4    4    0    0  0.53898972042E+02  0.10143767152E+02 -0.15040051091E+03  0.16008844081E+03  0.00000000000E+00 0.  1.
</event>
<event>
12    1  0.8271773E-002  0.2276149E+03  0.7818608E-02  0.1128743E+00
         21   -1    0    0  501  502  0.00000000000E+00  0.00000000000E+00  0.23291625130E+03  0.23291625130E+03  0.00000000000E+00 0.  1.
         21   -1    0    0  502  503 -0.00000000000E+00 -0.00000000000E+00 -0.50291147896E+03  0.50291147896E+03  0.00000000000E+00 0. -1.
         -6    2    1    2    0  503 -0.14274751752E+03 -0.21503747881E+02 -0.41055030838E+03  0.46831269779E+03  0.17299122021E+03 0.  0.
        -24    2    3    3    0    0 -0.57203802068E+02 -0.49618856535E+02 -0.32771368907E+03  0.34587013131E+03  0.80595160107E+02 0.  0.
          6    2    1    2  501    0  0.14274751752E+03  0.21503747881E+02  0.14055508072E+03  0.26751503247E+03  0.17598095622E+03 0.  0.
         24    2    5    5    0    0  0.20969586449E+02 -0.24346939372E+02  0.16895695814E+02  0.87943644181E+02  0.80100705379E+02 0.  0.
          5    1    5    5  501    0  0.12177793107E+03  0.45850687253E+02  0.12365938491E+03  0.17957138829E+03  0.47000000000E+01 0. -1.
        -11    1    6    6    0    0  0.49247202556E+02 -0.22578596007E+02  0.23172145257E+02  0.58923919362E+02  0.00000000000E+00 0.  1.
         12    1    6    6    0    0 -0.28277616107E+02 -0.17683433645E+01 -0.62764494431E+01  0.29019724819E+02  0.00000000000E+00 0. -1.
         -5    1    3    3    0  503 -0.85543715447E+02  0.28115108653E+02 -0.82836619306E+02  0.12244256648E+03  0.47000000000E+01 0.  1.
         13    1    4    4    0    0  0.67846057532E+01 -0.40970960122E+02 -0.17880824016E+03  0.18356752763E+03  0.00000000000E+00 0. -1.
        -14    1    4    4    0    0 -0.63988407822E+02 -0.86478964124E+01 -0.14890544891E+03  0.16230260368E+03  0.00000000000E+00 0.  1.
</event>
<event>
12    1  0.8271773E-002  0.2253574E+03  0.7818608E-02  0.1130232E+00
         21   -1    0    0  501  502  0.00000000000E+00  0.00000000000E+00  0.34917106369E+03  0.34917106369E+03  0.00000000000E+00 0.  1.
         21   -1    0    0  502  503 -0.00000000000E+00 -0.00000000000E+00 -0.35753923486E+03  0.35753923486E+03  0.00000000000E+00 0.  1.
         -6    2    1    2    0  503 -0.96418118829E+02  0.10650572172E+03 -0.27698168419E+03  0.35707813847E+03  0.17362609597E+03 0.  0.
        -24    2    3    3    0    0 -0.55830151693E+02  0.30099689468E+02 -0.24331728395E+03  0.26412305962E+03  0.80837446840E+02 0.  0.
          6    2    1    2  501    0  0.96418118829E+02 -0.10650572172E+03  0.26861351301E+03  0.34963216008E+03  0.17160858252E+03 0.  0.
         24    2    5    5    0    0  0.65877851455E+02 -0.60268940926E+02  0.26854043455E+03  0.29402062198E+03  0.79761673821E+02 0.  0.
          5    1    5    5  501    0  0.30540267374E+02 -0.46236780791E+02  0.73078462535E-01  0.55611538098E+02  0.47000000000E+01 0. -1.
        -13    1    6    6    0    0  0.46179971769E+02 -0.70305727482E+02  0.13795320756E+03  0.16157528458E+03  0.00000000000E+00 0.  1.
         14    1    6    6    0    0  0.19697879686E+02  0.10036786556E+02  0.13058722699E+03  0.13244533741E+03  0.00000000000E+00 0. -1.
         -5    1    3    3    0  503 -0.40587967136E+02  0.76406032249E+02 -0.33664400240E+02  0.92955078849E+02  0.47000000000E+01 0.  1.
         11    1    4    4    0    0 -0.12745704953E+02 -0.18557186487E+02 -0.14185924242E+03  0.14363449037E+03  0.00000000000E+00 0. -1.
        -12    1    4    4    0    0 -0.43084446740E+02  0.48656875955E+02 -0.10145804153E+03  0.12048856925E+03  0.00000000000E+00 0.  1.
</event>
<event>
12    1  0.8271773E-002  0.2220319E+03  0.7818608E-02  0.1133923E+00
         21   -1    0    0  503  502  0.00000000000E+00  0.00000000000E+00  0.40421166549E+02  0.40421166549E+02  0.00000000000E+00 0.  1.
         21   -1    0    0  501  503 -0.00000000000E+00 -0.00000000000E+00 -0.12131874820E+04  0.12131874820E+04  0.00000000000E+00 0.  1.
          6    2    1    2  501    0 -0.18341805811E+02  0.12754914706E+03 -0.68707959294E+03  0.71957703006E+03  0.17060928580E+03 0.  0.
         24    2    3    3    0    0  0.27851016634E+02  0.14006758710E+03 -0.56972711129E+03  0.59275359715E+03  0.79832559222E+02 0.  0.
         -6    2    1    2    0  502  0.18341805811E+02 -0.12754914706E+03 -0.48568672249E+03  0.53403161846E+03  0.18081197516E+03 0.  0.
        -24    2    5    5    0    0  0.11854866655E+02 -0.39298104788E+02 -0.40309415995E+03  0.41289554527E+03  0.79454078657E+02 0.  0.
          5    1    3    3  501    0 -0.46192822445E+02 -0.12518440031E+02 -0.11735248165E+03  0.12682343291E+03  0.47000000000E+01 0. -1.
        -11    1    4    4    0    0 -0.25304667234E+02  0.76876712914E+02 -0.27166622847E+03  0.28346586191E+03  0.00000000000E+00 0.  1.
         12    1    4    4    0    0  0.53155683868E+02  0.63190874182E+02 -0.29806088282E+03  0.30928773524E+03  0.00000000000E+00 0. -1.
         -5    1    5    5    0  502  0.64869391562E+01 -0.88251042277E+02 -0.82592562541E+02  0.12113607320E+03  0.47000000000E+01 0.  1.
         11    1    6    6    0    0 -0.12096192923E+02  0.18063223315E+02 -0.17983890637E+03  0.18114808904E+03  0.00000000000E+00 0. -1.
        -12    1    6    6    0    0  0.23951059578E+02 -0.57361328103E+02 -0.22325525358E+03  0.23174745623E+03  0.00000000000E+00 0.  1.
</event>
<event>
12    1  0.8271773E-002  0.1842893E+03  0.7818608E-02  0.1164752E+00
         21   -1    0    0  503  502  0.00000000000E+00  0.00000000000E+00  0.66022294573E+03  0.66022294573E+03  0.00000000000E+00 0.  1.
         21   -1    0    0  501  503 -0.00000000000E+00 -0.00000000000E+00 -0.58281798259E+02  0.58281798259E+02  0.00000000000E+00 0.  1.
          6    2    1    2  501    0  0.39905534872E+02  0.34957476798E+02  0.17056168246E+03  0.25110519005E+03  0.17648810738E+03 0.  0.
         24    2    3    3    0    0  0.83490784909E+02 -0.85167014071E+01  0.99355948613E+02  0.15686069565E+03  0.87695085081E+02 0.  0.
         -6    2    1    2    0  502 -0.39905534872E+02 -0.34957476798E+02  0.43137946501E+03  0.46739955394E+03  0.17192912288E+03 0.  0.
        -24    2    5    5    0    0 -0.81218678349E+02 -0.41691004559E+02  0.24875664567E+03  0.27998210448E+03  0.90418452149E+02 0.  0.
          5    1    3    3  501    0 -0.43585250038E+02  0.43474178206E+02  0.71205733852E+02  0.94244494401E+02  0.47000000000E+01 0. -1.
        -11    1    4    4    0    0 -0.10437578307E+01 -0.33231069869E+02  0.25020410964E+02  0.41610267962E+02  0.00000000000E+00 0.  1.
         12    1    4    4    0    0  0.84534542740E+02  0.24714368462E+02  0.74335537649E+02  0.11525042769E+03  0.00000000000E+00 0. -1.
         -5    1    5    5    0  502  0.41313143477E+02  0.67335277610E+01  0.18262281934E+03  0.18741744946E+03  0.47000000000E+01 0.  1.
         13    1    6    6    0    0  0.12077741107E+02 -0.22360186138E+02  0.20544018460E+02  0.32678837936E+02  0.00000000000E+00 0. -1.
        -14    1    6    6    0    0 -0.93296419456E+02 -0.19330818421E+02  0.22821262721E+03  0.24730326654E+03  0.00000000000E+00 0.  1.
</event>
<event>
12    1  0.8271773E-002  0.1741653E+03  0.7818608E-02  0.1173808E+00
         21   -1    0    0  501  502  0.00000000000E+00  0.00000000000E+00  0.65840583625E+03  0.65840583625E+03  0.00000000000E+00 0.  1.
         21   -1    0    0  502  503 -0.00000000000E+00 -0.00000000000E+00 -0.89397537096E+02  0.89397537096E+02  0.00000000000E+00 0.  1.
         -6    2    1    2    0  503  0.32721618217E+01 -0.22895827694E+02  0.23860792596E+02  0.17579214587E+03  0.17262275388E+03 0.  0.
        -24    2    3    3    0    0  0.42218010976E+02  0.45777341384E+01 -0.38452359451E+02  0.97200831567E+02  0.78524528711E+02 0.  0.
          6    2    1    2  501    0 -0.32721618217E+01  0.22895827694E+02  0.54514750655E+03  0.57201122747E+03  0.17168609286E+03 0.  0.
         24    2    5    5    0    0  0.40584588380E+02 -0.23122188271E+02  0.43538484918E+03  0.44508210045E+03  0.79726813835E+02 0.  0.
          5    1    5    5  501    0 -0.43856750202E+02  0.46018015965E+02  0.10976265738E+03  0.12692912702E+03  0.47000000000E+01 0. -1.
        -13    1    6    6    0    0  0.41720475042E+02  0.19626814261E+02  0.16437152120E+03  0.17071557298E+03  0.00000000000E+00 0.  1.
         14    1    6    6    0    0 -0.11358866616E+01 -0.42749002532E+02  0.27101332797E+03  0.27436652747E+03  0.00000000000E+00 0. -1.
         -5    1    3    3    0  503 -0.38945849154E+02 -0.27473561832E+02  0.62313152047E+02  0.78591314305E+02  0.47000000000E+01 0.  1.
         13    1    4    4    0    0 -0.70229100262E+01  0.15727832608E+02  0.15598641857E+02  0.23237977786E+02  0.00000000000E+00 0. -1.
        -14    1    4    4    0    0  0.49240921002E+02 -0.11150098470E+02 -0.54051001308E+02  0.73962853781E+02  0.00000000000E+00 0.  1.
</event>
<event>
12    1  0.8271773E-002  0.2002751E+03  0.7818608E-02  0.1150049E+00
         21   -1    0    0  501  502  0.00000000000E+00  0.00000000000E+00  0.59190556773E+02  0.59190556773E+02  0.00000000000E+00 0.  1.
         21   -1    0    0  502  503 -0.00000000000E+00 -0.00000000000E+00 -0.11986220463E+04  0.11986220463E+04  0.00000000000E+00 0.  1.
         -6    2    1    2    0  503 -0.88690315298E+02 -0.42290468478E+02 -0.98570995767E+03  0.10053439554E+04  0.17157474253E+03 0.  0.
        -24    2    3    3    0    0 -0.88911109140E+02 -0.52423837784E+02 -0.41634146947E+03  0.43586586164E+03  0.77365276764E+02 0.  0.
          6    2    1    2  501    0  0.88690315298E+02  0.42290468478E+02 -0.15372153185E+03  0.25246864766E+03  0.17451548053E+03 0.  0.
         24    2    5    5    0    0  0.12951192733E+03  0.24905178395E+02 -0.10067160696E+03  0.18315027455E+03  0.77560578814E+02 0.  0.
          5    1    5    5  501    0 -0.40821612033E+02  0.17385290083E+02 -0.53049924887E+02  0.69318373111E+02  0.47000000000E+01 0. -1.
        -11    1    6    6    0    0  0.59617863805E+02  0.45947956863E+02 -0.28450619693E+02  0.80467025454E+02  0.00000000000E+00 0.  1.
         12    1    6    6    0    0  0.69894063526E+02 -0.21042778468E+02 -0.72220987271E+02  0.10268324909E+03  0.00000000000E+00 0. -1.
         -5    1    3    3    0  503  0.22079384186E+00  0.10133369306E+02 -0.56936848820E+03  0.56947809376E+03  0.47000000000E+01 0.  1.
         11    1    4    4    0    0 -0.98080849820E+01 -0.18667004569E+02 -0.16214316084E+02  0.26599993171E+02  0.00000000000E+00 0. -1.
        -12    1    4    4    0    0 -0.79103024158E+02 -0.33756833215E+02 -0.40012715338E+03  0.40926586847E+03  0.00000000000E+00 0.  1.
</event>
<event>
12    1  0.8271773E-002  0.1874985E+03  0.7818608E-02  0.1160760E+00
         21   -1    0    0  501  502  0.00000000000E+00  0.00000000000E+00  0.13918507365E+03  0.13918507365E+03  0.00000000000E+00 0. -1.
         21   -1    0    0  502  503 -0.00000000000E+00 -0.00000000000E+00 -0.25631435714E+03  0.25631435714E+03  0.00000000000E+00 0.  1.
         -6    2    1    2    0  503 -0.65901506129E+02  0.34543750607E+02 -0.34253379496E+02  0.19050160859E+03  0.17199212091E+03 0.  0.
        -24    2    3    3    0    0 -0.35753465376E+02  0.47545530832E+02  0.38658094057E+02  0.11040089932E+03  0.84587366353E+02 0.  0.
          6    2    1    2  501    0  0.65901506129E+02 -0.34543750607E+02 -0.82875903987E+02  0.20499782219E+03  0.17210291231E+03 0.  0.
         24    2    5    5    0    0  0.35739828909E+02  0.16000400465E+02 -0.10900605896E+03  0.14042760476E+03  0.79399263862E+02 0.  0.
          5    1    5    5  501    0  0.30161677221E+02 -0.50544151072E+02  0.26130154977E+02  0.64570217434E+02  0.47000000000E+01 0. -1.
        -13    1    6    6    0    0  0.18754522776E+02  0.47172471236E+02 -0.48108727225E+02  0.69938714617E+02  0.00000000000E+00 0.  1.
         14    1    6    6    0    0  0.16985306132E+02 -0.31172070770E+02 -0.60897331739E+02  0.70488890141E+02  0.00000000000E+00 0. -1.
         -5    1    3    3    0  503 -0.30148040754E+02 -0.13001780225E+02 -0.72911473553E+02  0.80100709273E+02  0.47000000000E+01 0.  1.
         11    1    4    4    0    0 -0.61603748874E+02  0.26563597308E+02  0.37997966619E+02  0.77100532063E+02  0.00000000000E+00 0. -1.
        -12    1    4    4    0    0  0.25850283498E+02  0.20981933523E+02  0.66012743836E+00  0.33300367259E+02  0.00000000000E+00 0.  1.
</event>
<event>
12    1  0.8271773E-002  0.1994624E+03  0.7818608E-02  0.1150279E+00
         21   -1    0    0  503  502  0.00000000000E+00  0.00000000000E+00  0.98523485038E+02  0.98523485038E+02  0.00000000000E+00 0. -1.
         21   -1    0    0  501  503 -0.00000000000E+00 -0.00000000000E+00 -0.42709564631E+03  0.42709564631E+03  0.00000000000E+00 0. -1.
          6    2    1    2  501    0 -0.70941183757E+02  0.70694439096E+02 -0.10170496362E+03  0.22353641158E+03  0.17202985905E+03 0.  0.
         24    2    3    3    0    0 -0.11262920405E+03  0.62907354772E+02 -0.57687257781E+02  0.16223243009E+03  0.79679788988E+02 0.  0.
         -6    2    1    2    0  502  0.70941183757E+02 -0.70694439096E+02 -0.22686719766E+03  0.30208271978E+03  0.17249605486E+03 0.  0.
        -24    2    5    5    0    0  0.87834287769E+02 -0.45124156051E+02 -0.23798254923E+03  0.26914554657E+03  0.77798328590E+02 0.  0.
          5    1    3    3  501    0  0.41688020297E+02  0.77870843231E+01 -0.44017705838E+02  0.61303981484E+02  0.47000000000E+01 0. -1.
        -13    1    4    4    0    0 -0.16442931306E+02 -0.64133128308E+01  0.14999566823E+02  0.23162201456E+02  0.00000000000E+00 0.  1.
         14    1    4    4    0    0 -0.96186272748E+02  0.69320667603E+02 -0.72686824604E+02  0.13907022864E+03  0.00000000000E+00 0. -1.
         -5    1    5    5    0  502 -0.16893104012E+02 -0.25570283045E+02  0.11115351575E+02  0.32937173206E+02  0.47000000000E+01 0.  1.
         13    1    6    6    0    0  0.18078864277E+02 -0.50657037409E+02 -0.80483169022E+02  0.96801452822E+02  0.00000000000E+00 0. -1.
        -14    1    6    6    0    0  0.69755423492E+02  0.55328813585E+01 -0.15749938021E+03  0.17234409375E+03  0.00000000000E+00 0.  1.
</event>
<event>
12    1  0.8271773E-002  0.2425919E+03  0.7818608E-02  0.1120297E+00
         21   -1    0    0  503  502  0.00000000000E+00  0.00000000000E+00  0.14578298217E+03  0.14578298217E+03  0.00000000000E+00 0. -1.
         21   -1    0    0  501  503 -0.00000000000E+00 -0.00000000000E+00 -0.39727890141E+03  0.39727890141E+03  0.00000000000E+00 0.  1.
          6    2    1    2  501    0  0.13788665449E+03  0.58561860143E+02 -0.18205118468E+03  0.30330424902E+03  0.19081041031E+03 0.  0.
         24    2    3    3    0    0  0.11731805450E+03  0.11255079035E+03 -0.11101545273E+03  0.21161980594E+03  0.77635721159E+02 0.  0.
         -6    2    1    2    0  502 -0.13788665449E+03 -0.58561860143E+02 -0.69444734556E+02  0.23975763456E+03  0.17383593191E+03 0.  0.
        -24    2    5    5    0    0 -0.49751124434E+02 -0.27554333430E+02  0.31237855003E+02  0.10232251456E+03  0.79118125146E+02 0.  0.
          5    1    3    3  501    0  0.20568599989E+02 -0.53988930205E+02 -0.71035731951E+02  0.91684443086E+02  0.47000000000E+01 0. -1.
        -13    1    4    4    0    0  0.39293491460E+02  0.66306441126E+02 -0.90046588542E+02  0.11852810095E+03  0.00000000000E+00 0.  1.
         14    1    4    4    0    0  0.78024563040E+02  0.46244349221E+02 -0.20968864189E+02  0.93091704989E+02  0.00000000000E+00 0. -1.
         -5    1    5    5    0  502 -0.88135530055E+02 -0.31007526712E+02 -0.10068258956E+03  0.13743512001E+03  0.47000000000E+01 0.  1.
         11    1    6    6    0    0  0.13304787807E+02 -0.13141988510E+00  0.30810007605E+02  0.33560262490E+02  0.00000000000E+00 0. -1.
        -12    1    6    6    0    0 -0.63055912241E+02 -0.27422913545E+02  0.42784739813E+00  0.68762252066E+02  0.00000000000E+00 0.  1.
</event>
<event>
12    1  0.8271773E-002  0.2107128E+03  0.7818608E-02  0.1141183E+00
         21   -1    0    0  503  502  0.00000000000E+00  0.00000000000E+00  0.20448756213E+03  0.20448756213E+03  0.00000000000E+00 0.  1.
         21   -1    0    0  501  503 -0.00000000000E+00 -0.00000000000E+00 -0.21692070470E+03  0.21692070470E+03  0.00000000000E+00 0.  1.
          6    2    1    2  501    0 -0.67015130734E+02  0.99537835501E+02 -0.18471094683E+02  0.21152083142E+03  0.17320817631E+03 0.  0.
         24    2    3    3    0    0 -0.43867458402E+02  0.10567463193E+03 -0.68423160599E+02  0.15592610240E+03  0.80868651311E+02 0.  0.
         -6    2    1    2    0  502  0.67015130734E+02 -0.99537835501E+02  0.60379521085E+01  0.20988743541E+03  0.17209726968E+03 0.  0.
        -24    2    5    5    0    0  0.56163032159E+02 -0.95408882735E+01  0.48230874210E+02  0.10978972699E+03  0.80512435041E+02 0.  0.
          5    1    3    3  501    0 -0.23147672332E+02 -0.61367964287E+01  0.49952065916E+02  0.55594729014E+02  0.47000000000E+01 0. -1.
        -13    1    4    4    0    0 -0.31057934637E+02  0.91950069690E+02 -0.13630069327E+02  0.98006068230E+02  0.00000000000E+00 0.  1.
         14    1    4    4    0    0 -0.12809523764E+02  0.13724562239E+02 -0.54793091272E+02  0.57920034175E+02  0.00000000000E+00 0. -1.
         -5    1    5    5    0  502  0.10852098575E+02 -0.89996947227E+02 -0.42192922101E+02  0.10009770841E+03  0.47000000000E+01 0.  1.
         11    1    6    6    0    0  0.14808844869E+02  0.34741861007E+02  0.14585347813E+02  0.40484949838E+02  0.00000000000E+00 0. -1.
        -12    1    6    6    0    0  0.41354187290E+02 -0.44282749280E+02  0.33645526397E+02  0.69304777157E+02  0.00000000000E+00 0.  1.
</event>
<event>
12    1  0.8271773E-002  0.2161251E+03  0.7818608E-02  0.1137009E+00
         21   -1    0    0  503  502  0.00000000000E+00  0.00000000000E+00  0.88158163219E+03  0.88158163219E+03  0.00000000000E+00 0.  1.
         21   -1    0    0  501  503 -0.00000000000E+00 -0.00000000000E+00 -0.44645564931E+03  0.44645564931E+03  0.00000000000E+00 0.  1.
          6    2    1    2  501    0 -0.58502017531E+02 -0.11531395622E+03 -0.40595259214E+03  0.45989950587E+03  0.17317694385E+03 0.  0.
         24    2    3    3    0    0 -0.55374987478E+02 -0.13538705406E+03 -0.23989702123E+03  0.29253986258E+03  0.81442904885E+02 0.  0.
         -6    2    1    2    0  502  0.58502017531E+02  0.11531395622E+03  0.84107857501E+03  0.86813777564E+03  0.17184363121E+03 0.  0.
        -24    2    5    5    0    0  0.78895866815E+02  0.30970805167E+02  0.33753785325E+03  0.35715340729E+03  0.80268333672E+02 0.  0.
          5    1    3    3  501    0 -0.31270300530E+01  0.20073097837E+02 -0.16605557091E+03  0.16735964329E+03  0.47000000000E+01 0. -1.
        -11    1    4    4    0    0 -0.60940207104E+02 -0.52144913948E+02 -0.14861594595E+03  0.16887717514E+03  0.00000000000E+00 0.  1.
         12    1    4    4    0    0  0.55652196262E+01 -0.83242140108E+02 -0.91281075276E+02  0.12366268743E+03  0.00000000000E+00 0. -1.
         -5    1    5    5    0  502 -0.20393849284E+02  0.84343151053E+02  0.50354072177E+03  0.51098436835E+03  0.47000000000E+01 0.  1.
         13    1    6    6    0    0 -0.62878350194E+01  0.30588099631E+02  0.10271853039E+03  0.10736044520E+03  0.00000000000E+00 0. -1.
        -14    1    6    6    0    0  0.85183701834E+02  0.38270553575E+00  0.23481932285E+03  0.24979296209E+03  0.00000000000E+00 0.  1.
</event>
<event>
12    1  0.8271773E-002  0.1753759E+03  0.7818608E-02  0.1172892E+00
         21   -1    0    0  503  502  0.00000000000E+00  0.00000000000E+00  0.16914773412E+03  0.16914773412E+03  0.00000000000E+00 0.  1.
         21   -1    0    0  501  503 -0.00000000000E+00 -0.00000000000E+00 -0.17986031270E+03  0.17986031270E+03  0.00000000000E+00 0.  1.
          6    2    1    2  501    0  0.14780708015E+02 -0.16026904547E+02 -0.11564101104E+02  0.17363003073E+03  0.17186718167E+03 0.  0.
         24    2    3    3    0    0  0.43950038599E+02 -0.18466706266E+02  0.49709387889E+02  0.10556144081E+03  0.79997308763E+02 0.  0.
         -6    2    1    2    0  502 -0.14780708015E+02  0.16026904547E+02  0.85152252077E+00  0.17537801609E+03  0.17401549482E+03 0.  0.
        -24    2    5    5    0    0  0.10395207133E+02 -0.58217380412E+02 -0.25751770804E+01  0.96765848947E+02  0.76548509274E+02 0.  0.
          5    1    3    3  501    0 -0.29169330585E+02  0.24398017194E+01 -0.61273488993E+02  0.68068589912E+02  0.47000000000E+01 0. -1.
        -13    1    4    4    0    0  0.24092321245E+02  0.18123352049E+02 -0.10877319060E+02  0.32050146682E+02  0.00000000000E+00 0.  1.
         14    1    4    4    0    0  0.19857717355E+02 -0.36590058315E+02  0.60586706949E+02  0.73511294132E+02  0.00000000000E+00 0. -1.
         -5    1    5    5    0  502 -0.25175915148E+02  0.74244284959E+02  0.34266996011E+01  0.78612167142E+02  0.47000000000E+01 0.  1.
         11    1    6    6    0    0  0.38488305378E+01  0.18883437803E+02 -0.21038551816E+01  0.19386178747E+02  0.00000000000E+00 0. -1.
        -12    1    6    6    0    0  0.65463765956E+01 -0.77100818215E+02 -0.47132189873E+00  0.77379670200E+02  0.00000000000E+00 0.  1.
</event>
<event>
12    1  0.8271773E-002  0.2365211E+03  0.7818608E-02  0.1122197E+00
         21   -1    0    0  503  502  0.00000000000E+00  0.00000000000E+00  0.44100087067E+02  0.44100087067E+02  0.00000000000E+00 0.  1.
         21   -1    0    0  501  503 -0.00000000000E+00 -0.00000000000E+00 -0.22249198365E+04  0.22249198365E+04  0.00000000000E+00 0. -1.
          6    2    1    2  501    0  0.91064115361E+02  0.13320258674E+03 -0.18355288423E+04  0.18507048340E+04  0.17293539068E+03 0.  0.
         24    2    3    3    0    0  0.10514850799E+03  0.93549672983E+02 -0.89711731911E+03  0.91133855794E+03  0.76881290952E+02 0.  0.
         -6    2    1    2    0  502 -0.91064115361E+02 -0.13320258674E+03 -0.34529090712E+03  0.41831508958E+03  0.17241259064E+03 0.  0.
        -24    2    5    5    0    0 -0.75328375939E+02 -0.12768909717E+03 -0.16214486069E+03  0.23435157041E+03  0.81552639130E+02 0.  0.
          5    1    3    3  501    0 -0.14084392626E+02  0.39652913752E+02 -0.93841152320E+03  0.93936627603E+03  0.47000000000E+01 0. -1.
        -13    1    4    4    0    0  0.59355628016E+01  0.30674663864E+02 -0.81084555065E+02  0.86895747761E+02  0.00000000000E+00 0.  1.
         14    1    4    4    0    0  0.99212945185E+02  0.62875009119E+02 -0.81603276404E+03  0.82444281018E+03  0.00000000000E+00 0. -1.
         -5    1    5    5    0  502 -0.15735739422E+02 -0.55134895691E+01 -0.18314604643E+03  0.18396351917E+03  0.47000000000E+01 0.  1.
         11    1    6    6    0    0  0.65277657672E+00 -0.60255038118E+02 -0.95265849695E+02  0.11272390099E+03  0.00000000000E+00 0. -1.
        -12    1    6    6    0    0 -0.75981152516E+02 -0.67434059048E+02 -0.66879010990E+02  0.12162766942E+03  0.00000000000E+00 0.  1.
</event>
<event>
12    1  0.8271773E-002  0.2457585E+03  0.7818608E-02  0.1116092E+00
         21   -1    0    0  501  502  0.00000000000E+00  0.00000000000E+00  0.11578555377E+04  0.11578555377E+04  0.00000000000E+00 0. -1.
         21   -1    0    0  502  503 -0.00000000000E+00 -0.00000000000E+00 -0.52273641379E+02  0.52273641379E+02  0.00000000000E+00 0. -1.
         -6    2    1    2    0  503  0.90140859981E+02  0.15108783156E+03  0.51478799018E+03  0.57044185375E+03  0.17159349109E+03 0.  0.
        -24    2    3    3    0    0  0.11320422371E+03  0.14251268245E+03  0.50655607751E+03  0.54407319214E+03  0.79319088659E+02 0.  0.
          6    2    1    2  501    0 -0.90140859981E+02 -0.15108783156E+03  0.59079390614E+03  0.63968732534E+03  0.17090794943E+03 0.  0.
         24    2    5    5    0    0 -0.69026619145E+01 -0.13911998153E+03  0.36044406056E+03  0.39442222710E+03  0.79037689985E+02 0.  0.
          5    1    5    5  501    0 -0.83238198066E+02 -0.11967850026E+02  0.23034984558E+03  0.24526509823E+03  0.47000000000E+01 0. -1.
        -11    1    6    6    0    0 -0.82767674793E+01  0.48263153385E+00  0.44774016103E+00  0.83029081866E+01  0.00000000000E+00 0.  1.
         12    1    6    6    0    0  0.13741055648E+01 -0.13960261306E+03  0.35999632040E+03  0.38611931892E+03  0.00000000000E+00 0. -1.
         -5    1    3    3    0  503 -0.23063363725E+02  0.85751491025E+01  0.82319126784E+01  0.26368661604E+02  0.47000000000E+01 0.  1.
         13    1    4    4    0    0  0.56410586346E+02  0.12522358658E+03  0.31798516299E+03  0.34637792188E+03  0.00000000000E+00 0. -1.
        -14    1    4    4    0    0  0.56793637359E+02  0.17289095872E+02  0.18857091452E+03  0.19769527026E+03  0.00000000000E+00 0.  1.
</event>
<event>
12    1  0.8271773E-002  0.2230785E+03  0.7818608E-02  0.1131749E+00
         21   -1    0    0  501  502  0.00000000000E+00  0.00000000000E+00  0.27864504805E+03  0.27864504805E+03  0.00000000000E+00 0. -1.
         21   -1    0    0  502  503 -0.00000000000E+00 -0.00000000000E+00 -0.31537642906E+03  0.31537642906E+03  0.00000000000E+00 0.  1.
         -6    2    1    2    0  503 -0.87044840378E+02  0.11500364337E+03 -0.21442350230E+03  0.30942113511E+03  0.17018036987E+03 0.  0.
        -24    2    3    3    0    0 -0.14063679941E+01  0.90471100456E+02 -0.66520563847E+02  0.13669834328E+03  0.77938782081E+02 0.  0.
          6    2    1    2  501    0  0.87044840378E+02 -0.11500364337E+03  0.17769212129E+03  0.28460034200E+03  0.16917512369E+03 0.  0.
         24    2    5    5    0    0  0.22544273918E+02 -0.24755822413E+02  0.16472204341E+02  0.88848090720E+02  0.80632218616E+02 0.  0.
          5    1    5    5  501    0  0.64500566460E+02 -0.90247820956E+02  0.16121991695E+03  0.19575225128E+03  0.47000000000E+01 0. -1.
        -11    1    6    6    0    0  0.43462011458E+02 -0.41512441068E+02  0.15309729027E+02  0.62021101299E+02  0.00000000000E+00 0.  1.
         12    1    6    6    0    0 -0.20917737540E+02  0.16756618655E+02  0.11624753146E+01  0.26826989422E+02  0.00000000000E+00 0. -1.
         -5    1    3    3    0  503 -0.85638472384E+02  0.24532542913E+02 -0.14790293846E+03  0.17272279183E+03  0.47000000000E+01 0.  1.
         11    1    4    4    0    0 -0.10519428588E+02  0.85763542648E+02 -0.81344536318E+02  0.11867172036E+03  0.00000000000E+00 0. -1.
        -12    1    4    4    0    0  0.91130605943E+01  0.47075578079E+01  0.14823972471E+02  0.18026622916E+02  0.00000000000E+00 0.  1.
</event>
<event>
12    1  0.8271773E-002  0.1866135E+03  0.7818608E-02  0.1161842E+00
         21   -1    0    0  503  502  0.00000000000E+00  0.00000000000E+00  0.13946683416E+04  0.13946683416E+04  0.00000000000E+00 0.  1.
         21   -1    0    0  501  503 -0.00000000000E+00 -0.00000000000E+00 -0.44614610866E+02  0.44614610866E+02  0.00000000000E+00 0.  1.
          6    2    1    2  501    0 -0.67956877079E+02  0.17905132366E+02  0.19673205807E+03  0.27116068417E+03  0.17287533964E+03 0.  0.
         24    2    3    3    0    0 -0.10877138817E+03  0.62476366118E+01  0.10708049522E+03  0.17185703748E+03  0.78729670572E+02 0.  0.
         -6    2    1    2    0  502  0.67956877079E+02 -0.17905132366E+02  0.11533216726E+04  0.11681222683E+04  0.17152265785E+03 0.  0.
        -24    2    5    5    0    0 -0.15579694461E+02 -0.40200199225E+02  0.42913138970E+03  0.43877387094E+03  0.80684430335E+02 0.  0.
          5    1    3    3  501    0  0.40814511089E+02  0.11657495754E+02  0.89651562858E+02  0.99303646689E+02  0.47000000000E+01 0. -1.
        -11    1    4    4    0    0 -0.81692813962E+02  0.38541914391E+02  0.86056778351E+02  0.12475962535E+03  0.00000000000E+00 0.  1.
         12    1    4    4    0    0 -0.27078574206E+02 -0.32294277779E+02  0.21023716865E+02  0.47097412128E+02  0.00000000000E+00 0. -1.
         -5    1    5    5    0  502  0.83536571539E+02  0.22295066859E+02  0.72419028294E+03  0.72934839733E+03  0.47000000000E+01 0.  1.
         13    1    6    6    0    0  0.20238287601E+02 -0.42975780091E+02  0.15004933676E+03  0.15738903844E+03  0.00000000000E+00 0. -1.
        -14    1    6    6    0    0 -0.35817982062E+02  0.27755808657E+01  0.27908205294E+03  0.28138483250E+03  0.00000000000E+00 0.  1.
</event>
<event>
12    1  0.8271773E-002  0.1729003E+03  0.7818608E-02  0.1175308E+00
         21   -1    0    0  503  502  0.00000000000E+00  0.00000000000E+00  0.36024775367E+02  0.36024775367E+02  0.00000000000E+00 0. -1.
         21   -1    0    0  501  503 -0.00000000000E+00 -0.00000000000E+00 -0.83941487056E+03  0.83941487056E+03  0.00000000000E+00 0. -1.
          6    2    1    2  501    0 -0.18258337386E+01  0.37836668174E+01 -0.33556568573E+03  0.37668701489E+03  0.17108807073E+03 0.  0.
         24    2    3    3    0    0 -0.37622830423E+02 -0.33765109334E+02 -0.29533620146E+03  0.31087032274E+03  0.82833119497E+02 0.  0.
         -6    2    1    2    0  502  0.18258337386E+01 -0.37836668174E+01 -0.46782440947E+03  0.49875263104E+03  0.17284923798E+03 0.  0.
        -24    2    5    5    0    0  0.24191273050E+02 -0.20748974660E+02 -0.46151727753E+03  0.46959951013E+03  0.80683113559E+02 0.  0.
          5    1    3    3  501    0  0.35796996684E+02  0.37548776152E+02 -0.40229484262E+02  0.65816692154E+02  0.47000000000E+01 0. -1.
        -11    1    4    4    0    0  0.23106527709E+02 -0.43045696619E+01 -0.36778412878E+02  0.43647366433E+02  0.00000000000E+00 0.  1.
         12    1    4    4    0    0 -0.60729358132E+02 -0.29460539673E+02 -0.25855778859E+03  0.26722295630E+03  0.00000000000E+00 0. -1.
         -5    1    5    5    0  502 -0.22365439311E+02  0.16965307843E+02 -0.63071319450E+01  0.29153120916E+02  0.47000000000E+01 0.  1.
         13    1    6    6    0    0  0.35884324832E+02 -0.26742486895E+02 -0.12403895973E+03  0.13186549551E+03  0.00000000000E+00 0. -1.
        -14    1    6    6    0    0 -0.11693051782E+02  0.59935122351E+01 -0.33747831780E+03  0.33773401462E+03  0.00000000000E+00 0.  1.
</event>
<event>
12    1  0.8271773E-002  0.1762810E+03  0.7818608E-02  0.1171564E+00
         21   -1    0    0  501  502  0.00000000000E+00  0.00000000000E+00  0.11005625086E+04  0.11005625086E+04  0.00000000000E+00 0. -1.
         21   -1    0    0  502  503 -0.00000000000E+00 -0.00000000000E+00 -0.35041236694E+02  0.35041236694E+02  0.00000000000E+00 0.  1.
         -6    2    1    2    0  503 -0.22084117286E+01  0.37193142033E+02  0.78377085295E+03  0.80325111293E+03  0.17183536768E+03 0.  0.
        -24    2    3    3    0    0  0.53889282267E+02  0.14119177029E+02  0.29733052441E+03  0.31302091968E+03  0.80456506964E+02 0.  0.
          6    2    1    2  501    0  0.22084117286E+01 -0.37193142033E+02  0.28175041897E+03  0.33235263239E+03  0.17229848161E+03 0.  0.
         24    2    5    5    0    0  0.16655371012E+02 -0.87997942577E+02  0.16487612509E+03  0.20401116223E+03  0.80096057381E+02 0.  0.
          5    1    5    5  501    0 -0.14446959283E+02  0.50804800544E+02  0.11687429389E+03  0.12834147016E+03  0.47000000000E+01 0. -1.
        -11    1    6    6    0    0 -0.39813207970E+01 -0.78441263801E+02  0.66113395447E+02  0.10266383901E+03  0.00000000000E+00 0.  1.
         12    1    6    6    0    0  0.20636691809E+02 -0.95566787760E+01  0.98762729638E+02  0.10134732322E+03  0.00000000000E+00 0. -1.
         -5    1    3    3    0  503 -0.56097693995E+02  0.23073965004E+02  0.48644032854E+03  0.49023019324E+03  0.47000000000E+01 0.  1.
         13    1    4    4    0    0 -0.14870792845E+02 -0.26162757704E+01  0.13620680869E+03  0.13704116211E+03  0.00000000000E+00 0. -1.
        -14    1    4    4    0    0  0.68760075112E+02  0.16735452799E+02  0.16112371572E+03  0.17597975757E+03  0.00000000000E+00 0.  1.
</event>
<event>
12    1  0.8271773E-002  0.2448482E+03  0.7818608E-02  0.1117259E+00
         21   -1    0    0  501  502  0.00000000000E+00  0.00000000000E+00  0.19117355205E+04  0.19117355205E+04  0.00000000000E+00 0. -1.
         21   -1    0    0  502  503 -0.00000000000E+00 -0.00000000000E+00 -0.34001283267E+02  0.34001283267E+02  0.00000000000E+00 0. -1.
         -6    2    1    2    0  503 -0.72637384238E+02 -0.15178890230E+03  0.12280614061E+04  0.12514562857E+04  0.17231354391E+03 0.  0.
        -24    2    3    3    0    0 -0.65262432380E+02 -0.17458772121E+03  0.11829242653E+04  0.12001374048E+04  0.79245917594E+02 0.  0.
          6    2    1    2  501    0  0.72637384238E+02  0.15178890230E+03  0.64967283115E+03  0.69428051809E+03  0.17786115316E+03 0.  0.
         24    2    5    5    0    0  0.44962683517E+01  0.54241301886E+02  0.13154563200E+03  0.16264471180E+03  0.78655665528E+02 0.  0.
          5    1    5    5  501    0  0.68141115887E+02  0.97547600418E+02  0.51812719915E+03  0.53163580628E+03  0.47000000000E+01 0. -1.
        -11    1    6    6    0    0  0.21116435176E+02  0.28294279897E+02  0.92083006792E+01  0.36486475725E+02  0.00000000000E+00 0.  1.
         12    1    6    6    0    0 -0.16620166825E+02  0.25947021989E+02  0.12233733132E+03  0.12615823608E+03  0.00000000000E+00 0. -1.
         -5    1    3    3    0  503 -0.73749518585E+01  0.22798818909E+02  0.45137140796E+02  0.51318880910E+02  0.47000000000E+01 0.  1.
         13    1    4    4    0    0  0.13814959022E+02 -0.69350789087E+02  0.43812891348E+03  0.44379874928E+03  0.00000000000E+00 0. -1.
        -14    1    4    4    0    0 -0.79077391401E+02 -0.10523693213E+03  0.74479535182E+03  0.75633865550E+03  0.00000000000E+00 0.  1.
</event>
<event>
12    1  0.8271773E-002  0.2236573E+03  0.7818608E-02  0.1131313E+00
         21   -1    0    0  501  502  0.00000000000E+00  0.00000000000E+00  0.86829855966E+03  0.86829855966E+03  0.00000000000E+00 0.  1.
         21   -1    0    0  502  503 -0.00000000000E+00 -0.00000000000E+00 -0.57534690913E+02  0.57534690913E+02  0.00000000000E+00 0. -1.
         -6    2    1    2    0  503 -0.11277125910E+02  0.14263803101E+03  0.42443996995E+03  0.47943795949E+03  0.17099323801E+03 0.  0.
        -24    2    3    3    0    0  0.28756760291E+02  0.33689618251E+02  0.27555168579E+03  0.29059336770E+03  0.80955742028E+02 0.  0.
          6    2    1    2  501    0  0.11277125910E+02 -0.14263803101E+03  0.38632389879E+03  0.44639529109E+03  0.17190060984E+03 0.  0.
         24    2    5    5    0    0 -0.48333373131E+02 -0.39750565859E+02  0.14427120320E+03  0.17667165563E+03  0.80513796236E+02 0.  0.
          5    1    5    5  501    0  0.59610499041E+02 -0.10288746515E+03  0.24205269559E+03  0.26972363546E+03  0.47000000000E+01 0. -1.
        -13    1    6    6    0    0 -0.17819047404E+02 -0.25815738087E+02  0.13926571665E+03  0.14275472187E+03  0.00000000000E+00 0.  1.
         14    1    6    6    0    0 -0.30514325727E+02 -0.13934827772E+02  0.50054865517E+01  0.33916933753E+02  0.00000000000E+00 0. -1.
         -5    1    3    3    0  503 -0.40033886201E+02  0.10894841276E+03  0.14888828416E+03  0.18884459179E+03  0.47000000000E+01 0.  1.
         13    1    4    4    0    0  0.78913479828E+01  0.42107983994E+02  0.59202058458E+02  0.73076941744E+02  0.00000000000E+00 0. -1.
        -14    1    4    4    0    0  0.20865412308E+02 -0.84183657429E+01  0.21634962733E+03  0.21751642595E+03  0.00000000000E+00 0.  1.
</event>
<event>
12    1  0.8271773E-002  0.1810978E+03  0.7818608E-02  0.1167701E+00
         21   -1    0    0  503  502  0.00000000000E+00  0.00000000000E+00  0.24534803894E+03  0.24534803894E+03  0.00000000000E+00 0.  1.
         21   -1    0    0  501  503 -0.00000000000E+00 -0.00000000000E+00 -0.24535723468E+03  0.24535723468E+03  0.00000000000E+00 0.  1.
          6    2    1    2  501    0  0.40334148060E+02  0.12848118114E+02 -0.16766149678E+03  0.24679301366E+03  0.17608093722E+03 0.  0.
         24    2    3    3    0    0 -0.17503101786E+02  0.63308055133E+02 -0.10466810355E+03  0.14738672460E+03  0.80331601949E+02 0.  0.
         -6    2    1    2    0  502 -0.40334148060E+02 -0.12848118114E+02  0.16765230104E+03  0.24391225996E+03  0.17202900592E+03 0.  0.
        -24    2    5    5    0    0  0.28257923253E+02  0.31213064528E+02  0.11610251623E+03  0.14734243871E+03  0.80356918470E+02 0.  0.
          5    1    3    3  501    0  0.57837249846E+02 -0.50459937018E+02 -0.62993393230E+02  0.99406289057E+02  0.47000000000E+01 0. -1.
        -11    1    4    4    0    0 -0.25727484668E+02  0.57825006067E+02 -0.11612678553E+03  0.13225379054E+03  0.00000000000E+00 0.  1.
         12    1    4    4    0    0  0.82243828828E+01  0.54830490662E+01  0.11458681977E+02  0.15132934068E+02  0.00000000000E+00 0. -1.
         -5    1    5    5    0  502 -0.68592071313E+02 -0.44061182643E+02  0.51549784814E+02  0.96569821255E+02  0.47000000000E+01 0.  1.
         13    1    6    6    0    0 -0.24141135535E+02  0.29540269535E+02  0.53022568950E+02  0.65320860123E+02  0.00000000000E+00 0. -1.
        -14    1    6    6    0    0  0.52399058788E+02  0.16727949938E+01  0.63079947279E+02  0.82021578586E+02  0.00000000000E+00 0.  1.
</event>
<event>
12    1  0.8271773E-002  0.1969867E+03  0.7818608E-02  0.1155154E+00
         21   -1    0    0  503  502  0.00000000000E+00  0.00000000000E+00  0.37026329662E+03  0.37026329662E+03  0.00000000000E+00 0. -1.
         21   -1    0    0  501  503 -0.00000000000E+00 -0.00000000000E+00 -0.24869099776E+03  0.24869099776E+03  0.00000000000E+00 0. -1.
          6    2    1    2  501    0  0.95667842690E+02  0.10400903708E+02 -0.17916721071E+03  0.26627925349E+03  0.17188146067E+03 0.  0.
         24    2    3    3    0    0  0.36532747166E+02  0.22983104439E+02 -0.15892601266E+02  0.92107041622E+02  0.79801426279E+02 0.  0.
         -6    2    1    2    0  502 -0.95667842690E+02 -0.10400903708E+02  0.30073950957E+03  0.35267504089E+03  0.15708251631E+03 0.  0.
        -24    2    5    5    0    0 -0.64172894846E+02  0.21957971884E+02  0.29336388730E+03  0.30668027626E+03  0.58224638389E+02 0.  0.
          5    1    3    3  501    0  0.59135095524E+02 -0.12582200730E+02 -0.16327460945E+03  0.17417221187E+03  0.47000000000E+01 0. -1.
        -11    1    4    4    0    0 -0.94281447490E+01 -0.23242859443E+02 -0.30993175663E+00  0.25084187971E+02  0.00000000000E+00 0.  1.
         12    1    4    4    0    0  0.45960891915E+02  0.46225963882E+02 -0.15582669509E+02  0.67022853650E+02  0.00000000000E+00 0. -1.
         -5    1    5    5    0  502 -0.31494947844E+02 -0.32358875592E+02  0.73756222671E+01  0.45994764627E+02  0.47000000000E+01 0.  1.
         11    1    6    6    0    0  0.40872194043E+01 -0.42089120931E+01  0.96552609539E+02  0.96730691677E+02  0.00000000000E+00 0. -1.
        -12    1    6    6    0    0 -0.68260114250E+02  0.26166883977E+02  0.19681127776E+03  0.20994958459E+03  0.00000000000E+00 0.  1.
</event>
<event>
12    1  0.8271773E-002  0.1749661E+03  0.7818608E-02  0.1172867E+00
         21   -1    0    0  503  502  0.00000000000E+00  0.00000000000E+00  0.61708380758E+03  0.61708380758E+03  0.00000000000E+00 0. -1.
         21   -1    0    0  501  503 -0.00000000000E+00 -0.00000000000E+00 -0.16250461084E+03  0.16250461084E+03  0.00000000000E+00 0. -1.
          6    2    1    2  501    0 -0.26481536058E+02 -0.12846865687E+02 -0.97687981154E+02  0.20038980371E+03  0.17247265888E+03 0.  0.
         24    2    3    3    0    0 -0.81847017226E+02 -0.23059266986E+02 -0.79424442972E+02  0.14101576501E+03  0.79665173170E+02 0.  0.
         -6    2    1    2    0  502  0.26481536058E+02  0.12846865687E+02  0.55226717790E+03  0.57919861471E+03  0.17206302852E+03 0.  0.
        -24    2    5    5    0    0 -0.51991473209E+02  0.10937488852E+02  0.30765380719E+03  0.32225611135E+03  0.79846066111E+02 0.  0.
          5    1    3    3  501    0  0.55365481168E+02  0.10212401299E+02 -0.18263538182E+02  0.59374038705E+02  0.47000000000E+01 0. -1.
        -11    1    4    4    0    0 -0.72802827033E+02 -0.10700111829E+02 -0.15392234759E+02  0.75177555879E+02  0.00000000000E+00 0.  1.
         12    1    4    4    0    0 -0.90441901931E+01 -0.12359155157E+02 -0.64032208212E+02  0.65838209127E+02  0.00000000000E+00 0. -1.
         -5    1    5    5    0  502  0.78473009268E+02  0.19093768347E+01  0.24461337071E+03  0.25694250336E+03  0.47000000000E+01 0.  1.
         11    1    6    6    0    0 -0.13044028789E+02 -0.31611001430E+02  0.72941093946E+02  0.80559327731E+02  0.00000000000E+00 0. -1.
        -12    1    6    6    0    0 -0.38947444421E+02  0.42548490282E+02  0.23471271324E+03  0.24169678362E+03  0.00000000000E+00 0.  1.
</event>
<event>
12    1  0.8271773E-002  0.2100158E+03  0.7818608E-02  0.1143836E+00
         21   -1    0    0  501  502  0.00000000000E+00  0.00000000000E+00  0.18306558527E+03  0.18306558527E+03  0.00000000000E+00 0. -1.
         21   -1    0    0  502  503 -0.00000000000E+00 -0.00000000000E+00 -0.39753032989E+03  0.39753032989E+03  0.00000000000E+00 0. -1.
         -6    2    1    2    0  503 -0.98347420948E+02 -0.10284755761E+02 -0.29830724705E+03  0.36482032324E+03  0.18527995897E+03 0.  0.
        -24    2    3    3    0    0  0.20045567809E+02  0.20872556234E+02 -0.15532964276E+03  0.17653234379E+03  0.78732979683E+02 0.  0.
          6    2    1    2  501    0  0.98347420948E+02  0.10284755761E+02  0.83842502431E+02  0.21577559193E+03  0.17248637468E+03 0.  0.
         24    2    5    5    0    0  0.96712070489E+01  0.42907240316E+02  0.99676970943E+01  0.95745286280E+02  0.84458518470E+02 0.  0.
          5    1    5    5  501    0  0.88676213899E+02 -0.32622484555E+02  0.73874805336E+02  0.12003030565E+03  0.47000000000E+01 0. -1.
        -11    1    6    6    0    0  0.43435786585E+02  0.64766643118E+01 -0.41365467050E+01  0.44110381493E+02  0.00000000000E+00 0.  1.
         12    1    6    6    0    0 -0.33764579536E+02  0.36430576004E+02  0.14104243799E+02  0.51634904787E+02  0.00000000000E+00 0. -1.
         -5    1    3    3    0  503 -0.11839298876E+03 -0.31157311995E+02 -0.14297760429E+03  0.18828797945E+03  0.47000000000E+01 0.  1.
         13    1    4    4    0    0  0.14146564477E+02 -0.16175967091E+02 -0.12880991383E+03  0.13059012635E+03  0.00000000000E+00 0. -1.
        -14    1    4    4    0    0  0.58990033321E+01  0.37048523325E+02 -0.26519728933E+02  0.45942217443E+02  0.00000000000E+00 0.  1.
</event>
<event>
12    1  0.8271773E-002  0.2362934E+03  0.7818608E-02  0.1122703E+00
         21   -1    0    0  501  502  0.00000000000E+00  0.00000000000E+00  0.17158226600E+03  0.17158226600E+03  0.00000000000E+00 0.  1.
         21   -1    0    0  502  503 -0.00000000000E+00 -0.00000000000E+00 -0.36418287021E+03  0.36418287021E+03  0.00000000000E+00 0. -1.
         -6    2    1    2    0  503  0.15793143905E+03 -0.98295773565E+01 -0.18783903554E+03  0.30185769988E+03  0.17548677350E+03 0.  0.
        -24    2    3    3    0    0  0.53150554263E+02 -0.38887769245E+02 -0.15802851852E+03  0.18901192346E+03  0.80095284044E+02 0.  0.
          6    2    1    2  501    0 -0.15793143905E+03  0.98295773565E+01 -0.47615686674E+01  0.23390743632E+03  0.17219482048E+03 0.  0.
         24    2    5    5    0    0 -0.18215718719E+03  0.18017070144E+02 -0.21224591876E+02  0.20313337185E+03  0.85479984794E+02 0.  0.
          5    1    5    5  501    0  0.24225748136E+02 -0.81874927878E+01  0.16463023208E+02  0.30774064471E+02  0.47000000000E+01 0. -1.
        -11    1    6    6    0    0 -0.40774739891E+02  0.14273055001E+02 -0.41918806546E+02  0.60195397287E+02  0.00000000000E+00 0.  1.
         12    1    6    6    0    0 -0.14138244729E+03  0.37440151430E+01  0.20694214671E+02  0.14293797457E+03  0.00000000000E+00 0. -1.
         -5    1    3    3    0  503  0.10478088479E+03  0.29058191888E+02 -0.29810517015E+02  0.11284577643E+03  0.47000000000E+01 0.  1.
         11    1    4    4    0    0 -0.46338218956E+01  0.16989100673E+02 -0.58414425893E+02  0.61011039980E+02  0.00000000000E+00 0. -1.
        -12    1    4    4    0    0  0.57784376158E+02 -0.55876869917E+02 -0.99614092631E+02  0.12800088348E+03  0.00000000000E+00 0.  1.
</event>
<event>
12    1  0.8271773E-002  0.1740243E+03  0.7818608E-02  0.1174229E+00
         21   -1    0    0  503  502  0.00000000000E+00  0.00000000000E+00  0.17742177859E+04  0.17742177859E+04  0.00000000000E+00 0. -1.
         21   -1    0    0  501  503 -0.00000000000E+00 -0.00000000000E+00 -0.46511026094E+02  0.46511026094E+02  0.00000000000E+00 0. -1.
          6    2    1    2  501    0  0.16420391577E+02 -0.15756238645E+02  0.13895886537E+03  0.22269712434E+03  0.17252986584E+03 0.  0.
         24    2    3    3    0    0  0.24034723291E+02  0.41830737322E+02  0.14351300824E+03  0.16424143115E+03  0.63653638259E+02 0.  0.
         -6    2    1    2    0  502 -0.16420391577E+02  0.15756238645E+02  0.15887478945E+04  0.15980316877E+04  0.17049197744E+03 0.  0.
        -24    2    5    5    0    0 -0.37947343723E+02 -0.46958208630E+02  0.87647585542E+03  0.88266460767E+03  0.85098826357E+02 0.  0.
          5    1    3    3  501    0 -0.76143317148E+01 -0.57586975967E+02 -0.45541428710E+01  0.58455693186E+02  0.47000000000E+01 0. -1.
        -11    1    4    4    0    0  0.16988530000E+02  0.24883627150E+02  0.14272538567E+03  0.14587097301E+03  0.00000000000E+00 0.  1.
         12    1    4    4    0    0  0.70461932912E+01  0.16947110172E+02  0.78762257158E+00  0.18370458143E+02  0.00000000000E+00 0. -1.
         -5    1    5    5    0  502  0.21526952146E+02  0.62714447276E+02  0.71227203904E+03  0.71536708001E+03  0.47000000000E+01 0.  1.
         13    1    6    6    0    0 -0.30084519539E+02  0.99010923700E+01  0.56874227268E+03  0.56962345692E+03  0.00000000000E+00 0. -1.
        -14    1    6    6    0    0 -0.78628241840E+01 -0.56859301000E+02  0.30773358274E+03  0.31304115075E+03  0.00000000000E+00 0.  1.
</event>
<event>
12    1  0.8271773E-002  0.1787092E+03  0.7818608E-02  0.1169341E+00
         21   -1    0    0  501  502  0.00000000000E+00  0.00000000000E+00  0.19818138979E+03  0.19818138979E+03  0.00000000000E+00 0.  1.
         21   -1    0    0  502  503 -0.00000000000E+00 -0.00000000000E+00 -0.16015890022E+03  0.16015890022E+03  0.00000000000E+00 0.  1.
         -6    2    1    2    0  503 -0.21683620546E+02  0.37353678518E+02  0.15901103267E+02  0.17826716162E+03  0.17222328277E+03 0.  0.
        -24    2    3    3    0    0  0.41303425431E+02  0.90981300449E+01 -0.29707806232E+02  0.95393724341E+02  0.80178924724E+02 0.  0.
          6    2    1    2  501    0  0.21683620546E+02 -0.37353678518E+02  0.22121386301E+02  0.18007312839E+03  0.17341135816E+03 0.  0.
         24    2    5    5    0    0  0.98385663566E+01  0.26826017888E+01  0.75904253711E+02  0.11182434909E+03  0.81481504509E+02 0.  0.
          5    1    5    5  501    0  0.11845054189E+02 -0.40036280307E+02 -0.53782867410E+02  0.68248779303E+02  0.47000000000E+01 0. -1.
        -13    1    6    6    0    0 -0.67051081534E+01 -0.37765042505E+02  0.33327912873E+02  0.50812465864E+02  0.00000000000E+00 0.  1.
         14    1    6    6    0    0  0.16543674510E+02  0.40447644294E+02  0.42576340838E+02  0.61011883223E+02  0.00000000000E+00 0. -1.
         -5    1    3    3    0  503 -0.62987045977E+02  0.28255548473E+02  0.45608909499E+02  0.82873437277E+02  0.47000000000E+01 0.  1.
         11    1    4    4    0    0  0.68473813987E+01  0.41695133978E+02 -0.20941979457E+02  0.47158640068E+02  0.00000000000E+00 0. -1.
        -12    1    4    4    0    0  0.34456044033E+02 -0.32597003933E+02 -0.87658267749E+01  0.48235084273E+02  0.00000000000E+00 0.  1.
</event>
<event>
12    1  0.8271773E-002  0.2429159E+03  0.7818608E-02  0.1117924E+00
         21   -1    0    0  501  502  0.00000000000E+00  0.00000000000E+00  0.29336582979E+02  0.29336582979E+02  0.00000000000E+00 0.  1.
         21   -1    0    0  502  503 -0.00000000000E+00 -0.00000000000E+00 -0.21678900491E+04  0.21678900491E+04  0.00000000000E+00 0.  1.
         -6    2    1    2    0  503 -0.16657141711E+03 -0.30451231186E+02 -0.77065415689E+03  0.80792586071E+03  0.17367513466E+03 0.  0.
        -24    2    3    3    0    0 -0.12943581732E+03 -0.46142755763E+01 -0.73396575223E+03  0.74949016884E+03  0.79087707063E+02 0.  0.
          6    2    1    2  501    0  0.16657141711E+03  0.30451231186E+02 -0.13678993093E+04  0.13893007714E+04  0.17416887966E+03 0.  0.
         24    2    5    5    0    0  0.78060886503E+02  0.89714583206E+01 -0.11002021389E+04  0.11064945485E+04  0.87814864494E+02 0.  0.
          5    1    5    5  501    0  0.88510530608E+02  0.21479772866E+02 -0.26769717038E+03  0.28280622288E+03  0.47000000000E+01 0. -1.
        -11    1    6    6    0    0  0.84847239452E+02  0.28491971993E+02 -0.69122587231E+03  0.69699645126E+03  0.00000000000E+00 0.  1.
         12    1    6    6    0    0 -0.67863529496E+01 -0.19520513672E+02 -0.40897626659E+03  0.40949809727E+03  0.00000000000E+00 0. -1.
         -5    1    3    3    0  503 -0.37135599796E+02 -0.25836955610E+02 -0.36688404658E+02  0.58435691865E+02  0.47000000000E+01 0.  1.
         11    1    4    4    0    0 -0.13210404797E+02  0.22412691418E+02 -0.65866268042E+02  0.70818138900E+02  0.00000000000E+00 0. -1.
        -12    1    4    4    0    0 -0.11622541252E+03 -0.27026966994E+02 -0.66809948419E+03  0.67867202994E+03  0.00000000000E+00 0.  1.
</event>
<event>
12    1  0.8271773E-002  0.2385817E+03  0.7818608E-02  0.1120799E+00
         21   -1    0    0  503  502  0.00000000000E+00  0.00000000000E+00  0.74267619079E+03  0.74267619079E+03  0.00000000000E+00 0. -1.
         21   -1    0    0  501  503 -0.00000000000E+00 -0.00000000000E+00 -0.79779854209E+02  0.79779854209E+02  0.00000000000E+00 0.  1.
          6    2    1    2  501    0 -0.10547605313E+03 -0.12698200204E+03  0.41417069781E+03  0.47780304053E+03  0.17178111650E+03 0.  0.
         24    2    3    3    0    0 -0.70448406376E+02 -0.11955102381E+03  0.17992473030E+03  0.24078949921E+03  0.79694724412E+02 0.  0.
         -6    2    1    2    0  502  0.10547605313E+03  0.12698200204E+03  0.24872563877E+03  0.34465300447E+03  0.17225453110E+03 0.  0.
        -24    2    5    5    0    0  0.33464176499E+02  0.13617739962E+03  0.20088903029E+03  0.25758580731E+03  0.79560733763E+02 0.  0.
          5    1    3    3  501    0 -0.35027646750E+02 -0.74309782283E+01  0.23424596751E+03  0.23701354132E+03  0.47000000000E+01 0. -1.
        -13    1    4    4    0    0 -0.68559342067E+02 -0.10648200419E+03  0.18696886057E+03  0.22582328362E+03  0.00000000000E+00 0.  1.
         14    1    4    4    0    0 -0.18890643085E+01 -0.13069019622E+02 -0.70441302685E+01  0.14966215590E+02  0.00000000000E+00 0. -1.
         -5    1    5    5    0  502  0.72011876626E+02 -0.91953975828E+01  0.47836608478E+02  0.87067197167E+02  0.47000000000E+01 0.  1.
         11    1    6    6    0    0  0.16772666505E+01  0.61921879323E+01  0.70359174729E+02  0.70651043045E+02  0.00000000000E+00 0. -1.
        -12    1    6    6    0    0  0.31786909849E+02  0.12998521169E+03  0.13052985556E+03  0.18693476426E+03  0.00000000000E+00 0.  1.
</event>
<event>
12    1  0.8271773E-002  0.1906469E+03  0.7818608E-02  0.1157890E+00
         21   -1    0    0  501  502  0.00000000000E+00  0.00000000000E+00  0.80757384487E+03  0.80757384487E+03  0.00000000000E+00 0.  1.
         21   -1    0    0  502  503 -0.00000000000E+00 -0.00000000000E+00 -0.45151570446E+02  0.45151570446E+02  0.00000000000E+00 0. -1.
         -6    2    1    2    0  503 -0.34035878460E+02  0.75599984301E+02  0.40637979763E+03  0.44887724962E+03  0.17167541074E+03 0.  0.
        -24    2    3    3    0    0 -0.69233377090E+02  0.69525422490E+01  0.16994260080E+03  0.20012843404E+03  0.79556924242E+02 0.  0.
          6    2    1    2  501    0  0.34035878460E+02 -0.75599984301E+02  0.35604247680E+03  0.40384816570E+03  0.17161962885E+03 0.  0.
         24    2    5    5    0    0 -0.21504545267E+02 -0.79081454092E+01  0.26756167818E+03  0.27927744104E+03  0.76691937055E+02 0.  0.
          5    1    5    5  501    0  0.55540423727E+02 -0.67691838892E+02  0.88480798617E+02  0.12457072467E+03  0.47000000000E+01 0. -1.
        -11    1    6    6    0    0  0.13406037425E+01  0.91622335632E+01  0.23807834901E+03  0.23825835560E+03  0.00000000000E+00 0.  1.
         12    1    6    6    0    0 -0.22845149009E+02 -0.17070378972E+02  0.29483329169E+02  0.41019085441E+02  0.00000000000E+00 0. -1.
         -5    1    3    3    0  503  0.35197498630E+02  0.68647442052E+02  0.23643719683E+03  0.24874881558E+03  0.47000000000E+01 0.  1.
         13    1    4    4    0    0 -0.44363756638E+02  0.40681629309E+02  0.73691837632E+02  0.95150537570E+02  0.00000000000E+00 0. -1.
        -14    1    4    4    0    0 -0.24869620452E+02 -0.33729087060E+02  0.96250763171E+02  0.10497789647E+03  0.00000000000E+00 0.  1.
</event>
<event>
12    1  0.8271773E-002  0.2589494E+03  0.7818608E-02  0.1107810E+00
         21   -1    0    0  501  502  0.00000000000E+00  0.00000000000E+00  0.12194847176E+04  0.12194847176E+04  0.00000000000E+00 0.  1.
         21   -1    0    0  502  503 -0.00000000000E+00 -0.00000000000E+00 -0.16072974613E+03  0.16072974613E+03  0.00000000000E+00 0.  1.
         -6    2    1    2    0  503  0.17876174743E+03  0.72926749322E+02 -0.30580875293E+02  0.26052371077E+03  0.17223048751E+03 0.  0.
        -24    2    3    3    0    0  0.27140647318E+02  0.62430747495E+02  0.22776437351E+01  0.10495733803E+03  0.79853880152E+02 0.  0.
          6    2    1    2  501    0 -0.17876174743E+03 -0.72926749322E+02  0.10893358467E+04  0.11196907529E+04  0.17257091913E+03 0.  0.
         24    2    5    5    0    0 -0.16368692588E+02 -0.26516515335E+02  0.27174778556E+03  0.28482684676E+03  0.79425524814E+02 0.  0.
          5    1    5    5  501    0 -0.16239305485E+03 -0.46410233986E+02  0.81758806116E+03  0.83486390617E+03  0.47000000000E+01 0. -1.
        -13    1    6    6    0    0 -0.11370626429E+02  0.28180567231E+02  0.98521856099E+02  0.10310185083E+03  0.00000000000E+00 0.  1.
         14    1    6    6    0    0 -0.49980661593E+01 -0.54697082566E+02  0.17322592946E+03  0.18172499593E+03  0.00000000000E+00 0. -1.
         -5    1    3    3    0  503  0.15162110012E+03  0.10496001827E+02 -0.32858519028E+02  0.15556637274E+03  0.47000000000E+01 0.  1.
         11    1    4    4    0    0  0.16177022127E+02  0.13703019903E+02 -0.36171150488E+02  0.41926375075E+02  0.00000000000E+00 0. -1.
        -12    1    4    4    0    0  0.10963625191E+02  0.48727727592E+02  0.38448794223E+02  0.63030962953E+02  0.00000000000E+00 0.  1.
</event>
<event>
12    1  0.8271773E-002  0.1933123E+03  0.7818608E-02  0.1155904E+00
         21   -1    0    0  503  502  0.00000000000E+00  0.00000000000E+00  0.53926355589E+03  0.53926355589E+03  0.00000000000E+00 0. -1.
         21   -1    0    0  501  503 -0.00000000000E+00 -0.00000000000E+00 -0.69156891259E+02  0.69156891259E+02  0.00000000000E+00 0. -1.
          6    2    1    2  501    0 -0.35195360699E+02 -0.77264730977E+02  0.21029540675E+03  0.28564630309E+03  0.17366951460E+03 0.  0.
         24    2    3    3    0    0  0.20716333047E+01 -0.97117387231E+02  0.21605713369E+03  0.24277155178E+03  0.53115560517E+02 0.  0.
         -6    2    1    2    0  502  0.35195360699E+02  0.77264730977E+02  0.25981125788E+03  0.32277414406E+03  0.17167616690E+03 0.  0.
        -24    2    5    5    0    0 -0.17923310725E+02  0.84439546564E+02  0.23606649114E+03  0.26396109125E+03  0.80602651094E+02 0.  0.
          5    1    3    3  501    0 -0.37266994004E+02  0.19852656253E+02 -0.57617269428E+01  0.42874751308E+02  0.47000000000E+01 0. -1.
        -11    1    4    4    0    0  0.18369062237E+02 -0.95345026747E+01  0.29507588286E+02  0.36042016525E+02  0.00000000000E+00 0.  1.
         12    1    4    4    0    0 -0.16297428933E+02 -0.87582884556E+02  0.18654954541E+03  0.20672953526E+03  0.00000000000E+00 0. -1.
         -5    1    5    5    0  502  0.53118671424E+02 -0.71748155868E+01  0.23744766736E+02  0.58813052802E+02  0.47000000000E+01 0.  1.
         11    1    6    6    0    0  0.21554452495E+02  0.30452150417E+02  0.31793594180E+02  0.49017961180E+02  0.00000000000E+00 0. -1.
        -12    1    6    6    0    0 -0.39477763220E+02  0.53987396147E+02  0.20427289696E+03  0.21494313007E+03  0.00000000000E+00 0.  1.
</event>
<event>
12    1  0.8271773E-002  0.2297413E+03  0.7818608E-02  0.1126954E+00
         21   -1    0    0  501  502  0.00000000000E+00  0.00000000000E+00  0.43462699092E+02  0.43462699092E+02  0.00000000000E+00 0. -1.
         21   -1    0    0  502  503 -0.00000000000E+00 -0.00000000000E+00 -0.12369234153E+04  0.12369234153E+04  0.00000000000E+00 0. -1.
         -6    2    1    2    0  503 -0.15111448709E+03  0.10315325767E+01 -0.68943260698E+03  0.72646789424E+03  0.17205124103E+03 0.  0.
        -24    2    3    3    0    0 -0.85681686502E+02  0.54269400755E+02 -0.53350738134E+03  0.54912503989E+03  0.81373608937E+02 0.  0.
          6    2    1    2  501    0  0.15111448709E+03 -0.10315325767E+01 -0.50402810925E+03  0.55391822017E+03  0.17304452447E+03 0.  0.
         24    2    5    5    0    0  0.13282807474E+02  0.43931777981E+01 -0.11338261179E+03  0.13960795711E+03  0.80243579468E+02 0.  0.
          5    1    5    5  501    0  0.13783167962E+03 -0.54247103748E+01 -0.39064549746E+03  0.41431026306E+03  0.47000000000E+01 0. -1.
        -13    1    6    6    0    0 -0.19464214187E+02  0.68976581134E+01 -0.10316669769E+03  0.10521312101E+03  0.00000000000E+00 0.  1.
         14    1    6    6    0    0  0.32747021660E+02 -0.25044803153E+01 -0.10215914107E+02  0.34394836100E+02  0.00000000000E+00 0. -1.
         -5    1    3    3    0  503 -0.65432800587E+02 -0.53237868178E+02 -0.15592522563E+03  0.17734285435E+03  0.47000000000E+01 0.  1.
         11    1    4    4    0    0 -0.51471049114E+02 -0.12325416775E+02 -0.27249886498E+03  0.27759109534E+03  0.00000000000E+00 0. -1.
        -12    1    4    4    0    0 -0.34210637388E+02  0.66594817530E+02 -0.26100851636E+03  0.27153394456E+03  0.00000000000E+00 0.  1.
</event>
<event>
12    1  0.8271773E-002  0.2029778E+03  0.7818608E-02  0.1147557E+00
         21   -1    0    0  503  502  0.00000000000E+00  0.00000000000E+00  0.32444253502E+03  0.32444253502E+03  0.00000000000E+00 0.  1.
         21   -1    0    0  501  503 -0.00000000000E+00 -0.00000000000E+00 -0.13812598354E+03  0.13812598354E+03  0.00000000000E+00 0.  1.
          6    2    1    2  501    0  0.24423700778E+02  0.10303608349E+03  0.16118731210E+03  0.25804109827E+03  0.17143776466E+03 0.  0.
         24    2    3    3    0    0  0.92968659350E+01  0.12522722813E+03  0.17415984865E+03  0.22784764306E+03  0.76253558514E+02 0.  0.
         -6    2    1    2    0  502 -0.24423700778E+02 -0.10303608349E+03  0.25129239378E+02  0.20452742029E+03  0.17316765089E+03 0.  0.
        -24    2    5    5    0    0 -0.60352641517E+01  0.97794956519E+01  0.40927290226E+02  0.89040806735E+02  0.78237837586E+02 0.  0.
          5    1    3    3  501    0  0.15126834843E+02 -0.22191144641E+02 -0.12972536547E+02  0.30193455207E+02  0.47000000000E+01 0. -1.
        -11    1    4    4    0    0  0.39839892253E+01  0.11501926604E+02 -0.68823505035E+01  0.13983319857E+02  0.00000000000E+00 0.  1.
         12    1    4    4    0    0  0.53128767097E+01  0.11372530153E+03  0.18104219915E+03  0.21386432321E+03  0.00000000000E+00 0. -1.
         -5    1    5    5    0  502 -0.18388436626E+02 -0.11281557914E+03 -0.15798050848E+02  0.11548661355E+03  0.47000000000E+01 0.  1.
         11    1    6    6    0    0 -0.10805513620E+01 -0.82241980054E+01 -0.21941736281E+02  0.23457297694E+02  0.00000000000E+00 0. -1.
        -12    1    6    6    0    0 -0.49547127897E+01  0.18003693657E+02  0.62869026507E+02  0.65583509041E+02  0.00000000000E+00 0.  1.
</event>
<event>
12    1  0.8271773E-002  0.1761834E+03  0.7818608E-02  0.1171586E+00
         21   -1    0    0  503  502  0.00000000000E+00  0.00000000000E+00  0.10166499939E+03  0.10166499939E+03  0.00000000000E+00 0.  1.
         21   -1    0    0  501  503 -0.00000000000E+00 -0.00000000000E+00 -0.39153175084E+03  0.39153175084E+03  0.00000000000E+00 0.  1.
          6    2    1    2  501    0  0.41832033649E+02 -0.21707760358E+02 -0.26087076198E+03  0.31479225274E+03  0.16976295834E+03 0.  0.
         24    2    3    3    0    0 -0.12482276125E+02 -0.32275610264E+02 -0.24035981163E+03  0.25559332722E+03  0.79734482105E+02 0.  0.
         -6    2    1    2    0  502 -0.41832033649E+02  0.21707760358E+02 -0.28995989465E+02  0.17840449750E+03  0.16960616564E+03 0.  0.
        -24    2    5    5    0    0  0.11906689727E+02 -0.40495943447E+02 -0.34790163300E+02  0.95864727644E+02  0.78727376737E+02 0.  0.
          5    1    3    3  501    0  0.54314309773E+02  0.10567849905E+02 -0.20510950350E+02  0.59198925514E+02  0.47000000000E+01 0. -1.
        -13    1    4    4    0    0  0.14569514936E+02  0.13961228251E+02 -0.14345791562E+03  0.14487014950E+03  0.00000000000E+00 0.  1.
         14    1    4    4    0    0 -0.27051791061E+02 -0.46236838515E+02 -0.96901896010E+02  0.11072317773E+03  0.00000000000E+00 0. -1.
         -5    1    5    5    0  502 -0.53738723376E+02  0.62203703806E+02  0.57941738351E+01  0.82539769855E+02  0.47000000000E+01 0.  1.
         11    1    6    6    0    0  0.43611388332E+01 -0.13182836713E+00 -0.51388668269E+02  0.51573560447E+02  0.00000000000E+00 0. -1.
        -12    1    6    6    0    0  0.75455508941E+01 -0.40364115080E+02  0.16598504969E+02  0.44291167198E+02  0.00000000000E+00 0.  1.
</event>
<event>
12    1  0.8271773E-002  0.2648255E+03  0.7818608E-02  0.1104295E+00
         21   -1    0    0  503  502  0.00000000000E+00  0.00000000000E+00  0.54606215099E+03  0.54606215099E+03  0.00000000000E+00 0.  1.
         21   -1    0    0  501  503 -0.00000000000E+00 -0.00000000000E+00 -0.18434790460E+03  0.18434790460E+03  0.00000000000E+00 0.  1.
          6    2    1    2  501    0 -0.15359543427E+03 -0.13048733203E+03 -0.20349328403E+02  0.26560621032E+03  0.17179657315E+03 0.  0.
         24    2    3    3    0    0 -0.10461042164E+03 -0.83102408605E+01 -0.70065848458E+01  0.13321704205E+03  0.81763608303E+02 0.  0.
         -6    2    1    2    0  502  0.15359543427E+03  0.13048733203E+03  0.38206357479E+03  0.46480384528E+03  0.17161450451E+03 0.  0.
        -24    2    5    5    0    0  0.37152590628E+02  0.10332494773E+03  0.26531271388E+03  0.29762255303E+03  0.78307011887E+02 0.  0.
          5    1    3    3  501    0 -0.48985012622E+02 -0.12217709117E+03 -0.13342743557E+02  0.13238916826E+03  0.47000000000E+01 0. -1.
        -13    1    4    4    0    0 -0.85393975660E+02 -0.15406500017E+02 -0.39074560420E+02  0.95164660425E+02  0.00000000000E+00 0.  1.
         14    1    4    4    0    0 -0.19216445985E+02  0.70962591563E+01  0.32067975574E+02  0.38052381630E+02  0.00000000000E+00 0. -1.
         -5    1    5    5    0  502  0.11644284364E+03  0.27162384292E+02  0.11675086091E+03  0.16718129225E+03  0.47000000000E+01 0.  1.
         13    1    6    6    0    0  0.19553224484E+02 -0.14762132314E+01  0.12169132544E+02  0.23078032413E+02  0.00000000000E+00 0. -1.
        -14    1    6    6    0    0  0.17599366144E+02  0.10480116097E+03  0.25314358134E+03  0.27454452062E+03  0.00000000000E+00 0.  1.
</event>
<event>
12    1  0.8271773E-002  0.2029129E+03  0.7818608E-02  0.1147484E+00
         21   -1    0    0  501  502  0.00000000000E+00  0.00000000000E+00  0.21929150510E+03  0.21929150510E+03  0.00000000000E+00 0. -1.
         21   -1    0    0  502  503 -0.00000000000E+00 -0.00000000000E+00 -0.33051644258E+03  0.33051644258E+03  0.00000000000E+00 0.  1.
         -6    2    1    2    0  503 -0.51576048969E+00  0.10582987754E+03 -0.23685520453E+03  0.31188784717E+03  0.17312831170E+03 0.  0.
        -24    2    3    3    0    0 -0.71467156780E+01  0.23767358694E+02 -0.29474152280E+02  0.88712540748E+02  0.79907611334E+02 0.  0.
          6    2    1    2  501    0  0.51576048969E+00 -0.10582987754E+03  0.12563026705E+03  0.23792010050E+03  0.17211269923E+03 0.  0.
         24    2    5    5    0    0  0.28191654447E+02 -0.13613123868E+03  0.97089708424E+02  0.18771271977E+03  0.80518135572E+02 0.  0.
          5    1    5    5  501    0 -0.27675893957E+02  0.30301361145E+02  0.28540558625E+02  0.50207380734E+02  0.47000000000E+01 0. -1.
        -13    1    6    6    0    0  0.29526912382E+02 -0.10318171805E+03  0.27630651727E+02  0.11082309510E+03  0.00000000000E+00 0.  1.
         14    1    6    6    0    0 -0.13352579345E+01 -0.32949520635E+02  0.69459056697E+02  0.76889624664E+02  0.00000000000E+00 0. -1.
         -5    1    3    3    0  503  0.66309551883E+01  0.82062518842E+02 -0.20738105225E+03  0.22317530642E+03  0.47000000000E+01 0.  1.
         11    1    4    4    0    0  0.24759088452E+02 -0.18076301570E+02 -0.15053653217E+02  0.34152271002E+02  0.00000000000E+00 0. -1.
        -12    1    4    4    0    0 -0.31905804130E+02  0.41843660264E+02 -0.14420499063E+02  0.54560269745E+02  0.00000000000E+00 0.  1.
</event>
<event>
12    1  0.8271773E-002  0.2097399E+03  0.7818608E-02  0.1142102E+00
         21   -1    0    0  503  502  0.00000000000E+00  0.00000000000E+00  0.25695836781E+03  0.25695836781E+03  0.00000000000E+00 0. -1.
         21   -1    0    0  501  503 -0.00000000000E+00 -0.00000000000E+00 -0.32856058651E+03  0.32856058651E+03  0.00000000000E+00 0. -1.
          6    2    1    2  501    0  0.39233388177E+02 -0.11372712788E+03 -0.23934802047E+03  0.31824254485E+03  0.17180722943E+03 0.  0.
         24    2    3    3    0    0 -0.43258709867E+01 -0.12978417314E+03 -0.13801265748E+03  0.20668008004E+03  0.82501618797E+02 0.  0.
         -6    2    1    2    0  502 -0.39233388177E+02  0.11372712788E+03  0.16774580177E+03  0.26727640948E+03  0.16977899366E+03 0.  0.
        -24    2    5    5    0    0  0.27285285979E+02  0.10113431948E+03  0.13877970582E+03  0.19348997746E+03  0.84887733060E+02 0.  0.
          5    1    3    3  501    0  0.43559259163E+02  0.16057045260E+02 -0.10133536299E+03  0.11156246480E+03  0.47000000000E+01 0. -1.
        -13    1    4    4    0    0  0.13101552344E+02  0.51867151605E+01 -0.19272694826E+01  0.14222062285E+02  0.00000000000E+00 0.  1.
         14    1    4    4    0    0 -0.17427423331E+02 -0.13497088830E+03 -0.13608538800E+03  0.19245801776E+03  0.00000000000E+00 0. -1.
         -5    1    5    5    0  502 -0.66518674156E+02  0.12592808398E+02  0.28966095955E+02  0.73786432016E+02  0.47000000000E+01 0.  1.
         11    1    6    6    0    0  0.37679733045E+02  0.87390387957E+02  0.59226841083E+02  0.11209219819E+03  0.00000000000E+00 0. -1.
        -12    1    6    6    0    0 -0.10394447066E+02  0.13743931523E+02  0.79552864736E+02  0.81397779277E+02  0.00000000000E+00 0.  1.
</event>
<event>
12    1  0.8271773E-002  0.1756076E+03  0.7818608E-02  0.1172338E+00
         21   -1    0    0  503  502  0.00000000000E+00  0.00000000000E+00  0.17373000511E+03  0.17373000511E+03  0.00000000000E+00 0.  1.
         21   -1    0    0  501  503 -0.00000000000E+00 -0.00000000000E+00 -0.24322908980E+03  0.24322908980E+03  0.00000000000E+00 0.  1.
          6    2    1    2  501    0  0.30109624447E+02  0.11144639470E+02 -0.14377210166E+03  0.22629047717E+03  0.17177360207E+03 0.  0.
         24    2    3    3    0    0  0.50584548687E+02  0.57974164597E+02 -0.13400035690E+03  0.17404295147E+03  0.80094025872E+02 0.  0.
         -6    2    1    2    0  502 -0.30109624447E+02 -0.11144639470E+02  0.74273016960E+02  0.19066861774E+03  0.17264775779E+03 0.  0.
        -24    2    5    5    0    0  0.21216439194E+02 -0.48943318287E+02  0.83135399453E+02  0.12614159431E+03  0.78451395634E+02 0.  0.
          5    1    3    3  501    0 -0.20474924240E+02 -0.46829525127E+02 -0.97717447583E+01  0.52247525701E+02  0.47000000000E+01 0. -1.
        -11    1    4    4    0    0  0.97878041044E+01 -0.18483644831E+02 -0.46016597073E+02  0.50546745114E+02  0.00000000000E+00 0.  1.
         12    1    4    4    0    0  0.40796744583E+02  0.76457809428E+02 -0.87983759825E+02  0.12349620635E+03  0.00000000000E+00 0. -1.
         -5    1    5    5    0  502 -0.51326063641E+02  0.37798678817E+02 -0.88623824926E+01  0.64527023429E+02  0.47000000000E+01 0.  1.
         13    1    6    6    0    0 -0.19731464220E+02  0.10724020389E+02  0.21369853099E+02  0.31000095403E+02  0.00000000000E+00 0. -1.
        -14    1    6    6    0    0  0.40947903414E+02 -0.59667338675E+02  0.61765546354E+02  0.95141498911E+02  0.00000000000E+00 0.  1.
</event>
<event>
12    1  0.8271773E-002  0.1866294E+03  0.7818608E-02  0.1161585E+00
         21   -1    0    0  503  502  0.00000000000E+00  0.00000000000E+00  0.15802265978E+03  0.15802265978E+03  0.00000000000E+00 0. -1.
         21   -1    0    0  501  503 -0.00000000000E+00 -0.00000000000E+00 -0.22938274008E+03  0.22938274008E+03  0.00000000000E+00 0. -1.
          6    2    1    2  501    0  0.62999697986E+02 -0.34654589746E+02 -0.74521520202E+02  0.20095770561E+03  0.17222264640E+03 0.  0.
         24    2    3    3    0    0 -0.24894873608E+02 -0.37921697387E+02 -0.66840387448E+02  0.11254266442E+03  0.78360730317E+02 0.  0.
         -6    2    1    2    0  502 -0.62999697986E+02  0.34654589746E+02  0.31614398959E+01  0.18644769425E+03  0.17199664373E+03 0.  0.
        -24    2    5    5    0    0 -0.71597000589E+02  0.73211175916E+02  0.34616077206E+02  0.13573272450E+03  0.82091978449E+02 0.  0.
          5    1    3    3  501    0  0.87894571594E+02  0.32671076417E+01 -0.76811327541E+01  0.88415041188E+02  0.47000000000E+01 0. -1.
        -11    1    4    4    0    0 -0.76206242691E+01 -0.55918702406E+02 -0.20740347765E+02  0.60126011164E+02  0.00000000000E+00 0.  1.
         12    1    4    4    0    0 -0.17274249339E+02  0.17997005019E+02 -0.46100039683E+02  0.52416653256E+02  0.00000000000E+00 0. -1.
         -5    1    5    5    0  502  0.85973026033E+01 -0.38556586170E+02 -0.31454637310E+02  0.50714969757E+02  0.47000000000E+01 0.  1.
         13    1    6    6    0    0 -0.88453182211E+02  0.47699947981E+02  0.23573682639E+02  0.10322290925E+03  0.00000000000E+00 0. -1.
        -14    1    6    6    0    0  0.16856181622E+02  0.25511227935E+02  0.11042394567E+02  0.32509815247E+02  0.00000000000E+00 0.  1.
</event>
<event>
12    1  0.8271773E-002  0.1779446E+03  0.7818608E-02  0.1170281E+00
         21   -1    0    0  503  502  0.00000000000E+00  0.00000000000E+00  0.18983191914E+03  0.18983191914E+03  0.00000000000E+00 0.  1.
         21   -1    0    0  501  503 -0.00000000000E+00 -0.00000000000E+00 -0.19762873178E+03  0.19762873178E+03  0.00000000000E+00 0.  1.
          6    2    1    2  501    0 -0.46829864976E+02  0.89409292910E+01 -0.82586942889E+02  0.19443777887E+03  0.16944754423E+03 0.  0.
         24    2    3    3    0    0 -0.33719115732E+02 -0.59871885403E+02 -0.45038582880E+02  0.11481953629E+03  0.80208668726E+02 0.  0.
         -6    2    1    2    0  502  0.46829864976E+02 -0.89409292910E+01  0.74790130252E+02  0.19302287206E+03  0.17143887856E+03 0.  0.
        -24    2    5    5    0    0 -0.73431933460E+01 -0.34685300232E+02 -0.10120284588E+02  0.88958654232E+02  0.80958195768E+02 0.  0.
          5    1    3    3  501    0 -0.13110749245E+02  0.68812814694E+02 -0.37548360010E+02  0.79618242579E+02  0.47000000000E+01 0. -1.
        -13    1    4    4    0    0 -0.54397815083E+02 -0.20993085389E+02 -0.11415975858E+02  0.59415119496E+02  0.00000000000E+00 0.  1.
         14    1    4    4    0    0  0.20678699351E+02 -0.38878800015E+02 -0.33622607022E+02  0.55404416795E+02  0.00000000000E+00 0. -1.
         -5    1    5    5    0  502  0.54173058322E+02  0.25744370941E+02  0.84910414839E+02  0.10406421782E+03  0.47000000000E+01 0.  1.
         13    1    6    6    0    0  0.26584283290E+02 -0.44107084758E+02  0.24848089531E+01  0.51559027526E+02  0.00000000000E+00 0. -1.
        -14    1    6    6    0    0 -0.33927476636E+02  0.94217845267E+01 -0.12605093541E+02  0.37399626706E+02  0.00000000000E+00 0.  1.
</event>
<event>
12    1  0.8271773E-002  0.2204453E+03  0.7818608E-02  0.1133794E+00
         21   -1    0    0  503  502  0.00000000000E+00  0.00000000000E+00  0.29604629079E+03  0.29604629079E+03  0.00000000000E+00 0.  1.
         21   -1    0    0  501  503 -0.00000000000E+00 -0.00000000000E+00 -0.28115804507E+03  0.28115804507E+03  0.00000000000E+00 0. -1.
          6    2    1    2  501    0  0.46659717657E+02  0.12694848527E+03 -0.17948972847E+03  0.28427575048E+03  0.17407783466E+03 0.  0.
         24    2    3    3    0    0  0.13526370712E+02  0.61836502378E+02 -0.12872512907E+02  0.10228460916E+03  0.79307779895E+02 0.  0.
         -6    2    1    2    0  502 -0.46659717657E+02 -0.12694848527E+03  0.19437797419E+03  0.29292858539E+03  0.17242770115E+03 0.  0.
        -24    2    5    5    0    0 -0.75067990555E+02 -0.12979676884E+03  0.14684323363E+03  0.23727982756E+03  0.11070852223E+03 0.  0.
          5    1    3    3  501    0  0.33133346945E+02  0.65111982887E+02 -0.16661721556E+03  0.18199114131E+03  0.47000000000E+01 0. -1.
        -13    1    4    4    0    0  0.38094797819E+02  0.11525751906E+02 -0.22124469602E+02  0.45536235385E+02  0.00000000000E+00 0.  1.
         14    1    4    4    0    0 -0.24568427107E+02  0.50310750473E+02  0.92519566943E+01  0.56748373777E+02  0.00000000000E+00 0. -1.
         -5    1    5    5    0  502  0.28408272898E+02  0.28482835718E+01  0.47534740556E+02  0.55648757831E+02  0.47000000000E+01 0.  1.
         11    1    6    6    0    0  0.28819460469E+02 -0.38104100703E+02  0.35427619416E+02  0.59477727004E+02  0.00000000000E+00 0. -1.
        -12    1    6    6    0    0 -0.10388745102E+03 -0.91692668134E+02  0.11141561422E+03  0.17780210055E+03  0.00000000000E+00 0.  1.
</event>
<event>
12    1  0.8271773E-002  0.1949688E+03  0.7818608E-02  0.1154633E+00
         21   -1    0    0  501  502  0.00000000000E+00  0.00000000000E+00  0.62549068804E+02  0.62549068804E+02  0.00000000000E+00 0.  1.
         21   -1    0    0  502  503 -0.00000000000E+00 -0.00000000000E+00 -0.61351587944E+03  0.61351587944E+03  0.00000000000E+00 0.  1.
         -6    2    1    2    0  503  0.90945415320E+02  0.65710458217E+01 -0.32465865031E+03  0.37735405095E+03  0.16934755192E+03 0.  0.
        -24    2    3    3    0    0  0.80891105462E+02 -0.29990805305E+02 -0.31791411293E+03  0.33855409104E+03  0.78145185499E+02 0.  0.
          6    2    1    2  501    0 -0.90945415320E+02 -0.65710458217E+01 -0.22630816033E+03  0.29871089729E+03  0.17233272910E+03 0.  0.
         24    2    5    5    0    0 -0.88591431767E+02 -0.27610065180E+02 -0.66342110175E+02  0.13728162865E+03  0.76382016858E+02 0.  0.
          5    1    5    5  501    0 -0.23539835529E+01  0.21039019358E+02 -0.15996605015E+03  0.16142926865E+03  0.47000000000E+01 0. -1.
        -13    1    6    6    0    0 -0.54639695761E+02  0.16392570411E+02 -0.95872950626E+01  0.57845734019E+02  0.00000000000E+00 0.  1.
         14    1    6    6    0    0 -0.33951736006E+02 -0.44002635591E+02 -0.56754815113E+02  0.79435894627E+02  0.00000000000E+00 0. -1.
         -5    1    3    3    0  503  0.10054309858E+02  0.36561851126E+02 -0.67445373775E+01  0.38799959909E+02  0.47000000000E+01 0.  1.
         11    1    4    4    0    0 -0.11857631061E+02  0.92804357957E+01 -0.30748666208E+02  0.34237557981E+02  0.00000000000E+00 0. -1.
        -12    1    4    4    0    0  0.92748736523E+02 -0.39271241100E+02 -0.28716544672E+03  0.30431653306E+03  0.00000000000E+00 0.  1.
</event>
<event>
12    1  0.8271773E-002  0.2083356E+03  0.7818608E-02  0.1145087E+00
         21   -1    0    0  501  502  0.00000000000E+00  0.00000000000E+00  0.99522892963E+03  0.99522892963E+03  0.00000000000E+00 0. -1.
         21   -1    0    0  502  503 -0.00000000000E+00 -0.00000000000E+00 -0.44264766658E+02  0.44264766658E+02  0.00000000000E+00 0. -1.
         -6    2    1    2    0  503 -0.65841315873E+01 -0.96866653179E+02  0.33173968328E+03  0.38616172309E+03  0.17217188979E+03 0.  0.
        -24    2    3    3    0    0 -0.25307316631E+02 -0.62202014481E+02  0.33068649821E+03  0.34647048939E+03  0.78604637500E+02 0.  0.
          6    2    1    2  501    0  0.65841315873E+01  0.96866653179E+02  0.61922447969E+03  0.65333197320E+03  0.18432908523E+03 0.  0.
         24    2    5    5    0    0 -0.23433595548E+02  0.35440132711E+02  0.12542516850E+03  0.15479999719E+03  0.80165016255E+02 0.  0.
          5    1    5    5  501    0  0.30017727135E+02  0.61426520468E+02  0.49379931120E+03  0.49853197601E+03  0.47000000000E+01 0. -1.
        -11    1    6    6    0    0 -0.47101554307E+02 -0.51681247730E+00  0.56798199575E+02  0.73789287761E+02  0.00000000000E+00 0.  1.
         12    1    6    6    0    0  0.23667958759E+02  0.35956945188E+02  0.68626968920E+02  0.81010709429E+02  0.00000000000E+00 0. -1.
         -5    1    3    3    0  503  0.18723185044E+02 -0.34664638698E+02  0.10531850670E+01  0.39691233705E+02  0.47000000000E+01 0.  1.
         11    1    4    4    0    0 -0.54427781641E+01 -0.94562587527E+01 -0.10539459837E+00  0.10911268110E+02  0.00000000000E+00 0. -1.
        -12    1    4    4    0    0 -0.19864538467E+02 -0.52745755728E+02  0.33079189281E+03  0.33555922128E+03  0.00000000000E+00 0.  1.
</event>
<event>
12    1  0.8271773E-002  0.1718708E+03  0.7818608E-02  0.1176694E+00
         21   -1    0    0  503  502  0.00000000000E+00  0.00000000000E+00  0.19162012591E+03  0.19162012591E+03  0.00000000000E+00 0.  1.
         21   -1    0    0  501  503 -0.00000000000E+00 -0.00000000000E+00 -0.17957165787E+03  0.17957165787E+03  0.00000000000E+00 0.  1.
          6    2    1    2  501    0  0.38966761625E+01 -0.46148351551E+01 -0.67447964350E+02  0.18182635973E+03  0.16874571523E+03 0.  0.
         24    2    3    3    0    0  0.14819445751E+02 -0.37803061623E+02  0.16086776370E+02  0.91157135738E+02  0.80013446255E+02 0.  0.
         -6    2    1    2    0  502 -0.38966761625E+01  0.46148351551E+01  0.79496432394E+02  0.18936542405E+03  0.17176466538E+03 0.  0.
        -24    2    5    5    0    0 -0.80665758989E+01  0.42581965533E+02 -0.10304486418E+02  0.91665955922E+02  0.80113491993E+02 0.  0.
          5    1    3    3  501    0 -0.10922769589E+02  0.33188226468E+02 -0.83534740719E+02  0.90669223988E+02  0.47000000000E+01 0. -1.
        -13    1    4    4    0    0  0.28635607396E+01 -0.39402769318E+02 -0.26053776914E+02  0.47324174600E+02  0.00000000000E+00 0.  1.
         14    1    4    4    0    0  0.11955885012E+02  0.15997076955E+01  0.42140553284E+02  0.43832961139E+02  0.00000000000E+00 0. -1.
         -5    1    5    5    0  502  0.41698997365E+01 -0.37967130378E+02  0.89800918813E+02  0.97699468128E+02  0.47000000000E+01 0.  1.
         11    1    6    6    0    0  0.28939865450E+02  0.12990652688E+01  0.12713642254E+02  0.31636056679E+02  0.00000000000E+00 0. -1.
        -12    1    6    6    0    0 -0.37006441349E+02  0.41282900264E+02 -0.23018128672E+02  0.60029899243E+02  0.00000000000E+00 0.  1.
</event>
<event>
12    1  0.8271773E-002  0.2453824E+03  0.7818608E-02  0.1116262E+00
         21   -1    0    0  503  502  0.00000000000E+00  0.00000000000E+00  0.79128157881E+03  0.79128157881E+03  0.00000000000E+00 0.  1.
         21   -1    0    0  501  503 -0.00000000000E+00 -0.00000000000E+00 -0.80903353903E+02  0.80903353903E+02  0.00000000000E+00 0.  1.
          6    2    1    2  501    0 -0.17409630755E+03 -0.87960155088E+01  0.24878319176E+03  0.34942063999E+03  0.17266966426E+03 0.  0.
         24    2    3    3    0    0 -0.56418562785E+02  0.13443501509E+02  0.35400764371E+02  0.10468241647E+03  0.79632984631E+02 0.  0.
         -6    2    1    2    0  502  0.17409630755E+03  0.87960155088E+01  0.46159503315E+03  0.52276429273E+03  0.17270100442E+03 0.  0.
        -24    2    5    5    0    0  0.64857905332E+01  0.41299231732E+01  0.14705046818E+03  0.16628788230E+03  0.77257348295E+02 0.  0.
          5    1    3    3  501    0 -0.11767774477E+03 -0.22239517017E+02  0.21338242739E+03  0.24473822351E+03  0.47000000000E+01 0. -1.
        -11    1    4    4    0    0 -0.67860586318E+02  0.30154489423E+02  0.14656956652E+02  0.75691338911E+02  0.00000000000E+00 0.  1.
         12    1    4    4    0    0  0.11442023533E+02 -0.16710987915E+02  0.20743807719E+02  0.28991077564E+02  0.00000000000E+00 0. -1.
         -5    1    5    5    0  502  0.16761051702E+03  0.46660923356E+01  0.31454456497E+03  0.35647641042E+03  0.47000000000E+01 0.  1.
         13    1    6    6    0    0  0.72734193911E+01 -0.21475548976E+02  0.67348362550E+01  0.23652903687E+02  0.00000000000E+00 0. -1.
        -14    1    6    6    0    0 -0.78762885799E+00  0.25605472149E+02  0.14031563192E+03  0.14263497862E+03  0.00000000000E+00 0.  1.
</event>
<event>
12    1  0.8271773E-002  0.2172842E+03  0.7818608E-02  0.1136440E+00
         21   -1    0    0  501  502  0.00000000000E+00  0.00000000000E+00  0.89306957974E+02  0.89306957974E+02  0.00000000000E+00 0. -1.
         21   -1    0    0  502  503 -0.00000000000E+00 -0.00000000000E+00 -0.52978598336E+03  0.52978598336E+03  0.00000000000E+00 0.  1.
         -6    2    1    2    0  503 -0.11779304017E+03 -0.57714742919E+02 -0.25617945174E+03  0.33417408628E+03  0.16981818685E+03 0.  0.
        -24    2    3    3    0    0 -0.13626392953E+03 -0.80156861033E+02 -0.18024102907E+03  0.25272743836E+03  0.79945910950E+02 0.  0.
          6    2    1    2  501    0  0.11779304017E+03  0.57714742919E+02 -0.18429957365E+03  0.28491885505E+03  0.17322306214E+03 0.  0.
         24    2    5    5    0    0  0.10397823026E+03 -0.23337355835E+02 -0.13163988925E+03  0.18716700573E+03  0.79663812666E+02 0.  0.
          5    1    5    5  501    0  0.13814809911E+02  0.81052098754E+02 -0.52659684400E+02  0.97751849325E+02  0.47000000000E+01 0. -1.
        -11    1    6    6    0    0 -0.90529685691E+01 -0.15169759153E+02 -0.30627430135E+02  0.35356998025E+02  0.00000000000E+00 0.  1.
         12    1    6    6    0    0  0.11303119883E+03 -0.81675966815E+01 -0.10101245911E+03  0.15181000770E+03  0.00000000000E+00 0. -1.
         -5    1    3    3    0  503  0.18470889365E+02  0.22442118114E+02 -0.75938422672E+02  0.81446647919E+02  0.47000000000E+01 0.  1.
         11    1    4    4    0    0 -0.51545739014E+01 -0.38667997357E+02 -0.49029418354E+02  0.62655147561E+02  0.00000000000E+00 0. -1.
        -12    1    4    4    0    0 -0.13110935563E+03 -0.41488863676E+02 -0.13121161071E+03  0.19007229080E+03  0.00000000000E+00 0.  1.
</event>
<event>
12    1  0.8271773E-002  0.2782880E+03  0.7818608E-02  0.1096670E+00
         21   -1    0    0  503  502  0.00000000000E+00  0.00000000000E+00  0.88821621902E+03  0.88821621902E+03  0.00000000000E+00 0.  1.
         21   -1    0    0  501  503 -0.00000000000E+00 -0.00000000000E+00 -0.87138198624E+02  0.87138198624E+02  0.00000000000E+00 0.  1.
          6    2    1    2  501    0 -0.21479882232E+03  0.44487495296E+02  0.38989711826E+03  0.47902397589E+03  0.17124992070E+03 0.  0.
         24    2    3    3    0    0 -0.14739146049E+03 -0.41475130571E+01  0.14943323693E+03  0.22455573682E+03  0.79709109596E+02 0.  0.
         -6    2    1    2    0  502  0.21479882232E+03 -0.44487495296E+02  0.41118090213E+03  0.49633044175E+03  0.17075275056E+03 0.  0.
        -24    2    5    5    0    0  0.19422472381E+03  0.14690844309E+02  0.35257886251E+03  0.41041386328E+03  0.78667786544E+02 0.  0.
          5    1    3    3  501    0 -0.67407361837E+02  0.48635008353E+02  0.24046388134E+03  0.25446823907E+03  0.47000000000E+01 0. -1.
        -11    1    4    4    0    0 -0.10984904950E+03  0.30507219968E+02  0.84372864955E+02  0.14183188811E+03  0.00000000000E+00 0.  1.
         12    1    4    4    0    0 -0.37542410990E+02 -0.34654733025E+02  0.65060371971E+02  0.82723848707E+02  0.00000000000E+00 0. -1.
         -5    1    5    5    0  502  0.20574098513E+02 -0.59178339605E+02  0.58602039619E+02  0.85916578467E+02  0.47000000000E+01 0.  1.
         11    1    6    6    0    0  0.84067983084E+02  0.42793560456E+02  0.18867014574E+03  0.21093870790E+03  0.00000000000E+00 0. -1.
        -12    1    6    6    0    0  0.11015674073E+03 -0.28102716147E+02  0.16390871677E+03  0.19947515539E+03  0.00000000000E+00 0.  1.
</event>
<event>
12    1  0.8271773E-002  0.3836096E+03  0.7818608E-02  0.1049649E+00
         21   -1    0    0  501  502  0.00000000000E+00  0.00000000000E+00  0.16428140084E+04  0.16428140084E+04  0.00000000000E+00 0. -1.
         21   -1    0    0  502  503 -0.00000000000E+00 -0.00000000000E+00 -0.14695470823E+04  0.14695470823E+04  0.00000000000E+00 0.  1.
         -6    2    1    2    0  503 -0.32133287860E+03 -0.11860344087E+03 -0.14214345159E+04  0.14721693355E+04  0.17171160196E+03 0.  0.
        -24    2    3    3    0    0 -0.23650547215E+03 -0.46828695242E+02 -0.75240744263E+03  0.79396094731E+03  0.78289597509E+02 0.  0.
          6    2    1    2  501    0  0.32133287860E+03  0.11860344087E+03  0.15947014420E+04  0.16401917552E+04  0.17272726953E+03 0.  0.
         24    2    5    5    0    0  0.97528257622E+02  0.71438796332E+01  0.58168547774E+03  0.59676702097E+03  0.90609526237E+02 0.  0.
          5    1    5    5  501    0  0.22380462098E+03  0.11145956124E+03  0.10130159643E+04  0.10434247342E+04  0.47000000000E+01 0. -1.
        -11    1    6    6    0    0  0.61682904892E+02 -0.16932643578E+02  0.15190811786E+03  0.16482588221E+03  0.00000000000E+00 0.  1.
         12    1    6    6    0    0  0.35845352730E+02  0.24076523212E+02  0.42977735988E+03  0.43194113876E+03  0.00000000000E+00 0. -1.
         -5    1    3    3    0  503 -0.84827406449E+02 -0.71774745627E+02 -0.66902707332E+03  0.67820838820E+03  0.47000000000E+01 0.  1.
         11    1    4    4    0    0 -0.54653567525E+01 -0.18245984035E+02 -0.36781479287E+02  0.41420565863E+02  0.00000000000E+00 0. -1.
        -12    1    4    4    0    0 -0.23104011540E+03 -0.28582711207E+02 -0.71562596334E+03  0.75254038145E+03  0.00000000000E+00 0.  1.
</event>
<event>
12    1  0.8271773E-002  0.1901334E+03  0.7818608E-02  0.1158406E+00
         21   -1    0    0  501  502  0.00000000000E+00  0.00000000000E+00  0.73413991166E+03  0.73413991166E+03  0.00000000000E+00 0. -1.
         21   -1    0    0  502  503 -0.00000000000E+00 -0.00000000000E+00 -0.49789331992E+02  0.49789331992E+02  0.00000000000E+00 0. -1.
         -6    2    1    2    0  503  0.39488625635E+01 -0.82813741427E+02  0.38570212159E+03  0.42989307410E+03  0.17078705829E+03 0.  0.
        -24    2    3    3    0    0  0.88338988800E+01 -0.93928108505E+02  0.39496735786E+03  0.41391410860E+03  0.80157022091E+02 0.  0.
          6    2    1    2  501    0 -0.39488625635E+01  0.82813741427E+02  0.29864845808E+03  0.35403616955E+03  0.17110522654E+03 0.  0.
         24    2    5    5    0    0 -0.52708578745E+02  0.22377375422E+01  0.13346717170E+03  0.16383377815E+03  0.79024168445E+02 0.  0.
          5    1    5    5  501    0  0.48759716182E+02  0.80576003885E+02  0.16518128638E+03  0.19020239140E+03  0.47000000000E+01 0. -1.
        -11    1    6    6    0    0  0.28261900897E+01 -0.29742404517E+02  0.31618091138E+02  0.43500593836E+02  0.00000000000E+00 0.  1.
         12    1    6    6    0    0 -0.55534768835E+02  0.31980142059E+02  0.10184908056E+03  0.12033318431E+03  0.00000000000E+00 0. -1.
         -5    1    3    3    0  503 -0.48850363166E+01  0.11114367077E+02 -0.92652362688E+01  0.15978965500E+02  0.47000000000E+01 0.  1.
         13    1    4    4    0    0  0.28247882462E+02 -0.90146387525E+02  0.24387485538E+03  0.26153252022E+03  0.00000000000E+00 0. -1.
        -14    1    4    4    0    0 -0.19413983582E+02 -0.37817209793E+01  0.15109250248E+03  0.15238158838E+03  0.00000000000E+00 0.  1.
</event>
<event>
12    1  0.8271773E-002  0.1969054E+03  0.7818608E-02  0.1152455E+00
         21   -1    0    0  501  502  0.00000000000E+00  0.00000000000E+00  0.14526691159E+03  0.14526691159E+03  0.00000000000E+00 0. -1.
         21   -1    0    0  502  503 -0.00000000000E+00 -0.00000000000E+00 -0.36130042247E+03  0.36130042247E+03  0.00000000000E+00 0. -1.
         -6    2    1    2    0  503 -0.18678718993E+02 -0.94945482686E+02 -0.23789429630E+03  0.30881295995E+03  0.17148821765E+03 0.  0.
        -24    2    3    3    0    0 -0.45927478075E+01 -0.32609067325E+02 -0.33095122111E+02  0.94222571037E+02  0.81842294573E+02 0.  0.
          6    2    1    2  501    0  0.18678718993E+02  0.94945482686E+02  0.21860785428E+02  0.19775437411E+03  0.17107121124E+03 0.  0.
         24    2    5    5    0    0  0.55718557379E+02  0.74944418611E+02  0.66596963982E+02  0.13614749249E+03  0.73346851211E+02 0.  0.
          5    1    5    5  501    0 -0.37039838386E+02  0.20001064075E+02 -0.44736178554E+02  0.61606881624E+02  0.47000000000E+01 0. -1.
        -13    1    6    6    0    0  0.24960120482E+02  0.14507959924E+01 -0.87517642482E+01  0.26489730103E+02  0.00000000000E+00 0.  1.
         14    1    6    6    0    0  0.30758436896E+02  0.73493622618E+02  0.75348728230E+02  0.10965776239E+03  0.00000000000E+00 0. -1.
         -5    1    3    3    0  503 -0.14085971185E+02 -0.62336415360E+02 -0.20479917419E+03  0.21459038891E+03  0.47000000000E+01 0.  1.
         13    1    4    4    0    0  0.27424254066E+01 -0.56911157501E+02 -0.37840152993E+02  0.68397938008E+02  0.00000000000E+00 0. -1.
        -14    1    4    4    0    0 -0.73351732141E+01  0.24302090176E+02  0.47450308814E+01  0.25824633029E+02  0.00000000000E+00 0.  1.
</event>
<event>
12    1  0.8271773E-002  0.1854959E+03  0.7818608E-02  0.1162906E+00
         21   -1    0    0  503  502  0.00000000000E+00  0.00000000000E+00  0.86272362130E+02  0.86272362130E+02  0.00000000000E+00 0.  1.
         21   -1    0    0  501  503 -0.00000000000E+00 -0.00000000000E+00 -0.39886472757E+03  0.39886472757E+03  0.00000000000E+00 0.  1.
          6    2    1    2  501    0  0.44807125039E+02  0.48667952932E+02 -0.17774663507E+03  0.25690968477E+03  0.17329879329E+03 0.  0.
         24    2    3    3    0    0  0.39749972696E+02 -0.27368499913E+02 -0.14705872619E+03  0.17462387371E+03  0.80858723732E+02 0.  0.
         -6    2    1    2    0  502 -0.44807125039E+02 -0.48667952932E+02 -0.13484573037E+03  0.22822740492E+03  0.17183750831E+03 0.  0.
        -24    2    5    5    0    0  0.21909047110E+02  0.37487893688E+02 -0.66045491510E+02  0.99272217358E+02  0.60063447054E+02 0.  0.
          5    1    3    3  501    0  0.50571523423E+01  0.76036452846E+02 -0.30687908878E+02  0.82285811064E+02  0.47000000000E+01 0. -1.
        -13    1    4    4    0    0  0.26801833383E+02  0.17602036897E+02 -0.11102012337E+03  0.11555794118E+03  0.00000000000E+00 0.  1.
         14    1    4    4    0    0  0.12948139313E+02 -0.44970536810E+02 -0.36038602816E+02  0.59065932530E+02  0.00000000000E+00 0. -1.
         -5    1    5    5    0  502 -0.66716172149E+02 -0.86155846620E+02 -0.68800238857E+02  0.12895518756E+03  0.47000000000E+01 0.  1.
         13    1    6    6    0    0  0.10113921222E+02  0.16631620080E+02  0.82999298531E+01  0.21161073331E+02  0.00000000000E+00 0. -1.
        -14    1    6    6    0    0  0.11795125888E+02  0.20856273608E+02 -0.74345421363E+02  0.78111144027E+02  0.00000000000E+00 0.  1.
</event>
<event>
12    1  0.8271773E-002  0.1769463E+03  0.7818608E-02  0.1171255E+00
         21   -1    0    0  501  502  0.00000000000E+00  0.00000000000E+00  0.25438655594E+03  0.25438655594E+03  0.00000000000E+00 0.  1.
         21   -1    0    0  502  503 -0.00000000000E+00 -0.00000000000E+00 -0.17921325078E+03  0.17921325078E+03  0.00000000000E+00 0.  1.
         -6    2    1    2    0  503 -0.68729649259E+00  0.42922362980E+02 -0.84998427582E+02  0.19630261655E+03  0.17166007967E+03 0.  0.
        -24    2    3    3    0    0 -0.19517648142E+02 -0.41424637180E+02 -0.56351498085E+02  0.10513389851E+03  0.76030955048E+02 0.  0.
          6    2    1    2  501    0  0.68729649259E+00 -0.42922362980E+02  0.16017173274E+03  0.23729719017E+03  0.16974148248E+03 0.  0.
         24    2    5    5    0    0 -0.26998497606E+02  0.21970698929E+02  0.13835345206E+03  0.16329894661E+03  0.79455885754E+02 0.  0.
          5    1    5    5  501    0  0.27685794099E+02 -0.64893061908E+02  0.21818280678E+02  0.73998243563E+02  0.47000000000E+01 0. -1.
        -13    1    6    6    0    0  0.24638723889E+02  0.24526923665E+02  0.49285379771E+02  0.60313227061E+02  0.00000000000E+00 0.  1.
         14    1    6    6    0    0 -0.51637221496E+02 -0.25562247362E+01  0.89068072290E+02  0.10298571954E+03  0.00000000000E+00 0. -1.
         -5    1    3    3    0  503  0.18830351649E+02  0.84347000159E+02 -0.28646929497E+02  0.91168718038E+02  0.47000000000E+01 0.  1.
         13    1    4    4    0    0 -0.47277908805E+02 -0.16187897079E+02 -0.40834828587E+02  0.64534734047E+02  0.00000000000E+00 0. -1.
        -14    1    4    4    0    0  0.27760260663E+02 -0.25236740100E+02 -0.15516669498E+02  0.40599164465E+02  0.00000000000E+00 0.  1.
</event>
<event>
12    1  0.8271773E-002  0.1931837E+03  0.7818608E-02  0.1156161E+00
         21   -1    0    0  503  502  0.00000000000E+00  0.00000000000E+00  0.37646930401E+02  0.37646930401E+02  0.00000000000E+00 0.  1.
         21   -1    0    0  501  503 -0.00000000000E+00 -0.00000000000E+00 -0.15658035730E+04  0.15658035730E+04  0.00000000000E+00 0.  1.
          6    2    1    2  501    0  0.17782055573E+02 -0.81021511445E+02 -0.12518984988E+04  0.12663474221E+04  0.17177093873E+03 0.  0.
         24    2    3    3    0    0 -0.22352924558E+02 -0.60320646585E+02 -0.11221841001E+04  0.11289165025E+04  0.10496228592E+03 0.  0.
         -6    2    1    2    0  502 -0.17782055573E+02  0.81021511445E+02 -0.27625814378E+03  0.33710308126E+03  0.17446844578E+03 0.  0.
        -24    2    5    5    0    0 -0.17508186386E+01  0.30263259488E+00 -0.22824939219E+03  0.24171194860E+03  0.79521846745E+02 0.  0.
          5    1    3    3  501    0  0.40134980131E+02 -0.20700864859E+02 -0.12971439867E+03  0.13743091959E+03  0.47000000000E+01 0. -1.
        -11    1    4    4    0    0  0.65073164019E+01 -0.54533063453E+02 -0.10428951898E+04  0.10443402593E+04  0.00000000000E+00 0.  1.
         12    1    4    4    0    0 -0.28860240960E+02 -0.57875831320E+01 -0.79288910303E+02  0.84576243259E+02  0.00000000000E+00 0. -1.
         -5    1    5    5    0  502 -0.16031236935E+02  0.80718878850E+02 -0.48008751585E+02  0.95391132655E+02  0.47000000000E+01 0.  1.
         11    1    6    6    0    0 -0.27738040651E+01  0.39107276470E+02 -0.13816845228E+03  0.14362309796E+03  0.00000000000E+00 0. -1.
        -12    1    6    6    0    0  0.10229854265E+01 -0.38804643875E+02 -0.90080939908E+02  0.98088850642E+02  0.00000000000E+00 0.  1.
</event>
<event>
12    1  0.8271773E-002  0.2085008E+03  0.7818608E-02  0.1142836E+00
         21   -1    0    0  501  502  0.00000000000E+00  0.00000000000E+00  0.29276370346E+03  0.29276370346E+03  0.00000000000E+00 0.  1.
         21   -1    0    0  502  503 -0.00000000000E+00 -0.00000000000E+00 -0.48860917645E+03  0.48860917645E+03  0.00000000000E+00 0.  1.
         -6    2    1    2    0  503 -0.80697081434E+02 -0.84153778123E+02 -0.42404032104E+03  0.47252807158E+03  0.17285458408E+03 0.  0.
        -24    2    3    3    0    0 -0.56991282108E+02  0.45591731482E+01 -0.31397519801E+03  0.32911128751E+03  0.80405362408E+02 0.  0.
          6    2    1    2  501    0  0.80697081434E+02  0.84153778123E+02  0.22819484806E+03  0.30884480834E+03  0.17239010886E+03 0.  0.
         24    2    5    5    0    0  0.89509657701E+02  0.39135042007E+02  0.73228171226E+02  0.14716268493E+03  0.82164228471E+02 0.  0.
          5    1    5    5  501    0 -0.88125762675E+01  0.45018736116E+02  0.15496667683E+03  0.16168212341E+03  0.47000000000E+01 0. -1.
        -11    1    6    6    0    0  0.54392768253E+02 -0.16870528567E+02  0.14565647006E+02  0.58782191564E+02  0.00000000000E+00 0.  1.
         12    1    6    6    0    0  0.35116889448E+02  0.56005570574E+02  0.58662524220E+02  0.88380493367E+02  0.00000000000E+00 0. -1.
         -5    1    3    3    0  503 -0.23705799325E+02 -0.88712951271E+02 -0.11006512303E+03  0.14341678407E+03  0.47000000000E+01 0.  1.
         13    1    4    4    0    0 -0.74868083715E+02  0.16437861340E+02 -0.22999714742E+03  0.24243374572E+03  0.00000000000E+00 0. -1.
        -14    1    4    4    0    0  0.17876801607E+02 -0.11878688191E+02 -0.83978050596E+02  0.86677541790E+02  0.00000000000E+00 0.  1.
</event>
<event>
12    1  0.8271773E-002  0.2016593E+03  0.7818608E-02  0.1148392E+00
         21   -1    0    0  501  502  0.00000000000E+00  0.00000000000E+00  0.13016373774E+03  0.13016373774E+03  0.00000000000E+00 0.  1.
         21   -1    0    0  502  503 -0.00000000000E+00 -0.00000000000E+00 -0.32726585016E+03  0.32726585016E+03  0.00000000000E+00 0.  1.
         -6    2    1    2    0  503 -0.30123596956E+02 -0.10241578700E+03 -0.14775130344E+03  0.24981946291E+03  0.17083000866E+03 0.  0.
        -24    2    3    3    0    0 -0.66122012306E+02 -0.11301691446E+02 -0.83488795009E+02  0.13256152370E+03  0.78117411206E+02 0.  0.
          6    2    1    2  501    0  0.30123596956E+02  0.10241578700E+03 -0.49350808972E+02  0.20761012499E+03  0.17108488283E+03 0.  0.
         24    2    5    5    0    0  0.28197009715E+02  0.97280791194E+02  0.26269179181E+02  0.13164597207E+03  0.79887223612E+02 0.  0.
          5    1    5    5  501    0  0.19265872410E+01  0.51349958076E+01 -0.75619988153E+02  0.75964152918E+02  0.47000000000E+01 0. -1.
        -13    1    6    6    0    0  0.24611558800E+02  0.81310207780E+02 -0.15884779962E+02  0.86425719264E+02  0.00000000000E+00 0.  1.
         14    1    6    6    0    0  0.35854509147E+01  0.15970583413E+02  0.42153959143E+02  0.45220252811E+02  0.00000000000E+00 0. -1.
         -5    1    3    3    0  503  0.35998415351E+02 -0.91114095555E+02 -0.64262508431E+02  0.11725793920E+03  0.47000000000E+01 0.  1.
         13    1    4    4    0    0 -0.49303898217E+02  0.17854744166E+02 -0.83854609970E+02  0.98900262294E+02  0.00000000000E+00 0. -1.
        -14    1    4    4    0    0 -0.16818114089E+02 -0.29156435612E+02  0.36581496022E+00  0.33661261410E+02  0.00000000000E+00 0.  1.
</event>
<event>
12    1  0.8271773E-002  0.1838722E+03  0.7818608E-02  0.1165429E+00
         21   -1    0    0  501  502  0.00000000000E+00  0.00000000000E+00  0.58300233452E+03  0.58300233452E+03  0.00000000000E+00 0. -1.
         21   -1    0    0  502  503 -0.00000000000E+00 -0.00000000000E+00 -0.58573413856E+02  0.58573413856E+02  0.00000000000E+00 0. -1.
         -6    2    1    2    0  503 -0.15076096863E+01 -0.46136770039E+02  0.19464593922E+03  0.26399690566E+03  0.17226854067E+03 0.  0.
        -24    2    3    3    0    0 -0.66825006124E+01  0.30982704972E+02  0.15065708614E+03  0.17493904741E+03  0.83075440894E+02 0.  0.
          6    2    1    2  501    0  0.15076096863E+01  0.46136770039E+02  0.32978298144E+03  0.37757884272E+03  0.17798340704E+03 0.  0.
         24    2    5    5    0    0 -0.26525147366E+02 -0.21272917788E+02  0.84699239294E+02  0.12180935246E+03  0.80668684976E+02 0.  0.
          5    1    5    5  501    0  0.28032757052E+02  0.67409687826E+02  0.24508374215E+03  0.25576949026E+03  0.47000000000E+01 0. -1.
        -11    1    6    6    0    0 -0.12587547138E+02  0.44882533099E+00 -0.14558623181E+02  0.19251007664E+02  0.00000000000E+00 0.  1.
         12    1    6    6    0    0 -0.13937600227E+02 -0.21721743119E+02  0.99257862475E+02  0.10255834480E+03  0.00000000000E+00 0. -1.
         -5    1    3    3    0  503  0.51748909261E+01 -0.77119475011E+02  0.43988853081E+02  0.89057858258E+02  0.47000000000E+01 0.  1.
         13    1    4    4    0    0 -0.28578702706E+02 -0.14289542088E+02  0.28424073723E+02  0.42765187109E+02  0.00000000000E+00 0. -1.
        -14    1    4    4    0    0  0.21896202093E+02  0.45272247061E+02  0.12223301242E+03  0.13217386030E+03  0.00000000000E+00 0.  1.
</event>
<event>
12    1  0.8271773E-002  0.2008673E+03  0.7818608E-02  0.1149330E+00
         21   -1    0    0  503  502  0.00000000000E+00  0.00000000000E+00  0.11841966794E+04  0.11841966794E+04  0.00000000000E+00 0. -1.
         21   -1    0    0  501  503 -0.00000000000E+00 -0.00000000000E+00 -0.47142065101E+02  0.47142065101E+02  0.00000000000E+00 0. -1.
          6    2    1    2  501    0 -0.74820947619E+02 -0.62864448170E+02  0.24272104591E+03  0.31505743378E+03  0.17549235710E+03 0.  0.
         24    2    3    3    0    0 -0.10429702599E+03 -0.90618381097E+02  0.21104168281E+03  0.26343581005E+03  0.75962316389E+02 0.  0.
         -6    2    1    2    0  502  0.74820947619E+02  0.62864448170E+02  0.89433356839E+03  0.91628131073E+03  0.17374923252E+03 0.  0.
        -24    2    5    5    0    0  0.17004312820E+02 -0.13594121277E+02  0.62115967529E+03  0.62673901335E+03  0.80551237488E+02 0.  0.
          5    1    3    3  501    0  0.29476078372E+02  0.27753932928E+02  0.31679363102E+02  0.51621623722E+02  0.47000000000E+01 0. -1.
        -11    1    4    4    0    0 -0.38149397592E+02 -0.82590292142E+02  0.12544156332E+03  0.15495844185E+03  0.00000000000E+00 0.  1.
         12    1    4    4    0    0 -0.66147628398E+02 -0.80280889550E+01  0.85600119495E+02  0.10847736820E+03  0.00000000000E+00 0. -1.
         -5    1    5    5    0  502  0.57816634799E+02  0.76458569447E+02  0.27317389310E+03  0.28954229738E+03  0.47000000000E+01 0.  1.
         11    1    6    6    0    0  0.47675435453E+02 -0.17130300619E+02  0.44726019041E+03  0.45012006429E+03  0.00000000000E+00 0. -1.
        -12    1    6    6    0    0 -0.30671122633E+02  0.35361793413E+01  0.17389948487E+03  0.17661894906E+03  0.00000000000E+00 0.  1.
</event>
<event>
12    1  0.8271773E-002  0.1851642E+03  0.7818608E-02  0.1163200E+00
         21   -1    0    0  503  502  0.00000000000E+00  0.00000000000E+00  0.27346144473E+03  0.27346144473E+03  0.00000000000E+00 0. -1.
         21   -1    0    0  501  503 -0.00000000000E+00 -0.00000000000E+00 -0.12479255610E+03  0.12479255610E+03  0.00000000000E+00 0. -1.
          6    2    1    2  501    0 -0.39845129070E+01 -0.68531471033E+02  0.64946940826E+02  0.19622409923E+03  0.17196904701E+03 0.  0.
         24    2    3    3    0    0 -0.35667498294E+02 -0.63232083297E+02  0.99763687757E+02  0.14861957276E+03  0.82852382101E+02 0.  0.
         -6    2    1    2    0  502  0.39845129070E+01  0.68531471033E+02  0.83721947803E+02  0.20202990160E+03  0.17057044800E+03 0.  0.
        -24    2    5    5    0    0  0.13641067302E+02  0.51270339720E+02  0.12368302029E+03  0.15719494859E+03  0.81228294947E+02 0.  0.
          5    1    3    3  501    0  0.31682985387E+02 -0.52993877357E+01 -0.34816746931E+02  0.47604526468E+02  0.47000000000E+01 0. -1.
        -11    1    4    4    0    0 -0.18744049303E+02  0.16124984832E+02  0.76891400115E+01  0.25893578242E+02  0.00000000000E+00 0.  1.
         12    1    4    4    0    0 -0.16923448991E+02 -0.79357068129E+02  0.92074547746E+02  0.12272599452E+03  0.00000000000E+00 0. -1.
         -5    1    5    5    0  502 -0.96565543950E+01  0.17261131313E+02 -0.39961072492E+02  0.44834953013E+02  0.47000000000E+01 0.  1.
         13    1    6    6    0    0 -0.21283420037E+02 -0.11998145283E+02  0.36994466644E+02  0.44334298471E+02  0.00000000000E+00 0. -1.
        -14    1    6    6    0    0  0.34924487339E+02  0.63268485003E+02  0.86688553651E+02  0.11286065012E+03  0.00000000000E+00 0.  1.
</event>
<event>
12    1  0.8271773E-002  0.3318834E+03  0.7818608E-02  0.1070346E+00
         21   -1    0    0  503  502  0.00000000000E+00  0.00000000000E+00  0.73724997363E+03  0.73724997363E+03  0.00000000000E+00 0. -1.
         21   -1    0    0  501  503 -0.00000000000E+00 -0.00000000000E+00 -0.37885064626E+03  0.37885064626E+03  0.00000000000E+00 0. -1.
          6    2    1    2  501    0 -0.17025433923E+03  0.22678444318E+03 -0.25528137430E+03  0.41842549373E+03  0.17173697924E+03 0.  0.
         24    2    3    3    0    0 -0.46396252753E+02  0.11633648199E+03 -0.52892013379E+02  0.15665628024E+03  0.77825675369E+02 0.  0.
         -6    2    1    2    0  502  0.17025433923E+03 -0.22678444318E+03  0.61368070167E+03  0.69767512617E+03  0.17242057408E+03 0.  0.
        -24    2    5    5    0    0  0.16004454493E+03 -0.15465396297E+03  0.55744200556E+03  0.60552347390E+03  0.79906090196E+02 0.  0.
          5    1    3    3  501    0 -0.12385808647E+03  0.11044796119E+03 -0.20238936092E+03  0.26176921349E+03  0.47000000000E+01 0. -1.
        -13    1    4    4    0    0 -0.58041687414E+02  0.53708035136E+02 -0.96522668883E+01  0.79665279590E+02  0.00000000000E+00 0.  1.
         14    1    4    4    0    0  0.11645434661E+02  0.62628446855E+02 -0.43239746491E+02  0.76991000646E+02  0.00000000000E+00 0. -1.
         -5    1    5    5    0  502  0.10209794292E+02 -0.72130480215E+02  0.56238696114E+02  0.92151652270E+02  0.47000000000E+01 0.  1.
         11    1    6    6    0    0  0.54565561488E+02 -0.64711337139E+02  0.12154055532E+03  0.14811166140E+03  0.00000000000E+00 0. -1.
        -12    1    6    6    0    0  0.10547898345E+03 -0.89942625829E+02  0.43590145024E+03  0.45741181250E+03  0.00000000000E+00 0.  1.
</event>
<event>
12    1  0.8271773E-002  0.2022539E+03  0.7818608E-02  0.1149848E+00
         21   -1    0    0  501  502  0.00000000000E+00  0.00000000000E+00  0.12205262493E+03  0.12205262493E+03  0.00000000000E+00 0. -1.
         21   -1    0    0  502  503 -0.00000000000E+00 -0.00000000000E+00 -0.32414208237E+03  0.32414208237E+03  0.00000000000E+00 0.  1.
         -6    2    1    2    0  503 -0.74254847037E+02 -0.52781116676E+02 -0.12916306465E+03  0.23997859654E+03  0.18057408712E+03 0.  0.
        -24    2    3    3    0    0 -0.73125822636E+02  0.18221507765E+02 -0.12973669811E+03  0.16880931644E+03  0.77366434592E+02 0.  0.
          6    2    1    2  501    0  0.74254847037E+02  0.52781116676E+02 -0.72926392791E+02  0.20621611075E+03  0.17002116628E+03 0.  0.
         24    2    5    5    0    0  0.75395559138E+02  0.97863722456E+02 -0.56997461414E+02  0.15815819337E+03  0.80644311722E+02 0.  0.
          5    1    5    5  501    0 -0.11407121008E+01 -0.45082605780E+02 -0.15928931378E+02  0.48057917380E+02  0.47000000000E+01 0. -1.
        -13    1    6    6    0    0  0.44588981739E+02  0.21375867477E+02 -0.57316792598E+02  0.75698875267E+02  0.00000000000E+00 0.  1.
         14    1    6    6    0    0  0.30806577399E+02  0.76487854979E+02  0.31933118471E+00  0.82459318107E+02  0.00000000000E+00 0. -1.
         -5    1    3    3    0  503 -0.11290244017E+01 -0.71002624440E+02  0.57363345765E+00  0.71169280092E+02  0.47000000000E+01 0.  1.
         11    1    4    4    0    0 -0.11736262734E+01 -0.98383388487E+01  0.67490271328E+01  0.11988314192E+02  0.00000000000E+00 0. -1.
        -12    1    4    4    0    0 -0.71952196362E+02  0.28059846613E+02 -0.13648572524E+03  0.15682100225E+03  0.00000000000E+00 0.  1.
</event>
<event>
12    1  0.8271773E-002  0.2027249E+03  0.7818608E-02  0.1147754E+00
         21   -1    0    0  503  502  0.00000000000E+00  0.00000000000E+00  0.46072965975E+02  0.46072965975E+02  0.00000000000E+00 0.  1.
         21   -1    0    0  501  503 -0.00000000000E+00 -0.00000000000E+00 -0.15978489311E+04  0.15978489311E+04  0.00000000000E+00 0. -1.
          6    2    1    2  501    0 -0.10776469275E+03 -0.53907954295E+01 -0.13230856757E+04  0.13383132597E+04  0.16995407039E+03 0.  0.
         24    2    3    3    0    0 -0.84602557209E+01  0.37866957389E+02 -0.46760954520E+03  0.47599423270E+03  0.80039617763E+02 0.  0.
         -6    2    1    2    0  502  0.10776469275E+03  0.53907954295E+01 -0.22869028945E+03  0.30560863744E+03  0.17162488489E+03 0.  0.
        -24    2    5    5    0    0  0.82500740360E+02 -0.52016606835E+01 -0.24516223803E+03  0.27329946681E+03  0.88060468839E+02 0.  0.
          5    1    3    3  501    0 -0.99304437033E+02 -0.43257752819E+02 -0.85547613051E+03  0.86231902696E+03  0.47000000000E+01 0. -1.
        -11    1    4    4    0    0 -0.43624209160E+02  0.20849391379E+02 -0.30154026471E+03  0.30539204310E+03  0.00000000000E+00 0.  1.
         12    1    4    4    0    0  0.35163953439E+02  0.17017566010E+02 -0.16606928049E+03  0.17060218960E+03  0.00000000000E+00 0. -1.
         -5    1    5    5    0  502  0.25263952394E+02  0.10592456113E+02  0.16471948577E+02  0.32309170633E+02  0.47000000000E+01 0.  1.
         13    1    6    6    0    0 -0.14818602702E+02  0.95205333276E+01 -0.71957482189E+02  0.74081784427E+02  0.00000000000E+00 0. -1.
        -14    1    6    6    0    0  0.97319343062E+02 -0.14722194011E+02 -0.17320475584E+03  0.19921768238E+03  0.00000000000E+00 0.  1.
</event>
<event>
12    1  0.8271773E-002  0.2029896E+03  0.7818608E-02  0.1147381E+00
         21   -1    0    0  501  502  0.00000000000E+00  0.00000000000E+00  0.13194143495E+04  0.13194143495E+04  0.00000000000E+00 0. -1.
         21   -1    0    0  502  503 -0.00000000000E+00 -0.00000000000E+00 -0.36830710079E+02  0.36830710079E+02  0.00000000000E+00 0. -1.
         -6    2    1    2    0  503  0.66974192244E+02  0.82922396262E+02  0.37530896395E+03  0.42668676287E+03  0.17275158165E+03 0.  0.
        -24    2    3    3    0    0  0.58387089261E+02  0.80130134035E+02  0.12855651578E+03  0.17972442619E+03  0.77098644893E+02 0.  0.
          6    2    1    2  501    0 -0.66974192244E+02 -0.82922396262E+02  0.90727467544E+03  0.92955829667E+03  0.17195820421E+03 0.  0.
         24    2    5    5    0    0 -0.14854324188E+02 -0.12202125712E+02  0.22138944401E+03  0.23805379343E+03  0.85362637196E+02 0.  0.
          5    1    5    5  501    0 -0.52119868056E+02 -0.70720270550E+02  0.68588523143E+03  0.69150450324E+03  0.47000000000E+01 0. -1.
        -13    1    6    6    0    0 -0.12916719574E+02  0.35205937226E+02  0.70125628249E+02  0.79522974025E+02  0.00000000000E+00 0.  1.
         14    1    6    6    0    0 -0.19376046149E+01 -0.47408062937E+02  0.15126381576E+03  0.15853081941E+03  0.00000000000E+00 0. -1.
         -5    1    3    3    0  503  0.85871029831E+01  0.27922622268E+01  0.24675244817E+03  0.24696233669E+03  0.47000000000E+01 0.  1.
         11    1    4    4    0    0  0.10887332110E+02  0.69066169199E+02  0.10347179235E+03  0.12488026882E+03  0.00000000000E+00 0. -1.
        -12    1    4    4    0    0  0.47499757151E+02  0.11063964836E+02  0.25084723431E+02  0.54844157363E+02  0.00000000000E+00 0.  1.
</event>
<event>
12    1  0.8271773E-002  0.1787986E+03  0.7818608E-02  0.1169007E+00
         21   -1    0    0  501  502  0.00000000000E+00  0.00000000000E+00  0.44192885369E+03  0.44192885369E+03  0.00000000000E+00 0. -1.
         21   -1    0    0  502  503 -0.00000000000E+00 -0.00000000000E+00 -0.79883866133E+02  0.79883866133E+02  0.00000000000E+00 0. -1.
         -6    2    1    2    0  503  0.87941637263E+01  0.47897241829E+02  0.10045276979E+03  0.20495404470E+03  0.17188344420E+03 0.  0.
        -24    2    3    3    0    0 -0.20198246314E+02  0.92663461457E+02  0.64515258161E+02  0.14047017848E+03  0.81087398926E+02 0.  0.
          6    2    1    2  501    0 -0.87941637263E+01 -0.47897241829E+02  0.26159221777E+03  0.31685867513E+03  0.17203909008E+03 0.  0.
         24    2    5    5    0    0  0.48641870233E+02  0.62076126569E+01  0.18894665033E+03  0.20950085406E+03  0.76060536327E+02 0.  0.
          5    1    5    5  501    0 -0.57436033959E+02 -0.54104854486E+02  0.72645567446E+02  0.10735782107E+03  0.47000000000E+01 0. -1.
        -11    1    6    6    0    0  0.25414645476E+01  0.26437924928E+02  0.20098685486E+02  0.33307357668E+02  0.00000000000E+00 0.  1.
         12    1    6    6    0    0  0.46100405685E+02 -0.20230312271E+02  0.16884796484E+03  0.17619349639E+03  0.00000000000E+00 0. -1.
         -5    1    3    3    0  503  0.28992410040E+02 -0.44766219628E+02  0.35937511627E+02  0.64483866212E+02  0.47000000000E+01 0.  1.
         13    1    4    4    0    0  0.17230400939E+02  0.47749403409E+02 -0.33750151942E+01  0.50875170467E+02  0.00000000000E+00 0. -1.
        -14    1    4    4    0    0 -0.37428647253E+02  0.44914058048E+02  0.67890273355E+02  0.89595008018E+02  0.00000000000E+00 0.  1.
</event>
<event>
12    1  0.8271773E-002  0.1902559E+03  0.7818608E-02  0.1158473E+00
         21   -1    0    0  501  502  0.00000000000E+00  0.00000000000E+00  0.13502651135E+03  0.13502651135E+03  0.00000000000E+00 0. -1.
         21   -1    0    0  502  503 -0.00000000000E+00 -0.00000000000E+00 -0.27172203822E+03  0.27172203822E+03  0.00000000000E+00 0. -1.
         -6    2    1    2    0  503  0.77501054202E+02 -0.10515993244E+02 -0.96181327251E+02  0.21222676320E+03  0.17225664513E+03 0.  0.
        -24    2    3    3    0    0  0.65441493956E+02  0.24412481420E+02  0.48937527331E+01  0.10450632350E+03  0.77582629858E+02 0.  0.
          6    2    1    2  501    0 -0.77501054202E+02  0.10515993244E+02 -0.40514199622E+02  0.19452178636E+03  0.17343680544E+03 0.  0.
         24    2    5    5    0    0  0.13467600255E+01  0.55164490729E+02 -0.37857960219E+02  0.10374947922E+03  0.79283002508E+02 0.  0.
          5    1    5    5  501    0 -0.78847814228E+02 -0.44648497485E+02 -0.26562394032E+01  0.90772307142E+02  0.47000000000E+01 0. -1.
        -11    1    6    6    0    0 -0.18086955973E+02 -0.15139866203E+02 -0.10933257700E+02  0.25997877778E+02  0.00000000000E+00 0.  1.
         12    1    6    6    0    0  0.19433715999E+02  0.70304356932E+02 -0.26924702518E+02  0.77751601442E+02  0.00000000000E+00 0. -1.
         -5    1    3    3    0  503  0.12059560247E+02 -0.34928474664E+02 -0.10107507998E+03  0.10772043970E+03  0.47000000000E+01 0.  1.
         11    1    4    4    0    0  0.39967324067E+02 -0.57945640426E+01  0.36090087815E+02  0.54161410654E+02  0.00000000000E+00 0. -1.
        -12    1    4    4    0    0  0.25474169889E+02  0.30207045463E+02 -0.31196335082E+02  0.50344912848E+02  0.00000000000E+00 0.  1.
</event>
<event>
12    1  0.8271773E-002  0.1801390E+03  0.7818608E-02  0.1168248E+00
         21   -1    0    0  501  502  0.00000000000E+00  0.00000000000E+00  0.43500546256E+03  0.43500546256E+03  0.00000000000E+00 0.  1.
         21   -1    0    0  502  503 -0.00000000000E+00 -0.00000000000E+00 -0.94494698052E+02  0.94494698052E+02  0.00000000000E+00 0.  1.
         -6    2    1    2    0  503 -0.30404352365E+02  0.35772108721E+02  0.44921764003E+02  0.18334570092E+03  0.17144565541E+03 0.  0.
        -24    2    3    3    0    0  0.12036371745E+02 -0.34376419233E+02  0.49741245347E+02  0.10108180581E+03  0.80104478861E+02 0.  0.
          6    2    1    2  501    0  0.30404352365E+02 -0.35772108721E+02  0.29558900050E+03  0.34615445970E+03  0.17391372672E+03 0.  0.
         24    2    5    5    0    0  0.19489530716E+02  0.20050856048E+02  0.26971740388E+03  0.28349054473E+03  0.82689372706E+02 0.  0.
          5    1    5    5  501    0  0.10914821649E+02 -0.55822964769E+02  0.25871596625E+02  0.62663914968E+02  0.47000000000E+01 0. -1.
        -11    1    6    6    0    0  0.39554519496E+02 -0.91365597071E+01  0.72269614590E+02  0.82891096801E+02  0.00000000000E+00 0.  1.
         12    1    6    6    0    0 -0.20064988780E+02  0.29187415755E+02  0.19744778929E+03  0.20059944793E+03  0.00000000000E+00 0. -1.
         -5    1    3    3    0  503 -0.42440724110E+02  0.70148527954E+02 -0.48194813443E+01  0.82263895103E+02  0.47000000000E+01 0.  1.
         11    1    4    4    0    0  0.30135684947E+02 -0.44745043680E+02  0.57483006680E+02  0.78832572571E+02  0.00000000000E+00 0. -1.
        -12    1    4    4    0    0 -0.18099313202E+02  0.10368624447E+02 -0.77417613331E+01  0.22249233242E+02  0.00000000000E+00 0.  1.
</event>
<event>
12    1  0.8271773E-002  0.1880309E+03  0.7818608E-02  0.1161382E+00
         21   -1    0    0  503  502  0.00000000000E+00  0.00000000000E+00  0.83401687789E+03  0.83401687789E+03  0.00000000000E+00 0. -1.
         21   -1    0    0  501  503 -0.00000000000E+00 -0.00000000000E+00 -0.42641748073E+03  0.42641748073E+03  0.00000000000E+00 0. -1.
          6    2    1    2  501    0  0.42995892438E+02  0.48297829961E+02 -0.39485810811E+03  0.43734259269E+03  0.17656242719E+03 0.  0.
         24    2    3    3    0    0  0.17485619167E+00 -0.33031481969E+02 -0.29191067453E+03  0.29925435205E+03  0.57010665117E+02 0.  0.
         -6    2    1    2    0  502 -0.42995892438E+02 -0.48297829961E+02  0.80245750527E+03  0.82309176594E+03  0.17134958492E+03 0.  0.
        -24    2    5    5    0    0 -0.73221535146E+02 -0.29017268212E+01  0.33098218251E+03  0.34844930510E+03  0.80609551927E+02 0.  0.
          5    1    3    3  501    0  0.42821036246E+02  0.81329311930E+02 -0.10294743357E+03  0.13808824064E+03  0.47000000000E+01 0. -1.
        -11    1    4    4    0    0 -0.18069426850E+02 -0.34040286511E+02 -0.11254935717E+03  0.11896471365E+03  0.00000000000E+00 0.  1.
         12    1    4    4    0    0  0.18244283042E+02  0.10088045424E+01 -0.17936131736E+03  0.18028963840E+03  0.00000000000E+00 0. -1.
         -5    1    5    5    0  502  0.30225642708E+02 -0.45396103140E+02  0.47147532276E+03  0.47464246083E+03  0.47000000000E+01 0.  1.
         13    1    6    6    0    0 -0.52188203600E+02 -0.12469551095E+02  0.31685407785E+03  0.32136522051E+03  0.00000000000E+00 0. -1.
        -14    1    6    6    0    0 -0.21033331546E+02  0.95678242742E+01  0.14128104654E+02  0.27084084595E+02  0.00000000000E+00 0.  1.
</event>
<event>
12    1  0.8271773E-002  0.1882725E+03  0.7818608E-02  0.1160118E+00
         21   -1    0    0  503  502  0.00000000000E+00  0.00000000000E+00  0.78907645398E+03  0.78907645398E+03  0.00000000000E+00 0.  1.
         21   -1    0    0  501  503 -0.00000000000E+00 -0.00000000000E+00 -0.60349444882E+02  0.60349444882E+02  0.00000000000E+00 0.  1.
          6    2    1    2  501    0  0.70426675789E+02 -0.26412222326E+02  0.57947134059E+03  0.60916814944E+03  0.17216642404E+03 0.  0.
         24    2    3    3    0    0  0.10137864224E+03  0.17219152122E+02  0.45880638141E+03  0.47709300629E+03  0.80872199940E+02 0.  0.
         -6    2    1    2    0  502 -0.70426675789E+02  0.26412222326E+02  0.14925566850E+03  0.24025774943E+03  0.17259492874E+03 0.  0.
        -24    2    5    5    0    0 -0.20665479762E+02 -0.14065657093E+02  0.49611395558E+01  0.82277888567E+02  0.78231280688E+02 0.  0.
          5    1    3    3  501    0 -0.30951966449E+02 -0.43631374448E+02  0.12066495918E+03  0.13207514315E+03  0.47000000000E+01 0. -1.
        -11    1    4    4    0    0  0.37647110848E+02 -0.28955823278E+02  0.23768014751E+03  0.24237903618E+03  0.00000000000E+00 0.  1.
         12    1    4    4    0    0  0.63731531390E+02  0.46174975400E+02  0.22112623390E+03  0.23471397011E+03  0.00000000000E+00 0. -1.
         -5    1    5    5    0  502 -0.49761196028E+02  0.40477879419E+02  0.14429452895E+03  0.15797986086E+03  0.47000000000E+01 0.  1.
         11    1    6    6    0    0 -0.88053923469E+01 -0.22273194106E+02  0.38741625162E+02  0.45547158312E+02  0.00000000000E+00 0. -1.
        -12    1    6    6    0    0 -0.11860087415E+02  0.82075370137E+01 -0.33780485606E+02  0.36730730255E+02  0.00000000000E+00 0.  1.
</event>
<event>
12    1  0.8271773E-002  0.1765170E+03  0.7818608E-02  0.1171373E+00
         21   -1    0    0  503  502  0.00000000000E+00  0.00000000000E+00  0.19048598353E+04  0.19048598353E+04  0.00000000000E+00 0.  1.
         21   -1    0    0  501  503 -0.00000000000E+00 -0.00000000000E+00 -0.16531038025E+02  0.16531038025E+02  0.00000000000E+00 0.  1.
          6    2    1    2  501    0  0.21600427101E+02  0.30091063637E+02  0.10595714661E+04  0.10741740780E+04  0.17258681114E+03 0.  0.
         24    2    3    3    0    0  0.31848888631E+02  0.52157782069E+02  0.10328694457E+04  0.10377452581E+04  0.79756772722E+02 0.  0.
         -6    2    1    2    0  502 -0.21600427101E+02 -0.30091063637E+02  0.82875733116E+03  0.84721679537E+03  0.17194631095E+03 0.  0.
        -24    2    5    5    0    0  0.40973469484E+02 -0.46623017481E+02  0.32916166340E+03  0.34342445792E+03  0.75765603574E+02 0.  0.
          5    1    3    3  501    0 -0.10248461530E+02 -0.22066718432E+02  0.26702020436E+02  0.36428819929E+02  0.47000000000E+01 0. -1.
        -11    1    4    4    0    0  0.87558061951E+01 -0.20933519160E+02  0.30781856018E+03  0.30865375805E+03  0.00000000000E+00 0.  1.
         12    1    4    4    0    0  0.23093082436E+02  0.73091301229E+02  0.72505088553E+03  0.72909150000E+03  0.00000000000E+00 0. -1.
         -5    1    5    5    0  502 -0.62573896585E+02  0.16531953844E+02  0.49959566775E+03  0.50379233744E+03  0.47000000000E+01 0.  1.
         11    1    6    6    0    0  0.37679870772E+02 -0.57807364689E+02  0.32289906278E+03  0.33018974669E+03  0.00000000000E+00 0. -1.
        -12    1    6    6    0    0  0.32935987120E+01  0.11184347208E+02  0.62626006248E+01  0.13234711237E+02  0.00000000000E+00 0.  1.
</event>
<event>
12    1  0.8271773E-002  0.1846207E+03  0.7818608E-02  0.1163535E+00
         21   -1    0    0  501  502  0.00000000000E+00  0.00000000000E+00  0.46561807131E+03  0.46561807131E+03  0.00000000000E+00 0. -1.
         21   -1    0    0  502  503 -0.00000000000E+00 -0.00000000000E+00 -0.73918270977E+02  0.73918270977E+02  0.00000000000E+00 0. -1.
         -6    2    1    2    0  503  0.45113293612E+02  0.56339898082E+02  0.22590001675E+03  0.29139449577E+03  0.16932377631E+03 0.  0.
        -24    2    3    3    0    0  0.46362495895E+02 -0.14345762283E+02  0.63108940059E+02  0.11385281690E+03  0.81390685456E+02 0.  0.
          6    2    1    2  501    0 -0.45113293612E+02 -0.56339898082E+02  0.16579978359E+03  0.24814184652E+03  0.16992767397E+03 0.  0.
         24    2    5    5    0    0 -0.19237885487E+02 -0.16190546211E+02  0.71550447103E+01  0.82395804711E+02  0.78138620058E+02 0.  0.
          5    1    5    5  501    0 -0.25875408124E+02 -0.40149351872E+02  0.15864473888E+03  0.16574604181E+03  0.47000000000E+01 0. -1.
        -13    1    6    6    0    0 -0.29765359240E+02  0.16493158701E+02  0.26367192048E+02  0.43049154592E+02  0.00000000000E+00 0.  1.
         14    1    6    6    0    0  0.10527473752E+02 -0.32683704911E+02 -0.19212147337E+02  0.39346650120E+02  0.00000000000E+00 0. -1.
         -5    1    3    3    0  503 -0.12492022835E+01  0.70685660365E+02  0.16279107669E+03  0.17754167887E+03  0.47000000000E+01 0.  1.
         11    1    4    4    0    0  0.22589654288E+02  0.27960079321E+02  0.53388191517E+02  0.64361149073E+02  0.00000000000E+00 0. -1.
        -12    1    4    4    0    0  0.23772841607E+02 -0.42305841603E+02  0.97207485413E+01  0.49491667824E+02  0.00000000000E+00 0.  1.
</event>
<event>
12    1  0.8271773E-002  0.3020015E+03  0.7818608E-02  0.1084353E+00
         21   -1    0    0  503  502  0.00000000000E+00  0.00000000000E+00  0.34147365535E+03  0.34147365535E+03  0.00000000000E+00 0. -1.
         21   -1    0    0  501  503 -0.00000000000E+00 -0.00000000000E+00 -0.32254782747E+03  0.32254782747E+03  0.00000000000E+00 0.  1.
          6    2    1    2  501    0  0.12925882726E+03  0.21041044179E+03  0.14807869378E+03  0.33556244110E+03  0.17232078774E+03 0.  0.
         24    2    3    3    0    0  0.15102915859E+03  0.16982101403E+03  0.82591090129E+02  0.25536166054E+03  0.82093275935E+02 0.  0.
         -6    2    1    2    0  502 -0.12925882726E+03 -0.21041044179E+03 -0.12915286590E+03  0.32845904173E+03  0.17385189352E+03 0.  0.
        -24    2    5    5    0    0 -0.14226874270E+02 -0.12716517564E+03 -0.26608389547E+02  0.15324607367E+03  0.80018540680E+02 0.  0.
          5    1    3    3  501    0 -0.21770331324E+02  0.40589427761E+02  0.65487603649E+02  0.80200780567E+02  0.47000000000E+01 0. -1.
        -13    1    4    4    0    0  0.95873315489E+02  0.77397995841E+02  0.81491661811E+02  0.14772621070E+03  0.00000000000E+00 0.  1.
         14    1    4    4    0    0  0.55155843098E+02  0.92423018187E+02  0.10994283177E+01  0.10763544984E+03  0.00000000000E+00 0. -1.
         -5    1    5    5    0  502 -0.11503195299E+03 -0.83245266145E+02 -0.10254447635E+03  0.17521296806E+03  0.47000000000E+01 0.  1.
         13    1    6    6    0    0 -0.35529721119E+02 -0.18281157282E+02 -0.61591749658E+01  0.40428915774E+02  0.00000000000E+00 0. -1.
        -14    1    6    6    0    0  0.21302846849E+02 -0.10888401836E+03 -0.20449214581E+02  0.11281715789E+03  0.00000000000E+00 0.  1.
</event>
<event>
12    1  0.8271773E-002  0.2513185E+03  0.7818608E-02  0.1112700E+00
         21   -1    0    0  503  502  0.00000000000E+00  0.00000000000E+00  0.75374802714E+02  0.75374802714E+02  0.00000000000E+00 0. -1.
         21   -1    0    0  501  503 -0.00000000000E+00 -0.00000000000E+00 -0.83567612783E+03  0.83567612783E+03  0.00000000000E+00 0.  1.
          6    2    1    2  501    0 -0.15044976322E+03 -0.10054850185E+03 -0.40614880096E+03  0.47761682950E+03  0.17440141864E+03 0.  0.
         24    2    3    3    0    0 -0.32607886958E+02  0.80037316441E+01 -0.11042522132E+03  0.14124676432E+03  0.81422263014E+02 0.  0.
         -6    2    1    2    0  502  0.15044976322E+03  0.10054850185E+03 -0.35415252415E+03  0.43343410104E+03  0.17232520739E+03 0.  0.
        -24    2    5    5    0    0  0.91518648885E+02 -0.68903582804E+00 -0.24824432819E+03  0.27544501520E+03  0.76606605822E+02 0.  0.
          5    1    3    3  501    0 -0.11784187626E+03 -0.10855223349E+03 -0.29572357964E+03  0.33637006518E+03  0.47000000000E+01 0. -1.
        -11    1    4    4    0    0  0.78441871130E+01 -0.16267038020E+02 -0.86475026753E+02  0.88340693055E+02  0.00000000000E+00 0.  1.
         12    1    4    4    0    0 -0.40452074071E+02  0.24270769664E+02 -0.23950194571E+02  0.52906071265E+02  0.00000000000E+00 0. -1.
         -5    1    5    5    0  502  0.58931114337E+02  0.10123753768E+03 -0.10590819596E+03  0.15798908584E+03  0.47000000000E+01 0.  1.
         13    1    6    6    0    0  0.54532975165E+02 -0.33308919740E+02 -0.95250614388E+02  0.11469964715E+03  0.00000000000E+00 0. -1.
        -14    1    6    6    0    0  0.36985673720E+02  0.32619883912E+02 -0.15299371380E+03  0.16074536805E+03  0.00000000000E+00 0.  1.
</event>
<event>
12    1  0.8271773E-002  0.1896904E+03  0.7818608E-02  0.1158752E+00
         21   -1    0    0  501  502  0.00000000000E+00  0.00000000000E+00  0.19315281771E+03  0.19315281771E+03  0.00000000000E+00 0.  1.
         21   -1    0    0  502  503 -0.00000000000E+00 -0.00000000000E+00 -0.22723551685E+03  0.22723551685E+03  0.00000000000E+00 0.  1.
         -6    2    1    2    0  503 -0.79184830837E+02  0.14269103199E+02 -0.10631837846E+03  0.21740943605E+03  0.17172483962E+03 0.  0.
        -24    2    3    3    0    0  0.15697192037E+02 -0.21772569679E+02 -0.72088740966E+02  0.11019302624E+03  0.78900379149E+02 0.  0.
          6    2    1    2  501    0  0.79184830837E+02 -0.14269103199E+02  0.72235679322E+02  0.20297889851E+03  0.17178065995E+03 0.  0.
         24    2    5    5    0    0  0.85019692329E+02 -0.63187139956E+02  0.73309446394E+02  0.15347876816E+03  0.83429578722E+02 0.  0.
          5    1    5    5  501    0 -0.58348614922E+01  0.48918036757E+02 -0.10737670717E+01  0.49500130349E+02  0.47000000000E+01 0. -1.
        -13    1    6    6    0    0  0.56896566783E+02 -0.14092270503E+01  0.49261142322E+01  0.57126804864E+02  0.00000000000E+00 0.  1.
         14    1    6    6    0    0  0.28123125546E+02 -0.61777912905E+02  0.68383332162E+02  0.96351963296E+02  0.00000000000E+00 0. -1.
         -5    1    3    3    0  503 -0.94882022874E+02  0.36041672877E+02 -0.34229637496E+02  0.10721640981E+03  0.47000000000E+01 0.  1.
         11    1    4    4    0    0  0.47721373069E+02 -0.18260709841E+02 -0.45621878662E+02  0.68499188201E+02  0.00000000000E+00 0. -1.
        -12    1    4    4    0    0 -0.32024181032E+02 -0.35118598374E+01 -0.26466862304E+02  0.41693838040E+02  0.00000000000E+00 0.  1.
</event>
<event>
12    1  0.8271773E-002  0.3797286E+03  0.7818608E-02  0.1051038E+00
         21   -1    0    0  503  502  0.00000000000E+00  0.00000000000E+00  0.23074022193E+03  0.23074022193E+03  0.00000000000E+00 0.  1.
         21   -1    0    0  501  503 -0.00000000000E+00 -0.00000000000E+00 -0.63192431260E+03  0.63192431260E+03  0.00000000000E+00 0. -1.
          6    2    1    2  501    0  0.30769377308E+03 -0.14233319071E+03 -0.24626409350E+03  0.45259231497E+03  0.17105439092E+03 0.  0.
         24    2    3    3    0    0  0.15832777323E+03 -0.11381868100E+03 -0.74891546263E+02  0.22343315822E+03  0.79317441776E+02 0.  0.
         -6    2    1    2    0  502 -0.30769377308E+03  0.14233319071E+03 -0.15491999717E+03  0.41007221956E+03  0.17095269685E+03 0.  0.
        -24    2    5    5    0    0 -0.82867944901E+02  0.29290517656E+00 -0.86986078815E+02  0.13555591222E+03  0.62782524198E+02 0.  0.
          5    1    3    3  501    0  0.14936599985E+03 -0.28514509706E+02 -0.17137254724E+03  0.22915915675E+03  0.47000000000E+01 0. -1.
        -13    1    4    4    0    0  0.23885973992E+02 -0.42509481817E+02  0.91126234523E+01  0.49604795172E+02  0.00000000000E+00 0.  1.
         14    1    4    4    0    0  0.13444179924E+03 -0.71309199188E+02 -0.84004169715E+02  0.17382836305E+03  0.00000000000E+00 0. -1.
         -5    1    5    5    0  502 -0.22482582818E+03  0.14204028553E+03 -0.67933918357E+02  0.27451630734E+03  0.47000000000E+01 0.  1.
         13    1    6    6    0    0 -0.68102086371E+02  0.27122988909E+02 -0.59712640320E+02  0.94547078799E+02  0.00000000000E+00 0. -1.
        -14    1    6    6    0    0 -0.14765858530E+02 -0.26830083732E+02 -0.27273438494E+02  0.41008833421E+02  0.00000000000E+00 0.  1.
</event>
<event>
12    1  0.8271773E-002  0.2693858E+03  0.7818608E-02  0.1101746E+00
         21   -1    0    0  501  502  0.00000000000E+00  0.00000000000E+00  0.67453035125E+03  0.67453035125E+03  0.00000000000E+00 0. -1.
         21   -1    0    0  502  503 -0.00000000000E+00 -0.00000000000E+00 -0.22011041252E+03  0.22011041252E+03  0.00000000000E+00 0. -1.
         -6    2    1    2    0  503 -0.37126120030E+02  0.20303977343E+03 -0.92912074100E+02  0.28495855849E+03  0.17310467400E+03 0.  0.
        -24    2    3    3    0    0  0.17308078923E+01  0.94405543034E+02 -0.11124566768E+03  0.16804206044E+03  0.83349464604E+02 0.  0.
          6    2    1    2  501    0  0.37126120030E+02 -0.20303977343E+03  0.54733201283E+03  0.60968220528E+03  0.17186203998E+03 0.  0.
         24    2    5    5    0    0  0.69498661086E+01 -0.35298637378E+02  0.11265428090E+03  0.14276195978E+03  0.79973093693E+02 0.  0.
          5    1    5    5  501    0  0.30176253921E+02 -0.16774113606E+03  0.43467773193E+03  0.46692024550E+03  0.47000000000E+01 0. -1.
        -11    1    6    6    0    0  0.38736811309E+02 -0.27394985915E+02  0.93419482868E+02  0.10477702794E+03  0.00000000000E+00 0.  1.
         12    1    6    6    0    0 -0.31786945201E+02 -0.79036514633E+01  0.19234798028E+02  0.37984931839E+02  0.00000000000E+00 0. -1.
         -5    1    3    3    0  503 -0.38856927922E+02  0.10863423040E+03  0.18333593577E+02  0.11691649805E+03  0.47000000000E+01 0.  1.
         11    1    4    4    0    0 -0.24012207604E+02  0.95232311425E+02 -0.99250149507E+02  0.13962940747E+03  0.00000000000E+00 0. -1.
        -12    1    4    4    0    0  0.25743015496E+02 -0.82676839092E+00 -0.11995518170E+02  0.28412652973E+02  0.00000000000E+00 0.  1.
</event>
<event>
12    1  0.8271773E-002  0.2893165E+03  0.7818608E-02  0.1090807E+00
         21   -1    0    0  501  502  0.00000000000E+00  0.00000000000E+00  0.16698813474E+04  0.16698813474E+04  0.00000000000E+00 0. -1.
         21   -1    0    0  502  503 -0.00000000000E+00 -0.00000000000E+00 -0.50248194176E+02  0.50248194176E+02  0.00000000000E+00 0.  1.
         -6    2    1    2    0  503 -0.22462812412E+03 -0.57146624087E+02  0.86998712583E+03  0.91659159492E+03  0.17186920018E+03 0.  0.
        -24    2    3    3    0    0 -0.51930270402E+02 -0.55376050905E+02  0.42452945789E+03  0.43880261688E+03  0.80988986688E+02 0.  0.
          6    2    1    2  501    0  0.22462812412E+03  0.57146624087E+02  0.74964602741E+03  0.80353794667E+03  0.17314887970E+03 0.  0.
         24    2    5    5    0    0  0.90800274690E+02  0.85802627963E+02  0.45515811465E+03  0.47876682634E+03  0.80261969956E+02 0.  0.
          5    1    5    5  501    0  0.13382784943E+03 -0.28656003876E+02  0.29448791276E+03  0.32477112033E+03  0.47000000000E+01 0. -1.
        -11    1    6    6    0    0  0.66457676596E+02  0.53592621115E+02  0.16466436547E+03  0.18548084826E+03  0.00000000000E+00 0.  1.
         12    1    6    6    0    0  0.24342598094E+02  0.32210006848E+02  0.29049374918E+03  0.29328597808E+03  0.00000000000E+00 0. -1.
         -5    1    3    3    0  503 -0.17269785372E+03 -0.17705731825E+01  0.44545766794E+03  0.47778897804E+03  0.47000000000E+01 0.  1.
         11    1    4    4    0    0 -0.43044580195E+02 -0.55129833429E+02  0.42417867472E+03  0.42990659742E+03  0.00000000000E+00 0. -1.
        -12    1    4    4    0    0 -0.88856902075E+01 -0.24621747561E+00  0.35078317871E+00  0.88960194664E+01  0.00000000000E+00 0.  1.
</event>
<event>
12    1  0.8271773E-002  0.1853290E+03  0.7818608E-02  0.1162862E+00
         21   -1    0    0  503  502  0.00000000000E+00  0.00000000000E+00  0.31698425246E+03  0.31698425246E+03  0.00000000000E+00 0. -1.
         21   -1    0    0  501  503 -0.00000000000E+00 -0.00000000000E+00 -0.11547511657E+03  0.11547511657E+03  0.00000000000E+00 0. -1.
          6    2    1    2  501    0  0.55624825229E+02 -0.38740649893E+02  0.46078032756E+02  0.19097127189E+03  0.17248733997E+03 0.  0.
         24    2    3    3    0    0  0.21122915143E+02 -0.88533099736E+02  0.14419065846E+02  0.12245813413E+03  0.80646127376E+02 0.  0.
         -6    2    1    2    0  502 -0.55624825229E+02  0.38740649893E+02  0.15543110313E+03  0.24148809713E+03  0.17193811126E+03 0.  0.
        -24    2    5    5    0    0 -0.49626526823E+02 -0.67390035440E+01  0.17022569130E+03  0.19305930095E+03  0.76071685758E+02 0.  0.
          5    1    3    3  501    0  0.34501910086E+02  0.49792449843E+02  0.31658966910E+02  0.68513137767E+02  0.47000000000E+01 0. -1.
        -13    1    4    4    0    0 -0.96219004073E+01 -0.12440174680E+02  0.34545494238E+02  0.37956950426E+02  0.00000000000E+00 0.  1.
         14    1    4    4    0    0  0.30744815550E+02 -0.76092925056E+02 -0.20126428392E+02  0.84501183700E+02  0.00000000000E+00 0. -1.
         -5    1    5    5    0  502 -0.59982984064E+01  0.45479653437E+02 -0.14794588169E+02  0.48428796182E+02  0.47000000000E+01 0.  1.
         13    1    6    6    0    0  0.14952837308E+02  0.14329037768E+02  0.61139486492E+02  0.64551882044E+02  0.00000000000E+00 0. -1.
        -14    1    6    6    0    0 -0.64579364130E+02 -0.21068041312E+02  0.10908620480E+03  0.12850741891E+03  0.00000000000E+00 0.  1.
</event>
<event>
12    1  0.8271773E-002  0.3014412E+03  0.7818608E-02  0.1084543E+00
         21   -1    0    0  503  502  0.00000000000E+00  0.00000000000E+00  0.13243192964E+04  0.13243192964E+04  0.00000000000E+00 0. -1.
         21   -1    0    0  501  503 -0.00000000000E+00 -0.00000000000E+00 -0.91963023666E+02  0.91963023666E+02  0.00000000000E+00 0.  1.
          6    2    1    2  501    0 -0.23860129968E+03 -0.66321123344E+02  0.25893831024E+03  0.39725859942E+03  0.17157002853E+03 0.  0.
         24    2    3    3    0    0 -0.24343237017E+03 -0.89752960244E+02  0.25530802624E+03  0.37260785532E+03  0.79621057918E+02 0.  0.
         -6    2    1    2    0  502  0.23860129968E+03  0.66321123344E+02  0.97341796254E+03  0.10190237207E+04  0.17186547627E+03 0.  0.
        -24    2    5    5    0    0  0.96014361937E+02 -0.33035060524E+01  0.27202107824E+03  0.29988652715E+03  0.81895001733E+02 0.  0.
          5    1    3    3  501    0  0.48310704941E+01  0.23431836900E+02  0.36302840038E+01  0.24650744098E+02  0.47000000000E+01 0. -1.
        -13    1    4    4    0    0 -0.12353354682E+03 -0.58739286328E+02  0.81618007708E+02  0.15928697414E+03  0.00000000000E+00 0.  1.
         14    1    4    4    0    0 -0.11989882336E+03 -0.31013673916E+02  0.17369001853E+03  0.21332088118E+03  0.00000000000E+00 0. -1.
         -5    1    5    5    0  502  0.14258693774E+03  0.69624629396E+02  0.70139688430E+03  0.71913719355E+03  0.47000000000E+01 0.  1.
         13    1    6    6    0    0  0.48747704229E+02  0.38341037109E+02  0.11412928670E+03  0.12989175446E+03  0.00000000000E+00 0. -1.
        -14    1    6    6    0    0  0.47266657708E+02 -0.41644543162E+02  0.15789179154E+03  0.16999477269E+03  0.00000000000E+00 0.  1.
</event>
<event>
12    1  0.8271773E-002  0.1766897E+03  0.7818608E-02  0.1171530E+00
         21   -1    0    0  503  502  0.00000000000E+00  0.00000000000E+00  0.80950935616E+02  0.80950935616E+02  0.00000000000E+00 0. -1.
         21   -1    0    0  501  503 -0.00000000000E+00 -0.00000000000E+00 -0.10428440117E+04  0.10428440117E+04  0.00000000000E+00 0. -1.
          6    2    1    2  501    0  0.14101523700E+02  0.26597615781E+02 -0.92940463967E+03  0.94605086726E+03  0.17410621203E+03 0.  0.
         24    2    3    3    0    0  0.29436658839E+02  0.45560049240E+02 -0.28519692407E+03  0.30136457836E+03  0.80876996869E+02 0.  0.
         -6    2    1    2    0  502 -0.14101523700E+02 -0.26597615781E+02 -0.32488436372E+02  0.17774408001E+03  0.17213707720E+03 0.  0.
        -24    2    5    5    0    0  0.14988160003E+02 -0.77792548527E+02 -0.38130535195E+02  0.11840560922E+03  0.79307156263E+02 0.  0.
          5    1    3    3  501    0 -0.15335135140E+02 -0.18962433459E+02 -0.64420771560E+03  0.64468628890E+03  0.47000000000E+01 0. -1.
        -13    1    4    4    0    0 -0.98505007727E+01  0.55400104134E+02 -0.14889056966E+03  0.15916848192E+03  0.00000000000E+00 0.  1.
         14    1    4    4    0    0  0.39287159612E+02 -0.98400548941E+01 -0.13630635441E+03  0.14219609644E+03  0.00000000000E+00 0. -1.
         -5    1    5    5    0  502 -0.29089683702E+02  0.51194932746E+02  0.56420988237E+01  0.59338470792E+02  0.47000000000E+01 0.  1.
         11    1    6    6    0    0  0.46128234688E+02 -0.32709602591E+02 -0.26231313986E+02  0.62336297376E+02  0.00000000000E+00 0. -1.
        -12    1    6    6    0    0 -0.31140074685E+02 -0.45082945936E+02 -0.11899221209E+02  0.56069311847E+02  0.00000000000E+00 0.  1.
</event>
<event>
12    1  0.8271773E-002  0.1958169E+03  0.7818608E-02  0.1153651E+00
         21   -1    0    0  501  502  0.00000000000E+00  0.00000000000E+00  0.48739164958E+03  0.48739164958E+03  0.00000000000E+00 0. -1.
         21   -1    0    0  502  503 -0.00000000000E+00 -0.00000000000E+00 -0.95512175658E+02  0.95512175658E+02  0.00000000000E+00 0. -1.
         -6    2    1    2    0  503 -0.64753813706E+01  0.90569835130E+02  0.70718962277E+02  0.20675445639E+03  0.17175973920E+03 0.  0.
        -24    2    3    3    0    0  0.36402817046E+02  0.81159303870E+02 -0.43088545712E+01  0.11970067244E+03  0.79985542834E+02 0.  0.
          6    2    1    2  501    0  0.64753813706E+01 -0.90569835130E+02  0.32116051165E+03  0.37614936885E+03  0.17349192444E+03 0.  0.
         24    2    5    5    0    0 -0.50639104328E+02 -0.75162605579E+01  0.15581299106E+03  0.18244378480E+03  0.79920168741E+02 0.  0.
          5    1    5    5  501    0  0.57114485699E+02 -0.83053574573E+02  0.16534752059E+03  0.19370558405E+03  0.47000000000E+01 0. -1.
        -11    1    6    6    0    0 -0.96299639889E+01  0.34252166762E+02  0.47785840306E+02  0.59577123697E+02  0.00000000000E+00 0.  1.
         12    1    6    6    0    0 -0.41009140339E+02 -0.41768427320E+02  0.10802715075E+03  0.12286666111E+03  0.00000000000E+00 0. -1.
         -5    1    3    3    0  503 -0.42878198416E+02  0.94105312605E+01  0.75027816848E+02  0.87053783945E+02  0.47000000000E+01 0.  1.
         11    1    4    4    0    0  0.82174155322E+01  0.74231689809E+02  0.24701434088E+02  0.78664035848E+02  0.00000000000E+00 0. -1.
        -12    1    4    4    0    0  0.28185401514E+02  0.69276140611E+01 -0.29010288659E+02  0.41036636596E+02  0.00000000000E+00 0.  1.
</event>
<event>
12    1  0.8271773E-002  0.1818350E+03  0.7818608E-02  0.1166233E+00
         21   -1    0    0  503  502  0.00000000000E+00  0.00000000000E+00  0.75210176610E+02  0.75210176610E+02  0.00000000000E+00 0. -1.
         21   -1    0    0  501  503 -0.00000000000E+00 -0.00000000000E+00 -0.44793438230E+03  0.44793438230E+03  0.00000000000E+00 0. -1.
          6    2    1    2  501    0  0.46662693904E+02 -0.26492430191E+02 -0.22556670143E+03  0.28922297607E+03  0.17288822179E+03 0.  0.
         24    2    3    3    0    0  0.83182686834E+02  0.25152576026E+02 -0.14021792185E+03  0.18288661951E+03  0.78958460718E+02 0.  0.
         -6    2    1    2    0  502 -0.46662693904E+02  0.26492430191E+02 -0.14715750426E+03  0.23392158284E+03  0.17373750314E+03 0.  0.
        -24    2    5    5    0    0 -0.14697941051E+02  0.56232589351E+02 -0.16000196260E+03  0.18816906814E+03  0.80180026143E+02 0.  0.
          5    1    3    3  501    0 -0.36519992931E+02 -0.51645006218E+02 -0.85348779579E+02  0.10633635656E+03  0.47000000000E+01 0. -1.
        -13    1    4    4    0    0 -0.24212739508E+01  0.31134097397E+02 -0.31155768452E+02  0.44112090136E+02  0.00000000000E+00 0.  1.
         14    1    4    4    0    0  0.85603960785E+02 -0.59815213707E+01 -0.10906215340E+03  0.13877452938E+03  0.00000000000E+00 0. -1.
         -5    1    5    5    0  502 -0.31964752852E+02 -0.29740159160E+02  0.12844458334E+02  0.45752514703E+02  0.47000000000E+01 0.  1.
         13    1    6    6    0    0 -0.13506040167E+02  0.31287148677E+02 -0.91789241429E+01  0.35292370872E+02  0.00000000000E+00 0. -1.
        -14    1    6    6    0    0 -0.11919008849E+01  0.24945440674E+02 -0.15082303845E+03  0.15287669726E+03  0.00000000000E+00 0.  1.
</event>
<event>
12    1  0.8271773E-002  0.1822368E+03  0.7818608E-02  0.1165691E+00
         21   -1    0    0  503  502  0.00000000000E+00  0.00000000000E+00  0.18538833953E+04  0.18538833953E+04  0.00000000000E+00 0. -1.
         21   -1    0    0  501  503 -0.00000000000E+00 -0.00000000000E+00 -0.25573037219E+02  0.25573037219E+02  0.00000000000E+00 0. -1.
          6    2    1    2  501    0  0.57394627646E+02 -0.14365119452E+02  0.39913094399E+03  0.43870522607E+03  0.17220994453E+03 0.  0.
         24    2    3    3    0    0  0.10110531184E+03 -0.28197241102E+02  0.22895379355E+03  0.26239781263E+03  0.73589428627E+02 0.  0.
         -6    2    1    2    0  502 -0.57394627646E+02  0.14365119452E+02  0.14291794141E+04  0.14407512064E+04  0.17236513935E+03 0.  0.
        -24    2    5    5    0    0 -0.36375051781E+02  0.55434186069E+02  0.12923086648E+04  0.12962375987E+04  0.75987721837E+02 0.  0.
          5    1    3    3  501    0 -0.43710684199E+02  0.13832121650E+02  0.17017715044E+03  0.17630741344E+03  0.47000000000E+01 0. -1.
        -13    1    4    4    0    0  0.88592907176E+02 -0.14646815279E+01  0.11786716110E+03  0.14745682812E+03  0.00000000000E+00 0.  1.
         14    1    4    4    0    0  0.12512404669E+02 -0.26732559574E+02  0.11108663245E+03  0.11494098451E+03  0.00000000000E+00 0. -1.
         -5    1    5    5    0  502 -0.21019575865E+02 -0.41069066616E+02  0.13687074929E+03  0.14451360771E+03  0.47000000000E+01 0.  1.
         13    1    6    6    0    0 -0.31452672769E+02  0.58213867330E+02  0.55831512381E+03  0.56222228917E+03  0.00000000000E+00 0. -1.
        -14    1    6    6    0    0 -0.49223790116E+01 -0.27796812613E+01  0.73399354099E+03  0.73401530955E+03  0.00000000000E+00 0.  1.
</event>
<event>
12    1  0.8271773E-002  0.2048196E+03  0.7818608E-02  0.1147905E+00
         21   -1    0    0  503  502  0.00000000000E+00  0.00000000000E+00  0.28881398008E+03  0.28881398008E+03  0.00000000000E+00 0.  1.
         21   -1    0    0  501  503 -0.00000000000E+00 -0.00000000000E+00 -0.16631241094E+03  0.16631241094E+03  0.00000000000E+00 0.  1.
          6    2    1    2  501    0 -0.11159204293E+03 -0.13653076685E+02 -0.33884161497E+02  0.19742971863E+03  0.15871725442E+03 0.  0.
         24    2    3    3    0    0 -0.10258047505E+03  0.42555519289E+02 -0.17456179632E+02  0.13799418040E+03  0.80024680781E+02 0.  0.
         -6    2    1    2    0  502  0.11159204293E+03  0.13653076685E+02  0.15638573063E+03  0.25769667239E+03  0.17120714841E+03 0.  0.
        -24    2    5    5    0    0  0.11521274473E+02  0.32161218916E+02  0.29883774126E+02  0.95272705472E+02  0.83766130890E+02 0.  0.
          5    1    3    3  501    0 -0.90115678859E+01 -0.56208595973E+02 -0.16427981865E+02  0.59435538234E+02  0.47000000000E+01 0. -1.
        -13    1    4    4    0    0 -0.10495181226E+03  0.36177139860E+02 -0.37224931142E+02  0.11708699263E+03  0.00000000000E+00 0.  1.
         14    1    4    4    0    0  0.23713372080E+01  0.63783794292E+01  0.19768751510E+02  0.20907187773E+02  0.00000000000E+00 0. -1.
         -5    1    5    5    0  502  0.10007076846E+03 -0.18508142231E+02  0.12650195651E+03  0.16242396692E+03  0.47000000000E+01 0.  1.
         13    1    6    6    0    0 -0.10131979852E+02  0.43652433734E+02  0.47334327834E+02  0.65182287303E+02  0.00000000000E+00 0. -1.
        -14    1    6    6    0    0  0.21653254325E+02 -0.11491214818E+02 -0.17450553707E+02  0.30090418168E+02  0.00000000000E+00 0.  1.
</event>
<event>
12    1  0.8271773E-002  0.2196343E+03  0.7818608E-02  0.1134615E+00
         21   -1    0    0  501  502  0.00000000000E+00  0.00000000000E+00  0.99334092727E+03  0.99334092727E+03  0.00000000000E+00 0.  1.
         21   -1    0    0  502  503 -0.00000000000E+00 -0.00000000000E+00 -0.58540546265E+02  0.58540546265E+02  0.00000000000E+00 0. -1.
         -6    2    1    2    0  503 -0.12632060901E+03 -0.51677951963E+02  0.24662932404E+03  0.33025027833E+03  0.17208055056E+03 0.  0.
        -24    2    3    3    0    0 -0.15874626242E+03 -0.53699457801E+02  0.21597162351E+03  0.28533375480E+03  0.81777758992E+02 0.  0.
          6    2    1    2  501    0  0.12632060901E+03  0.51677951963E+02  0.68817105696E+03  0.72163119520E+03  0.16895168324E+03 0.  0.
         24    2    5    5    0    0  0.14594449258E+03  0.76891194388E+01  0.54687346640E+03  0.57227520003E+03  0.84079717261E+02 0.  0.
          5    1    5    5  501    0 -0.19623883564E+02  0.43988832525E+02  0.14129759057E+03  0.14935599517E+03  0.47000000000E+01 0. -1.
        -11    1    6    6    0    0  0.11065275205E+02 -0.12990644734E+02  0.18068030600E+03  0.18148435233E+03  0.00000000000E+00 0.  1.
         12    1    6    6    0    0  0.13487921737E+03  0.20679764173E+02  0.36619316040E+03  0.39079084770E+03  0.00000000000E+00 0. -1.
         -5    1    3    3    0  503  0.32425653403E+02  0.20215058376E+01  0.30657700529E+02  0.44916523532E+02  0.47000000000E+01 0.  1.
         11    1    4    4    0    0 -0.55254627859E+02 -0.41204532167E+02  0.37033331757E+02  0.78245479307E+02  0.00000000000E+00 0. -1.
        -12    1    4    4    0    0 -0.10349163456E+03 -0.12494925633E+02  0.17893829175E+03  0.20708827549E+03  0.00000000000E+00 0.  1.
</event>
<event>
12    1  0.8271773E-002  0.1949546E+03  0.7818608E-02  0.1154434E+00
         21   -1    0    0  501  502  0.00000000000E+00  0.00000000000E+00  0.10320334901E+03  0.10320334901E+03  0.00000000000E+00 0. -1.
         21   -1    0    0  502  503 -0.00000000000E+00 -0.00000000000E+00 -0.36794764647E+03  0.36794764647E+03  0.00000000000E+00 0. -1.
         -6    2    1    2    0  503  0.66812737487E+02 -0.65271855879E+02 -0.15245752693E+03  0.24617184191E+03  0.16921265075E+03 0.  0.
        -24    2    3    3    0    0  0.13030746870E+02  0.25393133582E+02 -0.86198206959E+02  0.12157236233E+03  0.80839945591E+02 0.  0.
          6    2    1    2  501    0 -0.66812737487E+02  0.65271855879E+02 -0.11228677053E+03  0.22497915356E+03  0.17112259828E+03 0.  0.
         24    2    5    5    0    0 -0.82904894600E+00  0.93030041325E+02 -0.79928314193E+02  0.14628021005E+03  0.79712536860E+02 0.  0.
          5    1    5    5  501    0 -0.65983688541E+02 -0.27758185446E+02 -0.32358456337E+02  0.78698943508E+02  0.47000000000E+01 0. -1.
        -13    1    6    6    0    0  0.23980164257E+02  0.43612026282E+01 -0.31025093785E-01  0.24373537468E+02  0.00000000000E+00 0.  1.
         14    1    6    6    0    0 -0.24809213203E+02  0.88668838697E+02 -0.79897289099E+02  0.12190667259E+03  0.00000000000E+00 0. -1.
         -5    1    3    3    0  503  0.53781990617E+02 -0.90664989461E+02 -0.66259319968E+02  0.12459947958E+03  0.47000000000E+01 0.  1.
         11    1    4    4    0    0  0.18364835060E+02 -0.25389136451E+01  0.10135503647E+02  0.21129166653E+02  0.00000000000E+00 0. -1.
        -12    1    4    4    0    0 -0.53340881901E+01  0.27932047227E+02 -0.96333710606E+02  0.10044319568E+03  0.00000000000E+00 0.  1.
</event>
<event>
12    1  0.8271773E-002  0.1864014E+03  0.7818608E-02  0.1162140E+00
         21   -1    0    0  501  502  0.00000000000E+00  0.00000000000E+00  0.55506213608E+02  0.55506213608E+02  0.00000000000E+00 0.  1.
         21   -1    0    0  502  503 -0.00000000000E+00 -0.00000000000E+00 -0.12656167581E+04  0.12656167581E+04  0.00000000000E+00 0.  1.
         -6    2    1    2    0  503  0.67092359548E+02 -0.24778654739E+02 -0.10753782912E+04  0.10911267874E+04  0.17030511027E+03 0.  0.
        -24    2    3    3    0    0 -0.14627360741E+02 -0.37376400346E+02 -0.75521171126E+03  0.76042216877E+03  0.79285502792E+02 0.  0.
          6    2    1    2  501    0 -0.67092359548E+02  0.24778654739E+02 -0.13473225332E+03  0.22999618432E+03  0.17213395446E+03 0.  0.
         24    2    5    5    0    0 -0.77153997988E+02  0.65409907086E+02 -0.13606086222E+03  0.18785368277E+03  0.80902735131E+02 0.  0.
          5    1    5    5  501    0  0.10061638440E+02 -0.40631252348E+02  0.13286089015E+01  0.42142501552E+02  0.47000000000E+01 0. -1.
        -13    1    6    6    0    0 -0.27188776042E+02 -0.11407895559E+02 -0.66697947258E+02  0.72924521199E+02  0.00000000000E+00 0.  1.
         14    1    6    6    0    0 -0.49965221946E+02  0.76817802646E+02 -0.69362914964E+02  0.11492916157E+03  0.00000000000E+00 0. -1.
         -5    1    3    3    0  503  0.81719720290E+02  0.12597745608E+02 -0.32016657996E+03  0.33070461866E+03  0.47000000000E+01 0.  1.
         11    1    4    4    0    0 -0.36358077378E+02 -0.39221446426E+02 -0.30291350153E+03  0.30759847376E+03  0.00000000000E+00 0. -1.
        -12    1    4    4    0    0  0.21730716637E+02  0.18450460799E+01 -0.45229820974E+03  0.45282369502E+03  0.00000000000E+00 0.  1.
</event>
<event>
12    1  0.8271773E-002  0.2123593E+03  0.7818608E-02  0.1140041E+00
         21   -1    0    0  503  502  0.00000000000E+00  0.00000000000E+00  0.32801507385E+03  0.32801507385E+03  0.00000000000E+00 0.  1.
         21   -1    0    0  501  503 -0.00000000000E+00 -0.00000000000E+00 -0.19797322714E+03  0.19797322714E+03  0.00000000000E+00 0. -1.
          6    2    1    2  501    0  0.77756260758E+02  0.10129947913E+03 -0.81830024190E+02  0.22601137382E+03  0.16756302599E+03 0.  0.
         24    2    3    3    0    0  0.21821010401E+01  0.62162540767E+02  0.11145069473E+02  0.99878064968E+02  0.77346443025E+02 0.  0.
         -6    2    1    2    0  502 -0.77756260758E+02 -0.10129947913E+03  0.21187187090E+03  0.29997692716E+03  0.16967276326E+03 0.  0.
        -24    2    5    5    0    0 -0.88207727983E+02 -0.53603317294E+02  0.21481356319E+03  0.25083528927E+03  0.78227594318E+02 0.  0.
          5    1    3    3  501    0  0.75574159718E+02  0.39136938359E+02 -0.92975093663E+02  0.12613330886E+03  0.47000000000E+01 0. -1.
        -13    1    4    4    0    0  0.22472192052E+02 -0.31533441137E+01  0.20827324324E+02  0.30801305707E+02  0.00000000000E+00 0.  1.
         14    1    4    4    0    0 -0.20290091012E+02  0.65315884880E+02 -0.96822548510E+01  0.69076759261E+02  0.00000000000E+00 0. -1.
         -5    1    5    5    0  502  0.10451467225E+02 -0.47696161831E+02 -0.29416922958E+01  0.49141637886E+02  0.47000000000E+01 0.  1.
         11    1    6    6    0    0 -0.52087345418E+02 -0.17149942259E+02  0.37980348013E+02  0.66706213410E+02  0.00000000000E+00 0. -1.
        -12    1    6    6    0    0 -0.36120382564E+02 -0.36453375035E+02  0.17683321518E+03  0.18412907586E+03  0.00000000000E+00 0.  1.
</event>
<event>
12    1  0.8271773E-002  0.2137003E+03  0.7818608E-02  0.1139112E+00
         21   -1    0    0  501  502  0.00000000000E+00  0.00000000000E+00  0.24122663011E+03  0.24122663011E+03  0.00000000000E+00 0.  1.
         21   -1    0    0  502  503 -0.00000000000E+00 -0.00000000000E+00 -0.21000918318E+03  0.21000918318E+03  0.00000000000E+00 0.  1.
         -6    2    1    2    0  503  0.25371255422E+02  0.12015880214E+03 -0.58501881112E+02  0.22156324661E+03  0.17488843250E+03 0.  0.
        -24    2    3    3    0    0  0.15605789904E+01  0.77696738737E+02  0.34560484970E+02  0.11643157145E+03  0.79515187812E+02 0.  0.
          6    2    1    2  501    0 -0.25371255422E+02 -0.12015880214E+03  0.89719328050E+02  0.22967256668E+03  0.17209907531E+03 0.  0.
         24    2    5    5    0    0  0.37759536187E+02 -0.10776233265E+03  0.88695051569E+02  0.16515661169E+03  0.79820995367E+02 0.  0.
          5    1    5    5  501    0 -0.63130791609E+02 -0.12396469489E+02  0.10242764808E+01  0.64515954983E+02  0.47000000000E+01 0. -1.
        -13    1    6    6    0    0 -0.18911825879E+02 -0.51369267471E+02  0.57354591794E+02  0.79284349013E+02  0.00000000000E+00 0.  1.
         14    1    6    6    0    0  0.56671362066E+02 -0.56393065182E+02  0.31340459775E+02  0.85872262681E+02  0.00000000000E+00 0. -1.
         -5    1    3    3    0  503  0.23810676432E+02  0.42462063405E+02 -0.93062366082E+02  0.10513167516E+03  0.47000000000E+01 0.  1.
         13    1    4    4    0    0  0.23853641063E+02  0.26295872222E+01 -0.10377736550E+02  0.26145904781E+02  0.00000000000E+00 0. -1.
        -14    1    4    4    0    0 -0.22293062072E+02  0.75067151515E+02  0.44938221520E+02  0.90285666673E+02  0.00000000000E+00 0.  1.
</event>
<event>
12    1  0.8271773E-002  0.1878774E+03  0.7818608E-02  0.1160561E+00
         21   -1    0    0  501  502  0.00000000000E+00  0.00000000000E+00  0.37441419712E+03  0.37441419712E+03  0.00000000000E+00 0.  1.
         21   -1    0    0  502  503 -0.00000000000E+00 -0.00000000000E+00 -0.12336273599E+03  0.12336273599E+03  0.00000000000E+00 0. -1.
         -6    2    1    2    0  503  0.66833601541E+02  0.37570960533E+02  0.24696481645E+03  0.30985507784E+03  0.17070512977E+03 0.  0.
        -24    2    3    3    0    0  0.67195105010E+02  0.63218936647E+02  0.92685228490E+02  0.15338709190E+03  0.80157546702E+02 0.  0.
          6    2    1    2  501    0 -0.66833601541E+02 -0.37570960533E+02  0.40866446836E+01  0.18792185527E+03  0.17152147286E+03 0.  0.
         24    2    5    5    0    0 -0.28691440713E+02 -0.66573219985E+02  0.48095356654E+02  0.12269293365E+03  0.86517051775E+02 0.  0.
          5    1    5    5  501    0 -0.38142160828E+02  0.29002259452E+02 -0.44008711970E+02  0.65228921616E+02  0.47000000000E+01 0. -1.
        -11    1    6    6    0    0  0.27415604600E+02 -0.44277891803E+02  0.17010343742E+02  0.54785936811E+02  0.00000000000E+00 0.  1.
         12    1    6    6    0    0 -0.56107045313E+02 -0.22295328183E+02  0.31085012912E+02  0.67906996843E+02  0.00000000000E+00 0. -1.
         -5    1    3    3    0  503 -0.36150346920E+00 -0.25647976113E+02  0.15427958796E+03  0.15646798594E+03  0.47000000000E+01 0.  1.
         11    1    4    4    0    0 -0.10858726546E+02  0.27178317939E+02  0.34418665716E+01  0.29468955762E+02  0.00000000000E+00 0. -1.
        -12    1    4    4    0    0  0.78053831556E+02  0.36040618708E+02  0.89243361919E+02  0.12391813614E+03  0.00000000000E+00 0.  1.
</event>
<event>
12    1  0.8271773E-002  0.2865701E+03  0.7818608E-02  0.1092319E+00
         21   -1    0    0  501  502  0.00000000000E+00  0.00000000000E+00  0.35232354247E+03  0.35232354247E+03  0.00000000000E+00 0.  1.
         21   -1    0    0  502  503 -0.00000000000E+00 -0.00000000000E+00 -0.27436285380E+03  0.27436285380E+03  0.00000000000E+00 0. -1.
         -6    2    1    2    0  503  0.76971552936E+02 -0.21466783714E+03 -0.83960174900E+02  0.29861635463E+03  0.17353822640E+03 0.  0.
        -24    2    3    3    0    0  0.67796909419E+02 -0.15693005714E+03  0.94334138590E+01  0.18833363729E+03  0.78467228054E+02 0.  0.
          6    2    1    2  501    0 -0.76971552936E+02  0.21466783714E+03  0.16192086357E+03  0.32807004164E+03  0.17147794580E+03 0.  0.
         24    2    5    5    0    0 -0.10668037104E+03  0.10708638551E+03  0.80397334248E+02  0.18977847125E+03  0.81877599310E+02 0.  0.
          5    1    5    5  501    0  0.29708818101E+02  0.10758145163E+03  0.81523529322E+02  0.13829157039E+03  0.47000000000E+01 0. -1.
        -13    1    6    6    0    0 -0.87706303485E+02  0.43359867483E+02  0.74599787945E+02  0.12303496308E+03  0.00000000000E+00 0.  1.
         14    1    6    6    0    0 -0.18974067552E+02  0.63726518023E+02  0.57975463026E+01  0.66743508164E+02  0.00000000000E+00 0. -1.
         -5    1    3    3    0  503  0.91746435169E+01 -0.57737779995E+02 -0.93393588759E+02  0.11028271734E+03  0.47000000000E+01 0.  1.
         13    1    4    4    0    0  0.23678861145E+02 -0.38180603954E+02 -0.31878059398E+02  0.55087726895E+02  0.00000000000E+00 0. -1.
        -14    1    4    4    0    0  0.44118048275E+02 -0.11874945319E+03  0.41311473257E+02  0.13324591040E+03  0.00000000000E+00 0.  1.
</event>
<event>
12    1  0.8271773E-002  0.2638979E+03  0.7818608E-02  0.1105366E+00
         21   -1    0    0  501  502  0.00000000000E+00  0.00000000000E+00  0.18274054690E+03  0.18274054690E+03  0.00000000000E+00 0.  1.
         21   -1    0    0  502  503 -0.00000000000E+00 -0.00000000000E+00 -0.46527315437E+03  0.46527315437E+03  0.00000000000E+00 0. -1.
         -6    2    1    2    0  503 -0.93207877614E+02 -0.17731239059E+03 -0.28252226256E+03  0.38411579154E+03  0.16612862536E+03 0.  0.
        -24    2    3    3    0    0 -0.35109280616E+02 -0.76128985421E+02 -0.22716092824E+03  0.25488539344E+03  0.79600203931E+02 0.  0.
          6    2    1    2  501    0  0.93207877614E+02  0.17731239059E+03 -0.10344921081E-01  0.26389790973E+03  0.17179847015E+03 0.  0.
         24    2    5    5    0    0  0.54401761856E+02  0.10254003800E+03  0.67182717836E+02  0.15603773629E+03  0.79751153498E+02 0.  0.
          5    1    5    5  501    0  0.38806115758E+02  0.74772352591E+02 -0.67193062757E+02  0.10786017344E+03  0.47000000000E+01 0. -1.
        -11    1    6    6    0    0  0.73640327268E+02  0.72948689678E+02  0.38559991492E+02  0.11059512679E+03  0.00000000000E+00 0.  1.
         12    1    6    6    0    0 -0.19238565413E+02  0.29591348320E+02  0.28622726345E+02  0.45442609497E+02  0.00000000000E+00 0. -1.
         -5    1    3    3    0  503 -0.58098596998E+02 -0.10118340517E+03 -0.55361334316E+02  0.12923039809E+03  0.47000000000E+01 0.  1.
         13    1    4    4    0    0  0.18225344250E+01 -0.60976802769E+02 -0.70551915192E+02  0.93268777439E+02  0.00000000000E+00 0. -1.
        -14    1    4    4    0    0 -0.36931815041E+02 -0.15152182652E+02 -0.15660901305E+03  0.16161661601E+03  0.00000000000E+00 0.  1.
</event>
<event>
12    1  0.8271773E-002  0.1815071E+03  0.7818608E-02  0.1166919E+00
         21   -1    0    0  501  502  0.00000000000E+00  0.00000000000E+00  0.27414760851E+04  0.27414760851E+04  0.00000000000E+00 0.  1.
         21   -1    0    0  502  503 -0.00000000000E+00 -0.00000000000E+00 -0.17696318917E+02  0.17696318917E+02  0.00000000000E+00 0.  1.
         -6    2    1    2    0  503  0.43181566392E+02 -0.23184056424E+02  0.56381861586E+03  0.59159841861E+03  0.17232268904E+03 0.  0.
        -24    2    3    3    0    0  0.46430983659E+02 -0.25894646011E+02  0.15125450709E+03  0.17898584021E+03  0.79571578741E+02 0.  0.
          6    2    1    2  501    0 -0.43181566392E+02  0.23184056424E+02  0.21599611503E+04  0.21675739854E+04  0.17476459361E+03 0.  0.
         24    2    5    5    0    0  0.17001093065E+02 -0.22698542987E+02  0.16318238887E+04  0.16340215301E+04  0.79830421273E+02 0.  0.
          5    1    5    5  501    0 -0.60182659458E+02  0.45882599411E+02  0.52813726162E+03  0.53355245529E+03  0.47000000000E+01 0. -1.
        -13    1    6    6    0    0  0.90559867266E+01 -0.45146693111E+02  0.54648777847E+03  0.54842422157E+03  0.00000000000E+00 0.  1.
         14    1    6    6    0    0  0.79451063388E+01  0.22448150125E+02  0.10853361102E+04  0.10855973086E+04  0.00000000000E+00 0. -1.
         -5    1    3    3    0  503 -0.32494172662E+01  0.27105895869E+01  0.41256410877E+03  0.41261257840E+03  0.47000000000E+01 0.  1.
         11    1    4    4    0    0 -0.17602374115E+02 -0.21648175370E+02  0.70615494910E+02  0.75927828842E+02  0.00000000000E+00 0. -1.
        -12    1    4    4    0    0  0.64033357774E+02 -0.42464706416E+01  0.80639012182E+02  0.10305801136E+03  0.00000000000E+00 0.  1.
</event>
<event>
12    1  0.8271773E-002  0.1973843E+03  0.7818608E-02  0.1152099E+00
         21   -1    0    0  503  502  0.00000000000E+00  0.00000000000E+00  0.13123887307E+03  0.13123887307E+03  0.00000000000E+00 0.  1.
         21   -1    0    0  501  503 -0.00000000000E+00 -0.00000000000E+00 -0.78706208649E+03  0.78706208649E+03  0.00000000000E+00 0.  1.
          6    2    1    2  501    0 -0.35963895999E+02  0.88458483243E+02 -0.69041859015E+03  0.71790782591E+03  0.17203346132E+03 0.  0.
         24    2    3    3    0    0 -0.83719920227E+02  0.87928039152E+02 -0.55767371154E+03  0.57675467499E+03  0.83100068959E+02 0.  0.
         -6    2    1    2    0  502  0.35963895999E+02 -0.88458483243E+02  0.34595376729E+02  0.20039313365E+03  0.17274913271E+03 0.  0.
        -24    2    5    5    0    0 -0.20391731777E+02 -0.39214400151E+02 -0.38208778677E+02  0.95877720695E+02  0.76019962204E+02 0.  0.
          5    1    3    3  501    0  0.47756024229E+02  0.53044409107E+00 -0.13274487860E+03  0.14115315093E+03  0.47000000000E+01 0. -1.
        -13    1    4    4    0    0 -0.51888591738E+02  0.26982763549E+01 -0.14112481783E+03  0.15038590644E+03  0.00000000000E+00 0.  1.
         14    1    4    4    0    0 -0.31831328490E+02  0.85229762797E+02 -0.41654889371E+03  0.42636876854E+03  0.00000000000E+00 0. -1.
         -5    1    5    5    0  502  0.56355627775E+02 -0.49244083091E+02  0.72804155406E+02  0.10451541296E+03  0.47000000000E+01 0.  1.
         13    1    6    6    0    0  0.88828000592E+01 -0.44922462255E+02  0.19746911863E+01  0.45834824721E+02  0.00000000000E+00 0. -1.
        -14    1    6    6    0    0 -0.29274531836E+02  0.57080621033E+01 -0.40183469863E+02  0.50042895974E+02  0.00000000000E+00 0.  1.
</event>
<event>
12    1  0.8271773E-002  0.1806563E+03  0.7818608E-02  0.1167298E+00
         21   -1    0    0  503  502  0.00000000000E+00  0.00000000000E+00  0.56778172717E+03  0.56778172717E+03  0.00000000000E+00 0. -1.
         21   -1    0    0  501  503 -0.00000000000E+00 -0.00000000000E+00 -0.21187801381E+03  0.21187801381E+03  0.00000000000E+00 0. -1.
          6    2    1    2  501    0  0.51864877488E+02 -0.13649863025E+02 -0.15507746061E+03  0.23768330275E+03  0.17195362554E+03 0.  0.
         24    2    3    3    0    0  0.10144535029E+03 -0.54722276322E+00 -0.11479221152E+03  0.17230063104E+03  0.78859349997E+02 0.  0.
         -6    2    1    2    0  502 -0.51864877488E+02  0.13649863025E+02  0.51098117398E+03  0.54197643822E+03  0.17251207249E+03 0.  0.
        -24    2    5    5    0    0 -0.93352745469E+02  0.37779278796E+02  0.41842689361E+03  0.43761237971E+03  0.79256044482E+02 0.  0.
          5    1    3    3  501    0 -0.49580472805E+02 -0.13102640262E+02 -0.40285249097E+02  0.65382671712E+02  0.47000000000E+01 0. -1.
        -11    1    4    4    0    0 -0.10063144184E+02  0.72192782632E+01 -0.44155283410E+00  0.12392732483E+02  0.00000000000E+00 0.  1.
         12    1    4    4    0    0  0.11150849448E+03 -0.77665010264E+01 -0.11435065868E+03  0.15990789855E+03  0.00000000000E+00 0. -1.
         -5    1    5    5    0  502  0.41487867982E+02 -0.24129415771E+02  0.92554280365E+02  0.10436405851E+03  0.47000000000E+01 0.  1.
         11    1    6    6    0    0 -0.10117742220E+03  0.35167217852E+02  0.29387580556E+03  0.31278841582E+03  0.00000000000E+00 0. -1.
        -12    1    6    6    0    0  0.78246767299E+01  0.26120609444E+01  0.12455108805E+03  0.12482396389E+03  0.00000000000E+00 0.  1.
</event>
<event>
12    1  0.8271773E-002  0.1920506E+03  0.7818608E-02  0.1157222E+00
         21   -1    0    0  501  502  0.00000000000E+00  0.00000000000E+00  0.37145741601E+03  0.37145741601E+03  0.00000000000E+00 0. -1.
         21   -1    0    0  502  503 -0.00000000000E+00 -0.00000000000E+00 -0.10242356487E+03  0.10242356487E+03  0.00000000000E+00 0. -1.
         -6    2    1    2    0  503  0.51121484160E+02 -0.66933529459E+02  0.85732994411E+02  0.21031777274E+03  0.17259755412E+03 0.  0.
        -24    2    3    3    0    0  0.76345294935E+02  0.86462142940E+01  0.57782944145E+02  0.12574925847E+03  0.81059523133E+02 0.  0.
          6    2    1    2  501    0 -0.51121484160E+02  0.66933529459E+02  0.18330085672E+03  0.26356320815E+03  0.16962563811E+03 0.  0.
         24    2    5    5    0    0 -0.25897709221E+02 -0.30400475977E+02  0.79319621001E+02  0.11884163125E+03  0.78973734621E+02 0.  0.
          5    1    5    5  501    0 -0.25223774939E+02  0.97334005436E+02  0.10398123572E+03  0.14472157690E+03  0.47000000000E+01 0. -1.
        -13    1    6    6    0    0  0.86679755554E+01 -0.24351145815E+02 -0.60455132206E+01  0.26545439021E+02  0.00000000000E+00 0.  1.
         14    1    6    6    0    0 -0.34565684776E+02 -0.60493301629E+01  0.85365134221E+02  0.92296192230E+02  0.00000000000E+00 0. -1.
         -5    1    3    3    0  503 -0.25223810775E+02 -0.75579743753E+02  0.27950050266E+02  0.84568514269E+02  0.47000000000E+01 0.  1.
         13    1    4    4    0    0  0.39737522405E+02 -0.36228240005E+02  0.28147305231E+02  0.60694537254E+02  0.00000000000E+00 0. -1.
        -14    1    4    4    0    0  0.36607772530E+02  0.44874454299E+02  0.29635638914E+02  0.65054721213E+02  0.00000000000E+00 0.  1.
</event>
<event>
12    1  0.8271773E-002  0.2677822E+03  0.7818608E-02  0.1103291E+00
         21   -1    0    0  501  502  0.00000000000E+00  0.00000000000E+00  0.27065121212E+03  0.27065121212E+03  0.00000000000E+00 0.  1.
         21   -1    0    0  502  503 -0.00000000000E+00 -0.00000000000E+00 -0.83175720074E+03  0.83175720074E+03  0.00000000000E+00 0.  1.
         -6    2    1    2    0  503 -0.61640392344E+02 -0.18826927659E+03 -0.73672435987E+03  0.78217548193E+03  0.17260024227E+03 0.  0.
        -24    2    3    3    0    0 -0.31316433583E+02 -0.26586389752E+02 -0.16848999315E+03  0.19059008329E+03  0.79045220740E+02 0.  0.
          6    2    1    2  501    0  0.61640392344E+02  0.18826927659E+03  0.17561837125E+03  0.32023293094E+03  0.18017341441E+03 0.  0.
         24    2    5    5    0    0  0.47473137948E+02  0.19535803816E+03  0.91002507572E+02  0.23401868604E+03  0.77877000005E+02 0.  0.
          5    1    5    5  501    0  0.14167254396E+02 -0.70887615716E+01  0.84615863676E+02  0.86214244898E+02  0.47000000000E+01 0. -1.
        -11    1    6    6    0    0  0.66450168574E+02  0.15316747950E+03  0.85050880280E+02  0.18737543573E+03  0.00000000000E+00 0.  1.
         12    1    6    6    0    0 -0.18977030626E+02  0.42190558665E+02  0.59516272915E+01  0.46643250307E+02  0.00000000000E+00 0. -1.
         -5    1    3    3    0  503 -0.30323958761E+02 -0.16168288684E+03 -0.56823436671E+03  0.59158539864E+03  0.47000000000E+01 0.  1.
         13    1    4    4    0    0 -0.36896645803E+02 -0.50165949071E+02 -0.98599662122E+02  0.11661851606E+03  0.00000000000E+00 0. -1.
        -14    1    4    4    0    0  0.55802122199E+01  0.23579559319E+02 -0.69890331031E+02  0.73971567225E+02  0.00000000000E+00 0.  1.
</event>
<event>
12    1  0.8271773E-002  0.2263655E+03  0.7818608E-02  0.1129426E+00
         21   -1    0    0  503  502  0.00000000000E+00  0.00000000000E+00  0.49490781585E+03  0.49490781585E+03  0.00000000000E+00 0.  1.
         21   -1    0    0  501  503 -0.00000000000E+00 -0.00000000000E+00 -0.14147708407E+03  0.14147708407E+03  0.00000000000E+00 0.  1.
          6    2    1    2  501    0 -0.12578920906E+03  0.72092026438E+02  0.34292000046E+03  0.41089591779E+03  0.17384229390E+03 0.  0.
         24    2    3    3    0    0 -0.93839159404E+02  0.83157752943E+02  0.34618858167E+03  0.37660262983E+03  0.79132844009E+02 0.  0.
         -6    2    1    2    0  502  0.12578920906E+03 -0.72092026438E+02  0.10510731326E+02  0.22548898213E+03  0.17237929167E+03 0.  0.
        -24    2    5    5    0    0  0.12205876706E+02  0.57090166007E+01  0.28121879670E+02  0.86613432687E+02  0.80805137886E+02 0.  0.
          5    1    3    3  501    0 -0.31950049657E+02 -0.11065726505E+02 -0.32685812125E+01  0.34293287963E+02  0.47000000000E+01 0. -1.
        -13    1    4    4    0    0 -0.52599847861E+02  0.90434461171E+02  0.21917513362E+03  0.24286390213E+03  0.00000000000E+00 0.  1.
         14    1    4    4    0    0 -0.41239311543E+02 -0.72767082278E+01  0.12701344805E+03  0.13373872770E+03  0.00000000000E+00 0. -1.
         -5    1    5    5    0  502  0.11358333235E+03 -0.77801043039E+02 -0.17611148344E+02  0.13887554944E+03  0.47000000000E+01 0.  1.
         13    1    6    6    0    0 -0.14903941252E+02  0.25538227226E+02 -0.14019584412E+02  0.32724261058E+02  0.00000000000E+00 0. -1.
        -14    1    6    6    0    0  0.27109817959E+02 -0.19829210625E+02  0.42141464083E+02  0.53889171629E+02  0.00000000000E+00 0.  1.
</event>
<event>
12    1  0.8271773E-002  0.1848939E+03  0.7818608E-02  0.1163309E+00
         21   -1    0    0  501  502  0.00000000000E+00  0.00000000000E+00  0.47475209239E+03  0.47475209239E+03  0.00000000000E+00 0. -1.
         21   -1    0    0  502  503 -0.00000000000E+00 -0.00000000000E+00 -0.10077853580E+03  0.10077853580E+03  0.00000000000E+00 0. -1.
         -6    2    1    2    0  503 -0.49089126319E+02 -0.47450552955E+02  0.32767634259E+02  0.18777502663E+03  0.17182678916E+03 0.  0.
        -24    2    3    3    0    0 -0.57330768589E+02  0.23321249503E+02  0.60559285664E+02  0.11115232387E+03  0.69690130698E+02 0.  0.
          6    2    1    2  501    0  0.49089126319E+02  0.47450552955E+02  0.34120592234E+03  0.38775560155E+03  0.17108953154E+03 0.  0.
         24    2    5    5    0    0  0.61822219238E+01  0.90888958649E+02  0.20289441191E+03  0.23649403522E+03  0.80400644512E+02 0.  0.
          5    1    5    5  501    0  0.42906904395E+02 -0.43438405694E+02  0.13831151043E+03  0.15126156634E+03  0.47000000000E+01 0. -1.
        -11    1    6    6    0    0 -0.25816735831E+02  0.24174792375E+02  0.23564937089E+02  0.42499772886E+02  0.00000000000E+00 0.  1.
         12    1    6    6    0    0  0.31998957754E+02  0.66714166274E+02  0.17932947482E+03  0.19399426233E+03  0.00000000000E+00 0. -1.
         -5    1    3    3    0  503  0.82416422707E+01 -0.70771802458E+02 -0.27791651404E+02  0.76622702760E+02  0.47000000000E+01 0.  1.
         11    1    4    4    0    0 -0.63255586345E+02 -0.57689112876E+01  0.41484170199E+02  0.75864918892E+02  0.00000000000E+00 0. -1.
        -12    1    4    4    0    0  0.59248177563E+01  0.29090160790E+02  0.19075115464E+02  0.35287404980E+02  0.00000000000E+00 0.  1.
</event>
<event>
12    1  0.8271773E-002  0.2693924E+03  0.7818608E-02  0.1101671E+00
         21   -1    0    0  503  502  0.00000000000E+00  0.00000000000E+00  0.90045994850E+03  0.90045994850E+03  0.00000000000E+00 0.  1.
         21   -1    0    0  501  503 -0.00000000000E+00 -0.00000000000E+00 -0.96989449501E+02  0.96989449501E+02  0.00000000000E+00 0.  1.
          6    2    1    2  501    0  0.30334061034E+02 -0.20487327604E+03  0.19631189806E+03  0.33333260176E+03  0.17227607955E+03 0.  0.
         24    2    3    3    0    0 -0.18051554057E+02 -0.52036327194E+02  0.30403332053E+02  0.10257722706E+03  0.81019053065E+02 0.  0.
         -6    2    1    2    0  502 -0.30334061034E+02  0.20487327604E+03  0.60715860093E+03  0.66411679623E+03  0.17180319513E+03 0.  0.
        -24    2    5    5    0    0  0.40495916171E+02  0.97932371045E+02  0.23186389965E+03  0.26747912071E+03  0.80953959329E+02 0.  0.
          5    1    3    3  501    0  0.48385615092E+02 -0.15283694884E+03  0.16590856601E+03  0.23075537470E+03  0.47000000000E+01 0. -1.
        -13    1    4    4    0    0 -0.35197874661E+02 -0.66347930596E+02  0.18867768170E+02  0.77439853762E+02  0.00000000000E+00 0.  1.
         14    1    4    4    0    0  0.17146320603E+02  0.14311603402E+02  0.11535563884E+02  0.25137373297E+02  0.00000000000E+00 0. -1.
         -5    1    5    5    0  502 -0.70829977205E+02  0.10694090499E+03  0.37529470128E+03  0.39663767552E+03  0.47000000000E+01 0.  1.
         11    1    6    6    0    0  0.83826395415E+01 -0.13307699746E+02  0.15490855352E+02  0.22075554755E+02  0.00000000000E+00 0. -1.
        -12    1    6    6    0    0  0.32113276629E+02  0.11124007079E+03  0.21637304430E+03  0.24540356596E+03  0.00000000000E+00 0.  1.
</event>
<event>
12    1  0.8271773E-002  0.2161989E+03  0.7818608E-02  0.1137039E+00
         21   -1    0    0  501  502  0.00000000000E+00  0.00000000000E+00  0.76655609622E+03  0.76655609622E+03  0.00000000000E+00 0. -1.
         21   -1    0    0  502  503 -0.00000000000E+00 -0.00000000000E+00 -0.66647193582E+02  0.66647193582E+02  0.00000000000E+00 0.  1.
         -6    2    1    2    0  503 -0.37912712894E+02  0.12379533151E+03  0.22506117219E+03  0.31208093510E+03  0.17314537510E+03 0.  0.
        -24    2    3    3    0    0 -0.58260384591E+02  0.30642728012E+02  0.54090763764E+02  0.11626365843E+03  0.79108649051E+02 0.  0.
          6    2    1    2  501    0  0.37912712894E+02 -0.12379533151E+03  0.47484773044E+03  0.52112235470E+03  0.17124684979E+03 0.  0.
         24    2    5    5    0    0 -0.15285193510E+02 -0.11248801841E+03  0.42139561876E+03  0.44472149857E+03  0.85532171422E+02 0.  0.
          5    1    5    5  501    0  0.53197906404E+02 -0.11307313102E+02  0.53452111680E+02  0.76400856136E+02  0.47000000000E+01 0. -1.
        -11    1    6    6    0    0  0.12762034312E+02 -0.14638380239E+02  0.11926857794E+02  0.22790384653E+02  0.00000000000E+00 0.  1.
         12    1    6    6    0    0 -0.28047227822E+02 -0.97849638171E+02  0.40946876097E+03  0.42193111391E+03  0.00000000000E+00 0. -1.
         -5    1    3    3    0  503  0.20347671697E+02  0.93152603499E+02  0.17097040843E+03  0.19581727667E+03  0.47000000000E+01 0.  1.
         13    1    4    4    0    0 -0.18763633220E+02  0.37976392016E+01  0.64589649445E+02  0.67367045435E+02  0.00000000000E+00 0. -1.
        -14    1    4    4    0    0 -0.39496751371E+02  0.26845088810E+02 -0.10498885681E+02  0.48896612998E+02  0.00000000000E+00 0.  1.
</event>
<event>
12    1  0.8271773E-002  0.2589043E+03  0.7818608E-02  0.1107827E+00
         21   -1    0    0  503  502  0.00000000000E+00  0.00000000000E+00  0.96430591837E+03  0.96430591837E+03  0.00000000000E+00 0. -1.
         21   -1    0    0  501  503 -0.00000000000E+00 -0.00000000000E+00 -0.13965334641E+03  0.13965334641E+03  0.00000000000E+00 0. -1.
          6    2    1    2  501    0  0.19266900156E+03  0.15482799194E+02  0.21086629612E+02  0.25976162505E+03  0.17225096420E+03 0.  0.
         24    2    3    3    0    0  0.92166342509E+02 -0.43577473675E+02  0.44504009059E+02  0.14076849933E+03  0.86264318687E+02 0.  0.
         -6    2    1    2    0  502 -0.19266900156E+03 -0.15482799194E+02  0.80356594234E+03  0.84419763973E+03  0.17201851642E+03 0.  0.
        -24    2    5    5    0    0 -0.14862385125E+03 -0.72431890404E+02  0.53961394510E+03  0.57056299078E+03  0.83806257479E+02 0.  0.
          5    1    3    3  501    0  0.10050265905E+03  0.59060272869E+02 -0.23417379447E+02  0.11899312572E+03  0.47000000000E+01 0. -1.
        -11    1    4    4    0    0  0.10398723919E+03 -0.29251106803E+02  0.19737914943E+02  0.10981146776E+03  0.00000000000E+00 0.  1.
         12    1    4    4    0    0 -0.11820896686E+02 -0.14326366872E+02  0.24766094117E+02  0.30957031576E+02  0.00000000000E+00 0. -1.
         -5    1    5    5    0  502 -0.44045150311E+02  0.56949091210E+02  0.26395199725E+03  0.27363464895E+03  0.47000000000E+01 0.  1.
         13    1    6    6    0    0 -0.14207560953E+03 -0.38244499017E+02  0.38689606087E+03  0.41392835424E+03  0.00000000000E+00 0. -1.
        -14    1    6    6    0    0 -0.65482417177E+01 -0.34187391387E+02  0.15271788423E+03  0.15663463653E+03  0.00000000000E+00 0.  1.
</event>
<event>
12    1  0.8271773E-002  0.2479781E+03  0.7818608E-02  0.1114805E+00
         21   -1    0    0  503  502  0.00000000000E+00  0.00000000000E+00  0.46933406601E+03  0.46933406601E+03  0.00000000000E+00 0. -1.
         21   -1    0    0  501  503 -0.00000000000E+00 -0.00000000000E+00 -0.28344891690E+03  0.28344891690E+03  0.00000000000E+00 0. -1.
          6    2    1    2  501    0  0.59168729027E+02 -0.16742495982E+03 -0.18383301689E+03  0.30760362032E+03  0.17115301185E+03 0.  0.
         24    2    3    3    0    0  0.58527735427E+02 -0.16321533945E+03 -0.84603731235E+02  0.20817187031E+03  0.78185634270E+02 0.  0.
         -6    2    1    2    0  502 -0.59168729027E+02  0.16742495982E+03  0.36971816601E+03  0.44517936259E+03  0.17309271196E+03 0.  0.
        -24    2    5    5    0    0 -0.88210108893E+02  0.17613895599E+03  0.34792141354E+03  0.40754262665E+03  0.78966622153E+02 0.  0.
          5    1    3    3  501    0  0.64099360011E+00 -0.42096203759E+01 -0.99229285658E+02  0.99431750003E+02  0.47000000000E+01 0. -1.
        -13    1    4    4    0    0  0.50766048254E+02 -0.37817888581E+02 -0.39845070060E+02  0.74799825937E+02  0.00000000000E+00 0.  1.
         14    1    4    4    0    0  0.77616871733E+01 -0.12539745086E+03 -0.44758661175E+02  0.13337204438E+03  0.00000000000E+00 0. -1.
         -5    1    5    5    0  502  0.29041379865E+02 -0.87139961707E+01  0.21796752475E+02  0.37636735940E+02  0.47000000000E+01 0.  1.
         11    1    6    6    0    0 -0.64272259065E+02  0.46510663269E+02  0.15100088062E+03  0.17057382868E+03  0.00000000000E+00 0. -1.
        -12    1    6    6    0    0 -0.23937849828E+02  0.12962829272E+03  0.19692053292E+03  0.23696879797E+03  0.00000000000E+00 0.  1.
</event>
<event>
12    1  0.8271773E-002  0.1827318E+03  0.7818608E-02  0.1165574E+00
         21   -1    0    0  503  502  0.00000000000E+00  0.00000000000E+00  0.15054088633E+04  0.15054088633E+04  0.00000000000E+00 0.  1.
         21   -1    0    0  501  503 -0.00000000000E+00 -0.00000000000E+00 -0.28145048061E+02  0.28145048061E+02  0.00000000000E+00 0.  1.
          6    2    1    2  501    0  0.43775940072E+02 -0.40969205839E+02  0.38244282058E+03  0.42385542847E+03  0.17261548154E+03 0.  0.
         24    2    3    3    0    0  0.75264574899E+02 -0.76523953148E+01  0.14375329035E+03  0.18075806972E+03  0.79278975103E+02 0.  0.
         -6    2    1    2    0  502 -0.43775940072E+02  0.40969205839E+02  0.10948209947E+04  0.11096984829E+04  0.17088857143E+03 0.  0.
        -24    2    5    5    0    0 -0.41670684994E+02 -0.27373823287E+02  0.37774795820E+03  0.38935756961E+03  0.80125057910E+02 0.  0.
          5    1    3    3  501    0 -0.31488634827E+02 -0.33316810524E+02  0.23868953023E+03  0.24309735875E+03  0.47000000000E+01 0. -1.
        -11    1    4    4    0    0  0.19351777922E+02  0.24292082446E+02  0.10541143874E+02  0.32798053181E+02  0.00000000000E+00 0.  1.
         12    1    4    4    0    0  0.55912796977E+02 -0.31944477761E+02  0.13321214648E+03  0.14796001654E+03  0.00000000000E+00 0. -1.
         -5    1    5    5    0  502 -0.21052550777E+01  0.68343029126E+02  0.71707303651E+03  0.72034091333E+03  0.47000000000E+01 0.  1.
         11    1    6    6    0    0 -0.62363799141E+02 -0.33749963626E+02  0.25323214184E+03  0.26297304263E+03  0.00000000000E+00 0. -1.
        -12    1    6    6    0    0  0.20693114147E+02  0.63761403382E+01  0.12451581635E+03  0.12638452698E+03  0.00000000000E+00 0.  1.
</event>
<event>
12    1  0.8271773E-002  0.1984703E+03  0.7818608E-02  0.1152386E+00
         21   -1    0    0  503  502  0.00000000000E+00  0.00000000000E+00  0.16361712945E+03  0.16361712945E+03  0.00000000000E+00 0. -1.
         21   -1    0    0  501  503 -0.00000000000E+00 -0.00000000000E+00 -0.30047453028E+03  0.30047453028E+03  0.00000000000E+00 0. -1.
          6    2    1    2  501    0  0.58954203587E+02  0.65151669475E+02  0.42165660601E+02  0.19680954056E+03  0.17098454365E+03 0.  0.
         24    2    3    3    0    0  0.99281318831E+01  0.84431020899E+02 -0.16301829761E+02  0.11796928100E+03  0.80148839756E+02 0.  0.
         -6    2    1    2    0  502 -0.58954203587E+02 -0.65151669475E+02 -0.17902306143E+03  0.26728211917E+03  0.17796105347E+03 0.  0.
        -24    2    5    5    0    0  0.14689477185E+00 -0.47169543961E+02 -0.18204565009E+03  0.20525371675E+03  0.82240391949E+02 0.  0.
          5    1    3    3  501    0  0.49026071704E+02 -0.19279351424E+02  0.58467490361E+02  0.78840259558E+02  0.47000000000E+01 0. -1.
        -11    1    4    4    0    0  0.15554573281E+02  0.18283465150E+01 -0.30197426670E+02  0.34017233550E+02  0.00000000000E+00 0.  1.
         12    1    4    4    0    0 -0.56264413981E+01  0.82602674384E+02  0.13895596909E+02  0.83952047454E+02  0.00000000000E+00 0. -1.
         -5    1    5    5    0  502 -0.59101098359E+02 -0.17982125514E+02  0.30225886604E+01  0.62028402425E+02  0.47000000000E+01 0.  1.
         13    1    6    6    0    0 -0.29062531905E+02 -0.56775030024E+02 -0.11528105396E+03  0.13174883756E+03  0.00000000000E+00 0. -1.
        -14    1    6    6    0    0  0.29209426677E+02  0.96054860632E+01 -0.66764596125E+02  0.73504879192E+02  0.00000000000E+00 0.  1.
</event>
<event>
12    1  0.8271773E-002  0.2085541E+03  0.7818608E-02  0.1143003E+00
         21   -1    0    0  503  502  0.00000000000E+00  0.00000000000E+00  0.70355941821E+02  0.70355941821E+02  0.00000000000E+00 0.  1.
         21   -1    0    0  501  503 -0.00000000000E+00 -0.00000000000E+00 -0.68784428980E+03  0.68784428980E+03  0.00000000000E+00 0. -1.
          6    2    1    2  501    0  0.80274890352E+02  0.85977829971E+02 -0.43392700380E+03  0.48144311757E+03  0.17221668201E+03 0.  0.
         24    2    3    3    0    0  0.12041306285E+03  0.57696545867E+02 -0.34702054942E+03  0.38151451438E+03  0.85450955864E+02 0.  0.
         -6    2    1    2    0  502 -0.80274890352E+02 -0.85977829971E+02 -0.18356134418E+03  0.27675711405E+03  0.17048016845E+03 0.  0.
        -24    2    5    5    0    0 -0.10187386853E+03 -0.11323685497E+03 -0.14570929944E+03  0.22513892352E+03  0.79091494664E+02 0.  0.
          5    1    3    3  501    0 -0.40138172494E+02  0.28281284104E+02 -0.86906454380E+02  0.99928603186E+02  0.47000000000E+01 0. -1.
        -11    1    4    4    0    0  0.15684985438E+02 -0.12774353841E+02 -0.12042744031E+02  0.23542102031E+02  0.00000000000E+00 0.  1.
         12    1    4    4    0    0  0.10472807741E+03  0.70470899708E+02 -0.33497780539E+03  0.35797241235E+03  0.00000000000E+00 0. -1.
         -5    1    5    5    0  502  0.21598978181E+02  0.27259025000E+02 -0.37852044743E+02  0.51618190530E+02  0.47000000000E+01 0.  1.
         13    1    6    6    0    0 -0.55261071362E+02 -0.87010674905E+01 -0.60836255409E+02  0.82647108574E+02  0.00000000000E+00 0. -1.
        -14    1    6    6    0    0 -0.46612797171E+02 -0.10453578748E+03 -0.84873044030E+02  0.14249181495E+03  0.00000000000E+00 0.  1.
</event>
<event>
12    1  0.8271773E-002  0.2415997E+03  0.7818608E-02  0.1118755E+00
         21   -1    0    0  501  502  0.00000000000E+00  0.00000000000E+00  0.21053019340E+03  0.21053019340E+03  0.00000000000E+00 0. -1.
         21   -1    0    0  502  503 -0.00000000000E+00 -0.00000000000E+00 -0.29629162656E+03  0.29629162656E+03  0.00000000000E+00 0.  1.
         -6    2    1    2    0  503  0.10067853593E+02 -0.16943865195E+03 -0.10737974244E+03  0.26425683919E+03  0.17172783560E+03 0.  0.
        -24    2    3    3    0    0  0.47454735032E+02 -0.58356203181E+02 -0.95570815435E+02  0.14636438784E+03  0.81433131691E+02 0.  0.
          6    2    1    2  501    0 -0.10067853593E+02  0.16943865195E+03  0.21618309282E+02  0.24256498077E+03  0.17192905557E+03 0.  0.
         24    2    5    5    0    0 -0.43692462816E+02  0.14222536610E+03  0.65155463023E+02  0.18101214958E+03  0.79894166633E+02 0.  0.
          5    1    5    5  501    0  0.33624609223E+02  0.27213285849E+02 -0.43537153741E+02  0.61552831194E+02  0.47000000000E+01 0. -1.
        -13    1    6    6    0    0  0.14279867783E+02  0.16207316405E+00 -0.86316521092E-01  0.14281048356E+02  0.00000000000E+00 0.  1.
         14    1    6    6    0    0 -0.57972330599E+02  0.14206329294E+03  0.65241779544E+02  0.16673110122E+03  0.00000000000E+00 0. -1.
         -5    1    3    3    0  503 -0.37386881439E+02 -0.11108244877E+03 -0.11808927007E+02  0.11789245135E+03  0.47000000000E+01 0.  1.
         13    1    4    4    0    0  0.15423890561E+02  0.20484144888E+02 -0.24986608551E+02  0.35802614412E+02  0.00000000000E+00 0. -1.
        -14    1    4    4    0    0  0.32030844472E+02 -0.78840348069E+02 -0.70584206884E+02  0.11056177342E+03  0.00000000000E+00 0.  1.
</event>
<event>
12    1  0.8271773E-002  0.2161650E+03  0.7818608E-02  0.1137218E+00
         21   -1    0    0  501  502  0.00000000000E+00  0.00000000000E+00  0.10794318153E+03  0.10794318153E+03  0.00000000000E+00 0.  1.
         21   -1    0    0  502  503 -0.00000000000E+00 -0.00000000000E+00 -0.46477552857E+03  0.46477552857E+03  0.00000000000E+00 0.  1.
         -6    2    1    2    0  503  0.88594557708E+02 -0.93123184054E+02 -0.25778019220E+03  0.33494018584E+03  0.17091921347E+03 0.  0.
        -24    2    3    3    0    0  0.11701341240E+03 -0.66468590672E+02 -0.14071320682E+03  0.21147007724E+03  0.82517723956E+02 0.  0.
          6    2    1    2  501    0 -0.88594557708E+02  0.93123184054E+02 -0.99052154839E+02  0.23777852427E+03  0.17379981059E+03 0.  0.
         24    2    5    5    0    0 -0.10481851126E+03  0.11629568823E+03 -0.91492949673E+02  0.20812362246E+03  0.10214144596E+03 0.  0.
          5    1    5    5  501    0  0.16223953548E+02 -0.23172504178E+02 -0.75592051660E+01  0.29654901810E+02  0.47000000000E+01 0. -1.
        -13    1    6    6    0    0 -0.12188062300E+01  0.73731516212E+02 -0.47918411779E+02  0.87943141626E+02  0.00000000000E+00 0.  1.
         14    1    6    6    0    0 -0.10359970503E+03  0.42564172020E+02 -0.43574537894E+02  0.12018048084E+03  0.00000000000E+00 0. -1.
         -5    1    3    3    0  503 -0.28418854697E+02 -0.26654593382E+02 -0.11706698537E+03  0.12347010859E+03  0.47000000000E+01 0.  1.
         11    1    4    4    0    0  0.45496503127E+02 -0.15401363345E+02 -0.30244912396E+01  0.48127760564E+02  0.00000000000E+00 0. -1.
        -12    1    4    4    0    0  0.71516909278E+02 -0.51067227327E+02 -0.13768871558E+03  0.16334231668E+03  0.00000000000E+00 0.  1.
</event>
<event>
12    1  0.8271773E-002  0.1810590E+03  0.7818608E-02  0.1167091E+00
         21   -1    0    0  501  502  0.00000000000E+00  0.00000000000E+00  0.64085685383E+02  0.64085685383E+02  0.00000000000E+00 0.  1.
         21   -1    0    0  502  503 -0.00000000000E+00 -0.00000000000E+00 -0.50926325388E+03  0.50926325388E+03  0.00000000000E+00 0.  1.
         -6    2    1    2    0  503 -0.54640194357E+02 -0.13426958606E+02 -0.20713273184E+03  0.27427085148E+03  0.17074746651E+03 0.  0.
        -24    2    3    3    0    0 -0.69618792456E+02 -0.76938115363E-01 -0.52336229833E+02  0.11810866502E+03  0.79773389153E+02 0.  0.
          6    2    1    2  501    0  0.54640194357E+02  0.13426958606E+02 -0.23804483666E+03  0.29907808778E+03  0.17209452133E+03 0.  0.
         24    2    5    5    0    0 -0.59453643441E+01  0.15430333771E+02 -0.22180688153E+03  0.23614650094E+03  0.79331170770E+02 0.  0.
          5    1    5    5  501    0  0.60585558701E+02 -0.20033751643E+01 -0.16237955130E+02  0.62931586838E+02  0.47000000000E+01 0. -1.
        -11    1    6    6    0    0  0.30381546803E+02  0.26616823452E+02 -0.14390416265E+03  0.14946538631E+03  0.00000000000E+00 0.  1.
         12    1    6    6    0    0 -0.36326911147E+02 -0.11186489682E+02 -0.77902718876E+02  0.86681114628E+02  0.00000000000E+00 0. -1.
         -5    1    3    3    0  503  0.14978598100E+02 -0.13350020491E+02 -0.15479650201E+03  0.15616218646E+03  0.47000000000E+01 0.  1.
         11    1    4    4    0    0 -0.29998151889E+02 -0.88035599652E+01 -0.67824048482E+02  0.74682617371E+02  0.00000000000E+00 0. -1.
        -12    1    4    4    0    0 -0.39620640568E+02  0.87266218498E+01  0.15487818649E+02  0.43426047649E+02  0.00000000000E+00 0.  1.
</event>
<event>
12    1  0.8271773E-002  0.2206919E+03  0.7818608E-02  0.1135116E+00
         21   -1    0    0  503  502  0.00000000000E+00  0.00000000000E+00  0.20203165191E+04  0.20203165191E+04  0.00000000000E+00 0.  1.
         21   -1    0    0  501  503 -0.00000000000E+00 -0.00000000000E+00 -0.44099933851E+02  0.44099933851E+02  0.00000000000E+00 0.  1.
          6    2    1    2  501    0  0.34981716946E+01 -0.13753094653E+03  0.28714682965E+03  0.36215770097E+03  0.17256274262E+03 0.  0.
         24    2    3    3    0    0  0.43333442732E+02 -0.10071253058E+03  0.10282123223E+03  0.16995868840E+03  0.79328109076E+02 0.  0.
         -6    2    1    2    0  502 -0.34981716946E+01  0.13753094653E+03  0.16890697556E+04  0.17022587520E+04  0.16062758459E+03 0.  0.
        -24    2    5    5    0    0 -0.52529731000E+02  0.10626977931E+03  0.10381368134E+04  0.10487167567E+04  0.89588803730E+02 0.  0.
          5    1    3    3  501    0 -0.39835271037E+02 -0.36818415953E+02  0.18432559742E+03  0.19219901258E+03  0.47000000000E+01 0. -1.
        -11    1    4    4    0    0  0.35607744953E+02 -0.11181661664E+03  0.10342036270E+03  0.15641815329E+03  0.00000000000E+00 0.  1.
         12    1    4    4    0    0  0.77256977791E+01  0.11104086063E+02 -0.59913047786E+00  0.13540535100E+02  0.00000000000E+00 0. -1.
         -5    1    5    5    0  502  0.49031559305E+02  0.31261167228E+02  0.65093294217E+03  0.65354199527E+03  0.47000000000E+01 0.  1.
         11    1    6    6    0    0 -0.12937492040E+02  0.69631949991E+02  0.28565370195E+03  0.29430260719E+03  0.00000000000E+00 0. -1.
        -12    1    6    6    0    0 -0.39592238959E+02  0.36637829315E+02  0.75248311147E+03  0.75441414950E+03  0.00000000000E+00 0.  1.
</event>
<event>
12    1  0.8271773E-002  0.1856379E+03  0.7818608E-02  0.1162721E+00
         21   -1    0    0  501  502  0.00000000000E+00  0.00000000000E+00  0.28257243079E+03  0.28257243079E+03  0.00000000000E+00 0. -1.
         21   -1    0    0  502  503 -0.00000000000E+00 -0.00000000000E+00 -0.13755367024E+03  0.13755367024E+03  0.00000000000E+00 0. -1.
         -6    2    1    2    0  503  0.13364389993E+02 -0.65106662246E+02  0.29420561371E+00  0.18563810209E+03  0.17333186089E+03 0.  0.
        -24    2    3    3    0    0 -0.19240734907E+01 -0.28392529001E+01  0.58011355585E+02  0.99241766615E+02  0.80447793308E+02 0.  0.
          6    2    1    2  501    0 -0.13364389993E+02  0.65106662246E+02  0.14472455493E+03  0.23448799894E+03  0.17211025668E+03 0.  0.
         24    2    5    5    0    0  0.17861405962E+02  0.54230134887E+02  0.16005947203E+02  0.10150710122E+03  0.82386673072E+02 0.  0.
          5    1    5    5  501    0 -0.31225795955E+02  0.10876527359E+02  0.12871860773E+03  0.13298089771E+03  0.47000000000E+01 0. -1.
        -13    1    6    6    0    0  0.46812539942E+02  0.23205873135E+02  0.25323135301E+02  0.58061929224E+02  0.00000000000E+00 0.  1.
         14    1    6    6    0    0 -0.28951133979E+02  0.31024261751E+02 -0.93171880982E+01  0.43445171998E+02  0.00000000000E+00 0. -1.
         -5    1    3    3    0  503  0.15288463484E+02 -0.62267409346E+02 -0.57717149971E+02  0.86396335473E+02  0.47000000000E+01 0.  1.
         11    1    4    4    0    0  0.22547495645E+02 -0.34021696442E+02  0.31459729569E+02  0.51532319696E+02  0.00000000000E+00 0. -1.
        -12    1    4    4    0    0 -0.24471569136E+02  0.31182443542E+02  0.26551626016E+02  0.47709446919E+02  0.00000000000E+00 0.  1.
</event>
<event>
12    1  0.8271773E-002  0.1775266E+03  0.7818608E-02  0.1170227E+00
         21   -1    0    0  503  502  0.00000000000E+00  0.00000000000E+00  0.51852454498E+02  0.51852454498E+02  0.00000000000E+00 0. -1.
         21   -1    0    0  501  503 -0.00000000000E+00 -0.00000000000E+00 -0.65323911836E+03  0.65323911836E+03  0.00000000000E+00 0.  1.
          6    2    1    2  501    0 -0.25269402860E+02 -0.34607876789E+02 -0.39376709599E+03  0.43192207130E+03  0.17224372828E+03 0.  0.
         24    2    3    3    0    0  0.99673237628E+01  0.26169510610E+01 -0.36328362007E+03  0.37210027748E+03  0.79858824897E+02 0.  0.
         -6    2    1    2    0  502  0.25269402860E+02  0.34607876789E+02 -0.20761956786E+03  0.27316950155E+03  0.17227722938E+03 0.  0.
        -24    2    5    5    0    0 -0.24055684532E+02  0.71956361944E+02 -0.16127734805E+03  0.19572555455E+03  0.80880873693E+02 0.  0.
          5    1    3    3  501    0 -0.35236726623E+02 -0.37224827850E+02 -0.30483475926E+02  0.59821793822E+02  0.47000000000E+01 0. -1.
        -11    1    4    4    0    0 -0.64499710674E+00 -0.27895297563E+02 -0.29756951419E+03  0.29887485579E+03  0.00000000000E+00 0.  1.
         12    1    4    4    0    0  0.10612320870E+02  0.30512248624E+02 -0.65714105879E+02  0.73225421691E+02  0.00000000000E+00 0. -1.
         -5    1    5    5    0  502  0.49325087393E+02 -0.37348485155E+02 -0.46342219819E+02  0.77443947003E+02  0.47000000000E+01 0.  1.
         11    1    6    6    0    0 -0.30875678178E+02 -0.35875039471E+01 -0.25529355234E+02  0.40223446722E+02  0.00000000000E+00 0. -1.
        -12    1    6    6    0    0  0.68199936455E+01  0.75543865891E+02 -0.13574799281E+03  0.15550210783E+03  0.00000000000E+00 0.  1.
</event>
<event>
12    1  0.8271773E-002  0.1750820E+03  0.7818608E-02  0.1172710E+00
         21   -1    0    0  503  502  0.00000000000E+00  0.00000000000E+00  0.70474651087E+03  0.70474651087E+03  0.00000000000E+00 0.  1.
         21   -1    0    0  501  503 -0.00000000000E+00 -0.00000000000E+00 -0.43786084269E+02  0.43786084269E+02  0.00000000000E+00 0.  1.
          6    2    1    2  501    0 -0.15787150353E+01  0.31135988947E+02  0.36415340772E+03  0.40405621649E+03  0.17228400849E+03 0.  0.
         24    2    3    3    0    0 -0.51210076218E+01  0.85623961301E+02  0.28069264319E+03  0.30420995375E+03  0.79985302085E+02 0.  0.
         -6    2    1    2    0  502  0.15787150353E+01 -0.31135988947E+02  0.29680701888E+03  0.34447637864E+03  0.17203960835E+03 0.  0.
        -24    2    5    5    0    0 -0.43314381611E+02 -0.52353037236E+02  0.11948997882E+03  0.16027818115E+03  0.82427326495E+02 0.  0.
          5    1    3    3  501    0  0.35422925865E+01 -0.54487972354E+02  0.83460764533E+02  0.99846262746E+02  0.47000000000E+01 0. -1.
        -11    1    4    4    0    0 -0.89055242278E+01 -0.13922386707E+02  0.26963161799E+02  0.31625200515E+02  0.00000000000E+00 0.  1.
         12    1    4    4    0    0  0.37845166060E+01  0.99546348008E+02  0.25372948139E+03  0.27258475323E+03  0.00000000000E+00 0. -1.
         -5    1    5    5    0  502  0.44893096646E+02  0.21217048289E+02  0.17731704005E+03  0.18419819749E+03  0.47000000000E+01 0.  1.
         13    1    6    6    0    0 -0.43930592352E+02 -0.65115167946E+02  0.12395188170E+03  0.14674450932E+03  0.00000000000E+00 0. -1.
        -14    1    6    6    0    0  0.61621074113E+00  0.12762130710E+02 -0.44619028738E+01  0.13533671830E+02  0.00000000000E+00 0.  1.
</event>
<event>
12    1  0.8271773E-002  0.2366921E+03  0.7818608E-02  0.1122077E+00
         21   -1    0    0  501  502  0.00000000000E+00  0.00000000000E+00  0.15781193074E+03  0.15781193074E+03  0.00000000000E+00 0.  1.
         21   -1    0    0  502  503 -0.00000000000E+00 -0.00000000000E+00 -0.45678720620E+03  0.45678720620E+03  0.00000000000E+00 0.  1.
         -6    2    1    2    0  503 -0.69342143713E+02  0.14608313820E+03 -0.29502207941E+03  0.37823428493E+03  0.17284250286E+03 0.  0.
        -24    2    3    3    0    0 -0.24082083468E+02  0.47530330187E+02 -0.23307243477E+03  0.25325037600E+03  0.83509963851E+02 0.  0.
          6    2    1    2  501    0  0.69342143713E+02 -0.14608313820E+03 -0.39531960422E+01  0.23636485201E+03  0.17234877239E+03 0.  0.
         24    2    5    5    0    0  0.17553078904E+02 -0.16149253879E+03  0.44340963329E+01  0.18148321998E+03  0.80799426133E+02 0.  0.
          5    1    5    5  501    0  0.51789064809E+02  0.15409400583E+02 -0.83872923751E+01  0.54881632023E+02  0.47000000000E+01 0. -1.
        -13    1    6    6    0    0 -0.30484348616E+02 -0.78696505295E+02  0.12951898763E+02  0.85382592709E+02  0.00000000000E+00 0.  1.
         14    1    6    6    0    0  0.48037427520E+02 -0.82796033490E+02 -0.85178024300E+01  0.96100627275E+02  0.00000000000E+00 0. -1.
         -5    1    3    3    0  503 -0.45260060245E+02  0.98552808014E+02 -0.61949644644E+02  0.12498390893E+03  0.47000000000E+01 0.  1.
         11    1    4    4    0    0  0.17174310330E+02 -0.15001521034E+02 -0.38398489861E+02  0.44659227403E+02  0.00000000000E+00 0. -1.
        -12    1    4    4    0    0 -0.41256393798E+02  0.62531851221E+02 -0.19467394491E+03  0.20859114859E+03  0.00000000000E+00 0.  1.
</event>
<event>
12    1  0.8271773E-002  0.2234943E+03  0.7818608E-02  0.1131442E+00
         21   -1    0    0  503  502  0.00000000000E+00  0.00000000000E+00  0.37592508448E+02  0.37592508448E+02  0.00000000000E+00 0.  1.
         21   -1    0    0  501  503 -0.00000000000E+00 -0.00000000000E+00 -0.13247354040E+04  0.13247354040E+04  0.00000000000E+00 0.  1.
          6    2    1    2  501    0 -0.13812315355E+03  0.32725295944E+02 -0.63155858482E+03  0.66993727648E+03  0.17262895996E+03 0.  0.
         24    2    3    3    0    0 -0.62377679363E+02 -0.58175795712E+01 -0.15057330823E+03  0.18147862274E+03  0.79607476078E+02 0.  0.
         -6    2    1    2    0  502  0.13812315355E+03 -0.32725295944E+02 -0.65558431075E+03  0.69239063599E+03  0.17165387778E+03 0.  0.
        -24    2    5    5    0    0  0.10027824641E+03  0.24070862099E+02 -0.26228510790E+03  0.29318593470E+03  0.80804587587E+02 0.  0.
          5    1    3    3  501    0 -0.75745474188E+02  0.38542875515E+02 -0.48098527659E+03  0.48845865374E+03  0.47000000000E+01 0. -1.
        -11    1    4    4    0    0  0.14679630899E+02  0.69071074292E+01 -0.62645029105E+01  0.17390908346E+02  0.00000000000E+00 0.  1.
         12    1    4    4    0    0 -0.77057310262E+02 -0.12724687000E+02 -0.14430880532E+03  0.16408771440E+03  0.00000000000E+00 0. -1.
         -5    1    5    5    0  502  0.37844907139E+02 -0.56796158042E+02 -0.39329920285E+03  0.39920470128E+03  0.47000000000E+01 0.  1.
         11    1    6    6    0    0 -0.12457661777E+02 -0.16231210640E+01 -0.11512132713E+02  0.17039866741E+02  0.00000000000E+00 0. -1.
        -12    1    6    6    0    0  0.11273590819E+03  0.25693983163E+02 -0.25077297519E+03  0.27614606796E+03  0.00000000000E+00 0.  1.
</event>
<event>
12    1  0.8271773E-002  0.1767835E+03  0.7818608E-02  0.1171653E+00
         21   -1    0    0  503  502  0.00000000000E+00  0.00000000000E+00  0.95217428008E+03  0.95217428008E+03  0.00000000000E+00 0.  1.
         21   -1    0    0  501  503 -0.00000000000E+00 -0.00000000000E+00 -0.39936207985E+02  0.39936207985E+02  0.00000000000E+00 0.  1.
          6    2    1    2  501    0  0.23682172066E+02 -0.35052048570E+02  0.23632097796E+03  0.29345726383E+03  0.16876039135E+03 0.  0.
         24    2    3    3    0    0  0.73172116760E+02 -0.42870072272E+02  0.20055818500E+03  0.23172037469E+03  0.79238530463E+02 0.  0.
         -6    2    1    2    0  502 -0.23682172066E+02  0.35052048570E+02  0.67591709414E+03  0.69865322423E+03  0.17164765714E+03 0.  0.
        -24    2    5    5    0    0 -0.68655922424E+02 -0.17770889514E+02  0.40686881858E+03  0.42076481931E+03  0.80444747749E+02 0.  0.
          5    1    3    3  501    0 -0.49489944694E+02  0.78180237019E+01  0.35762792959E+02  0.61736889139E+02  0.47000000000E+01 0. -1.
        -11    1    4    4    0    0 -0.23626613873E+01 -0.78608938072E+01  0.10359521501E+03  0.10391989411E+03  0.00000000000E+00 0.  1.
         12    1    4    4    0    0  0.75534778147E+02 -0.35009178465E+02  0.96962969992E+02  0.12780048058E+03  0.00000000000E+00 0. -1.
         -5    1    5    5    0  502  0.44973750358E+02  0.52822938084E+02  0.26904827555E+03  0.27788840492E+03  0.47000000000E+01 0.  1.
         13    1    6    6    0    0 -0.77884358387E+01 -0.37358730753E+02  0.94420758308E+02  0.10184112183E+03  0.00000000000E+00 0. -1.
        -14    1    6    6    0    0 -0.60867486585E+02  0.19587841239E+02  0.31244806027E+03  0.31892369748E+03  0.00000000000E+00 0.  1.
</event>
<event>
12    1  0.8271773E-002  0.2648452E+03  0.7818608E-02  0.1104414E+00
         21   -1    0    0  501  502  0.00000000000E+00  0.00000000000E+00  0.17433207556E+03  0.17433207556E+03  0.00000000000E+00 0. -1.
         21   -1    0    0  502  503 -0.00000000000E+00 -0.00000000000E+00 -0.48768132761E+03  0.48768132761E+03  0.00000000000E+00 0. -1.
         -6    2    1    2    0  503 -0.19931288832E+03 -0.20015685626E+02 -0.16741081398E+02  0.26437110220E+03  0.17171360095E+03 0.  0.
        -24    2    3    3    0    0 -0.19413411739E+03  0.94673108520E+01  0.26453935206E+02  0.21160779858E+03  0.79374833675E+02 0.  0.
          6    2    1    2  501    0  0.19931288832E+03  0.20015685626E+02 -0.29660817066E+03  0.39764230098E+03  0.17325339103E+03 0.  0.
         24    2    5    5    0    0  0.14680491629E+03 -0.55329934682E+01 -0.29138560122E+03  0.33882744434E+03  0.91193042370E+02 0.  0.
          5    1    5    5  501    0  0.52507972025E+02  0.25548679094E+02 -0.52225694397E+01  0.58814856637E+02  0.47000000000E+01 0. -1.
        -13    1    6    6    0    0  0.24699882882E+02 -0.37587707842E+02 -0.57018822403E+02  0.72622765738E+02  0.00000000000E+00 0.  1.
         14    1    6    6    0    0  0.12210503341E+03  0.32054714374E+02 -0.23436677881E+03  0.26620467860E+03  0.00000000000E+00 0. -1.
         -5    1    3    3    0  503 -0.51787709293E+01 -0.29482996478E+02 -0.43195016604E+02  0.52763303622E+02  0.47000000000E+01 0.  1.
         11    1    4    4    0    0 -0.97466836879E+02 -0.31333578460E+02 -0.36658367438E+01  0.10244518432E+03  0.00000000000E+00 0. -1.
        -12    1    4    4    0    0 -0.96667280510E+02  0.40800889312E+02  0.30119771950E+02  0.10916261426E+03  0.00000000000E+00 0.  1.
</event>
<event>
12    1  0.8271773E-002  0.2195387E+03  0.7818608E-02  0.1134261E+00
         21   -1    0    0  503  502  0.00000000000E+00  0.00000000000E+00  0.15131057605E+03  0.15131057605E+03  0.00000000000E+00 0. -1.
         21   -1    0    0  501  503 -0.00000000000E+00 -0.00000000000E+00 -0.32531270148E+03  0.32531270148E+03  0.00000000000E+00 0. -1.
          6    2    1    2  501    0  0.11947153112E+03 -0.64608807768E+02 -0.51973767276E+02  0.22560696507E+03  0.17248039138E+03 0.  0.
         24    2    3    3    0    0  0.10085307640E+03 -0.77694725879E+02  0.17385488691E+02  0.15245859190E+03  0.82058232846E+02 0.  0.
         -6    2    1    2    0  502 -0.11947153112E+03  0.64608807768E+02 -0.12202835815E+03  0.25101631246E+03  0.17225134002E+03 0.  0.
        -24    2    5    5    0    0 -0.14430139247E+03  0.18905901845E+02 -0.10403385905E+03  0.19577891913E+03  0.79536258103E+02 0.  0.
          5    1    3    3  501    0  0.18618454723E+02  0.13085918110E+02 -0.69359255967E+02  0.73148373170E+02  0.47000000000E+01 0. -1.
        -11    1    4    4    0    0 -0.67036468631E+01 -0.34791430107E+02  0.49075440021E+00  0.35434775716E+02  0.00000000000E+00 0.  1.
         12    1    4    4    0    0  0.10755672326E+03 -0.42903295772E+02  0.16894734290E+02  0.11702381618E+03  0.00000000000E+00 0. -1.
         -5    1    5    5    0  502  0.24829861347E+02  0.45702905923E+02 -0.17994499097E+02  0.55237393332E+02  0.47000000000E+01 0.  1.
         11    1    6    6    0    0 -0.81718083229E+02  0.10335949910E+02 -0.10674919616E+02  0.83057997183E+02  0.00000000000E+00 0. -1.
        -12    1    6    6    0    0 -0.62583309238E+02  0.85699519347E+01 -0.93358939438E+02  0.11272092195E+03  0.00000000000E+00 0.  1.
</event>
<event>
12    1  0.8271773E-002  0.2073783E+03  0.7818608E-02  0.1145337E+00
         21   -1    0    0  501  502  0.00000000000E+00  0.00000000000E+00  0.19967148314E+03  0.19967148314E+03  0.00000000000E+00 0.  1.
         21   -1    0    0  502  503 -0.00000000000E+00 -0.00000000000E+00 -0.28949695625E+03  0.28949695625E+03  0.00000000000E+00 0.  1.
         -6    2    1    2    0  503  0.93365267268E+02 -0.35078952622E+02 -0.17611073914E+03  0.27206752429E+03  0.18181897394E+03 0.  0.
        -24    2    3    3    0    0  0.24826272013E+01  0.40477321539E+02 -0.79467485900E+02  0.11932455971E+03  0.79238199367E+02 0.  0.
          6    2    1    2  501    0 -0.93365267268E+02  0.35078952622E+02  0.86285266022E+02  0.21710091510E+03  0.17245304914E+03 0.  0.
         24    2    5    5    0    0 -0.15634541065E+02  0.54072581831E+02 -0.14366401487E+01  0.98273112930E+02  0.80543515007E+02 0.  0.
          5    1    5    5  501    0 -0.77730726203E+02 -0.18993629210E+02  0.87721906171E+02  0.11882780217E+03  0.47000000000E+01 0. -1.
        -11    1    6    6    0    0 -0.15637486296E+02  0.70342172475E+02  0.16637309548E+02  0.73955069299E+02  0.00000000000E+00 0.  1.
         12    1    6    6    0    0  0.29452311949E-02 -0.16269590643E+02 -0.18073949696E+02  0.24318043630E+02  0.00000000000E+00 0. -1.
         -5    1    3    3    0  503  0.90882640067E+02 -0.75556274161E+02 -0.96643253236E+02  0.15274296457E+03  0.47000000000E+01 0.  1.
         13    1    4    4    0    0 -0.33120595645E+02 -0.96315472762E+00 -0.39915823608E+02  0.51876531276E+02  0.00000000000E+00 0. -1.
        -14    1    4    4    0    0  0.35603222846E+02  0.41440476267E+02 -0.39551662292E+02  0.67448028439E+02  0.00000000000E+00 0.  1.
</event>
<event>
12    1  0.8271773E-002  0.2317371E+03  0.7818608E-02  0.1125676E+00
         21   -1    0    0  503  502  0.00000000000E+00  0.00000000000E+00  0.71611857417E+03  0.71611857417E+03  0.00000000000E+00 0.  1.
         21   -1    0    0  501  503 -0.00000000000E+00 -0.00000000000E+00 -0.13532107746E+03  0.13532107746E+03  0.00000000000E+00 0. -1.
          6    2    1    2  501    0  0.72362042038E+02  0.13693057148E+03  0.55446479836E+01  0.23180337700E+03  0.17238275997E+03 0.  0.
         24    2    3    3    0    0  0.88622046265E+01  0.22869310604E+02 -0.41504526836E+02  0.92958443946E+02  0.79480202029E+02 0.  0.
         -6    2    1    2    0  502 -0.72362042038E+02 -0.13693057148E+03  0.57525284873E+03  0.61963627464E+03  0.17043188184E+03 0.  0.
        -24    2    5    5    0    0  0.82569548625E+01 -0.82810625012E+02  0.42998763374E+03  0.44484364335E+03  0.77914857016E+02 0.  0.
          5    1    3    3  501    0  0.63499837412E+02  0.11406126087E+03  0.47049174820E+02  0.13884493305E+03  0.47000000000E+01 0. -1.
        -11    1    4    4    0    0  0.62174890197E+01 -0.16893105433E+02  0.15262504945E+02  0.23600386397E+02  0.00000000000E+00 0.  1.
         12    1    4    4    0    0  0.26447156068E+01  0.39762416037E+02 -0.56767031781E+02  0.69358057549E+02  0.00000000000E+00 0. -1.
         -5    1    5    5    0  502 -0.80618996901E+02 -0.54119946467E+02  0.14526521499E+03  0.17479263129E+03  0.47000000000E+01 0.  1.
         13    1    6    6    0    0  0.18156940607E+02 -0.44572242924E+02  0.36937123543E+03  0.37249358236E+03  0.00000000000E+00 0. -1.
        -14    1    6    6    0    0 -0.98999857441E+01 -0.38238382088E+02  0.60616398304E+02  0.72350060993E+02  0.00000000000E+00 0.  1.
</event>
<event>
12    1  0.8271773E-002  0.1802240E+03  0.7818608E-02  0.1167653E+00
         21   -1    0    0  501  502  0.00000000000E+00  0.00000000000E+00  0.13094956404E+04  0.13094956404E+04  0.00000000000E+00 0. -1.
         21   -1    0    0  502  503 -0.00000000000E+00 -0.00000000000E+00 -0.25741565100E+02  0.25741565100E+02  0.00000000000E+00 0. -1.
         -6    2    1    2    0  503  0.19056898076E+02 -0.45698211793E+02  0.51238882605E+03  0.54316019598E+03  0.17328934621E+03 0.  0.
        -24    2    3    3    0    0 -0.24897506108E+02  0.25370492242E+02  0.17184322717E+03  0.19248064816E+03  0.79089553707E+02 0.  0.
          6    2    1    2  501    0 -0.19056898076E+02  0.45698211793E+02  0.77136524926E+03  0.79207700953E+03  0.17300332176E+03 0.  0.
         24    2    5    5    0    0 -0.25201942241E+02  0.28081703891E+02  0.18169813909E+03  0.20209608295E+03  0.80030575454E+02 0.  0.
          5    1    5    5  501    0  0.61450441651E+01  0.17616507903E+02  0.58966711017E+03  0.58998092659E+03  0.47000000000E+01 0. -1.
        -13    1    6    6    0    0  0.10549893694E+02  0.45348944057E+02  0.75305962792E+02  0.88537082717E+02  0.00000000000E+00 0.  1.
         14    1    6    6    0    0 -0.35751835935E+02 -0.17267240166E+02  0.10639217630E+03  0.11355900023E+03  0.00000000000E+00 0. -1.
         -5    1    3    3    0  503  0.43954404184E+02 -0.71068704035E+02  0.34054559888E+03  0.35067954781E+03  0.47000000000E+01 0.  1.
         11    1    4    4    0    0  0.26603404897E+01  0.22225266513E+02  0.44714315159E+01  0.22826160056E+02  0.00000000000E+00 0. -1.
        -12    1    4    4    0    0 -0.27557846598E+02  0.31452257286E+01  0.16737179566E+03  0.16965448811E+03  0.00000000000E+00 0.  1.
</event>
<event>
12    1  0.8271773E-002  0.2053915E+03  0.7818608E-02  0.1146711E+00
         21   -1    0    0  501  502  0.00000000000E+00  0.00000000000E+00  0.15349103714E+03  0.15349103714E+03  0.00000000000E+00 0.  1.
         21   -1    0    0  502  503 -0.00000000000E+00 -0.00000000000E+00 -0.34898945742E+03  0.34898945742E+03  0.00000000000E+00 0.  1.
         -6    2    1    2    0  503  0.70731112355E+02 -0.81568415922E+02  0.26315591143E+02  0.20017743130E+03  0.16649984065E+03 0.  0.
        -24    2    3    3    0    0 -0.17232870900E+00 -0.72445386713E+02 -0.15041848700E+02  0.11745466874E+03  0.91219396196E+02 0.  0.
          6    2    1    2  501    0 -0.70731112355E+02  0.81568415922E+02 -0.22181401142E+03  0.30230306325E+03  0.17472661406E+03 0.  0.
         24    2    5    5    0    0 -0.54836110989E+02  0.87638887580E+02 -0.24212999832E+03  0.27538966476E+03  0.80777210165E+02 0.  0.
          5    1    5    5  501    0 -0.15895001365E+02 -0.60704716582E+01  0.20315986907E+02  0.26913398495E+02  0.47000000000E+01 0. -1.
        -11    1    6    6    0    0 -0.36208914073E+02  0.20967297034E+02 -0.27994653836E+02  0.50342960249E+02  0.00000000000E+00 0.  1.
         12    1    6    6    0    0 -0.18627196917E+02  0.66671590546E+02 -0.21413534449E+03  0.22504670451E+03  0.00000000000E+00 0. -1.
         -5    1    3    3    0  503  0.70903441064E+02 -0.91230292082E+01  0.41357439844E+02  0.82722762569E+02  0.47000000000E+01 0.  1.
         13    1    4    4    0    0  0.14845958544E+02  0.12716386006E+02  0.16322827812E+02  0.25466520491E+02  0.00000000000E+00 0. -1.
        -14    1    4    4    0    0 -0.15018287253E+02 -0.85161772719E+02 -0.31364676512E+02  0.91988148245E+02  0.00000000000E+00 0.  1.
</event>
<event>
12    1  0.8271773E-002  0.1850341E+03  0.7818608E-02  0.1163206E+00
         21   -1    0    0  503  502  0.00000000000E+00  0.00000000000E+00  0.85403557041E+03  0.85403557041E+03  0.00000000000E+00 0.  1.
         21   -1    0    0  501  503 -0.00000000000E+00 -0.00000000000E+00 -0.57846052768E+02  0.57846052768E+02  0.00000000000E+00 0.  1.
          6    2    1    2  501    0 -0.67457239462E+02 -0.41594996108E+01  0.14484704987E+03  0.23498574742E+03  0.17224939200E+03 0.  0.
         24    2    3    3    0    0  0.90922677320E+01 -0.22107416909E+02  0.13225567293E+03  0.15521991789E+03  0.77654701565E+02 0.  0.
         -6    2    1    2    0  502  0.67457239462E+02  0.41594996108E+01  0.65134246778E+03  0.67689587576E+03  0.17138621792E+03 0.  0.
        -24    2    5    5    0    0 -0.21090913673E+02 -0.13321206315E+00  0.44335205633E+03  0.45075144392E+03  0.78555546957E+02 0.  0.
          5    1    3    3  501    0 -0.76549507194E+02  0.17947917299E+02  0.12591376941E+02  0.79765829528E+02  0.47000000000E+01 0. -1.
        -11    1    4    4    0    0 -0.12732220243E+02  0.23414587064E+02  0.24401899733E+02  0.36135924373E+02  0.00000000000E+00 0.  1.
         12    1    4    4    0    0  0.21824487975E+02 -0.45522003973E+02  0.10785377319E+03  0.11908399352E+03  0.00000000000E+00 0. -1.
         -5    1    5    5    0  502  0.88548153136E+02  0.42927116739E+01  0.20799041145E+03  0.22614443184E+03  0.47000000000E+01 0.  1.
         11    1    6    6    0    0 -0.25633959935E+02  0.21541037501E+02  0.79989439444E+02  0.86714627492E+02  0.00000000000E+00 0. -1.
        -12    1    6    6    0    0  0.45430462621E+01 -0.21674249564E+02  0.36336261689E+03  0.36403681643E+03  0.00000000000E+00 0.  1.
</event>
<event>
12    1  0.8271773E-002  0.1789593E+03  0.7818608E-02  0.1168846E+00
         21   -1    0    0  503  502  0.00000000000E+00  0.00000000000E+00  0.15530912212E+03  0.15530912212E+03  0.00000000000E+00 0.  1.
         21   -1    0    0  501  503 -0.00000000000E+00 -0.00000000000E+00 -0.33532390169E+04  0.33532390169E+04  0.00000000000E+00 0.  1.
          6    2    1    2  501    0 -0.19344682794E+02 -0.43847528357E+02 -0.32985202703E+04  0.33033713702E+04  0.17242277518E+03 0.  0.
         24    2    3    3    0    0 -0.53477581820E+02 -0.37066324350E+02 -0.30992500518E+04  0.31010306933E+04  0.82502808636E+02 0.  0.
         -6    2    1    2    0  502  0.19344682794E+02  0.43847528357E+02  0.10059037554E+03  0.20517676879E+03  0.17228540364E+03 0.  0.
        -24    2    5    5    0    0 -0.30542956162E+02 -0.20185842640E+02  0.20339420128E+02  0.90934241835E+02  0.80715574165E+02 0.  0.
          5    1    3    3  501    0  0.34132899026E+02 -0.67812040067E+01 -0.19927021855E+03  0.20234067689E+03  0.47000000000E+01 0. -1.
        -13    1    4    4    0    0 -0.44846243321E+02 -0.47057400180E+02 -0.30191552696E+04  0.30198549843E+04  0.00000000000E+00 0.  1.
         14    1    4    4    0    0 -0.86313384994E+01  0.99910758302E+01 -0.80094782179E+02  0.81175709007E+02  0.00000000000E+00 0. -1.
         -5    1    5    5    0  502  0.49887638956E+02  0.64033370997E+02  0.80250955408E+02  0.11424252696E+03  0.47000000000E+01 0.  1.
         11    1    6    6    0    0 -0.42150352606E+02 -0.19654872916E+02 -0.18756988625E+02  0.50147690639E+02  0.00000000000E+00 0. -1.
        -12    1    6    6    0    0  0.11607396444E+02 -0.53096972478E+00  0.39096408753E+02  0.40786551196E+02  0.00000000000E+00 0.  1.
</event>
<event>
12    1  0.8271773E-002  0.2135440E+03  0.7818608E-02  0.1138872E+00
         21   -1    0    0  503  502  0.00000000000E+00  0.00000000000E+00  0.14263006247E+03  0.14263006247E+03  0.00000000000E+00 0.  1.
         21   -1    0    0  501  503 -0.00000000000E+00 -0.00000000000E+00 -0.41638628076E+03  0.41638628076E+03  0.00000000000E+00 0.  1.
          6    2    1    2  501    0  0.11664042102E+03 -0.49035914170E+02 -0.18630700875E+01  0.21355214017E+03  0.17202190804E+03 0.  0.
         24    2    3    3    0    0  0.14347446957E+03 -0.14970260122E+02 -0.18735267903E+02  0.16678360367E+03  0.81588774266E+02 0.  0.
         -6    2    1    2    0  502 -0.11664042102E+03  0.49035914170E+02 -0.27189314821E+03  0.34546420306E+03  0.17149379830E+03 0.  0.
        -24    2    5    5    0    0 -0.44737147395E+02  0.48525355833E+02 -0.24983040533E+03  0.27010376216E+03  0.78642789840E+02 0.  0.
          5    1    3    3  501    0 -0.26834048543E+02 -0.34065654047E+02  0.16872197815E+02  0.46768536496E+02  0.47000000000E+01 0. -1.
        -13    1    4    4    0    0  0.10580908361E+03 -0.20227886999E+02  0.23175508961E+02  0.11018998958E+03  0.00000000000E+00 0.  1.
         14    1    4    4    0    0  0.37665385952E+02  0.52576268764E+01 -0.41910776863E+02  0.56593614097E+02  0.00000000000E+00 0. -1.
         -5    1    5    5    0  502 -0.71903273627E+02  0.51055833633E+00 -0.22062742885E+02  0.75360440894E+02  0.47000000000E+01 0.  1.
         11    1    6    6    0    0 -0.28701368247E+02 -0.28281737147E+01 -0.17820696796E+03  0.18052559524E+03  0.00000000000E+00 0. -1.
        -12    1    6    6    0    0 -0.16035779149E+02  0.51353529548E+02 -0.71623437364E+02  0.89578166926E+02  0.00000000000E+00 0.  1.
</event>
<event>
12    1  0.8271773E-002  0.2097312E+03  0.7818608E-02  0.1142264E+00
         21   -1    0    0  501  502  0.00000000000E+00  0.00000000000E+00  0.39380905890E+03  0.39380905890E+03  0.00000000000E+00 0. -1.
         21   -1    0    0  502  503 -0.00000000000E+00 -0.00000000000E+00 -0.13447976197E+03  0.13447976197E+03  0.00000000000E+00 0.  1.
         -6    2    1    2    0  503  0.88015675448E+02 -0.73661520991E+02  0.17286099799E+02  0.20802003564E+03  0.17262892916E+03 0.  0.
        -24    2    3    3    0    0  0.70104646269E+02 -0.85716933482E+01  0.65617321841E+02  0.12486062455E+03  0.79349904111E+02 0.  0.
          6    2    1    2  501    0 -0.88015675448E+02  0.73661520991E+02  0.24204319713E+03  0.32026878523E+03  0.17554032789E+03 0.  0.
         24    2    5    5    0    0 -0.51945601450E+02  0.62969254814E+02  0.53425774085E+02  0.12787856440E+03  0.82674913574E+02 0.  0.
          5    1    5    5  501    0 -0.36070073998E+02  0.10692266177E+02  0.18861742304E+03  0.19239022083E+03  0.47000000000E+01 0. -1.
        -13    1    6    6    0    0 -0.61648050962E+02  0.21709493890E+02  0.81596697591E+01  0.65866262403E+02  0.00000000000E+00 0.  1.
         14    1    6    6    0    0  0.97024495123E+01  0.41259760925E+02  0.45266104326E+02  0.62012301997E+02  0.00000000000E+00 0. -1.
         -5    1    3    3    0  503  0.17911029179E+02 -0.65089827643E+02 -0.48331222042E+02  0.83159411090E+02  0.47000000000E+01 0.  1.
         13    1    4    4    0    0  0.74115477243E+02 -0.21384349060E+02  0.23475475799E+02  0.80631831901E+02  0.00000000000E+00 0. -1.
        -14    1    4    4    0    0 -0.40108309741E+01  0.12812655711E+02  0.42141846043E+02  0.44228792651E+02  0.00000000000E+00 0.  1.
</event>
<event>
12    1  0.8271773E-002  0.1776221E+03  0.7818608E-02  0.1170437E+00
         21   -1    0    0  501  502  0.00000000000E+00  0.00000000000E+00  0.66989417040E+03  0.66989417040E+03  0.00000000000E+00 0. -1.
         21   -1    0    0  502  503 -0.00000000000E+00 -0.00000000000E+00 -0.12417851790E+03  0.12417851790E+03  0.00000000000E+00 0. -1.
         -6    2    1    2    0  503 -0.29949942426E+02  0.31933619503E+02 -0.41000765397E+02  0.18105902143E+03  0.17083486580E+03 0.  0.
        -24    2    3    3    0    0 -0.29181678010E+02 -0.24067939187E+02 -0.74828900892E+02  0.11546025958E+03  0.79378026587E+02 0.  0.
          6    2    1    2  501    0  0.29949942426E+02 -0.31933619503E+02  0.58671641790E+03  0.61301366687E+03  0.17214193454E+03 0.  0.
         24    2    5    5    0    0  0.42821522195E+01  0.35883787539E+02  0.45138669029E+03  0.45940943083E+03  0.77466753737E+02 0.  0.
          5    1    5    5  501    0  0.25667790207E+02 -0.67817407042E+02  0.13532972762E+03  0.15360423604E+03  0.47000000000E+01 0. -1.
        -11    1    6    6    0    0 -0.11218345229E+02 -0.19026910289E+02  0.61011937699E+02  0.64887064401E+02  0.00000000000E+00 0.  1.
         12    1    6    6    0    0  0.15500497449E+02  0.54910697828E+02  0.39037475259E+03  0.39452236643E+03  0.00000000000E+00 0. -1.
         -5    1    3    3    0  503 -0.76826441582E+00  0.56001558690E+02  0.33828135495E+02  0.65598761856E+02  0.47000000000E+01 0.  1.
         11    1    4    4    0    0 -0.19401016853E+01  0.96769181803E+01 -0.71265544606E+02  0.71945705835E+02  0.00000000000E+00 0. -1.
        -12    1    4    4    0    0 -0.27241576325E+02 -0.33744857368E+02 -0.35633562859E+01  0.43514553743E+02  0.00000000000E+00 0.  1.
</event>
<event>
12    1  0.8271773E-002  0.2651012E+03  0.7818608E-02  0.1104203E+00
         21   -1    0    0  503  502  0.00000000000E+00  0.00000000000E+00  0.62857722974E+02  0.62857722974E+02  0.00000000000E+00 0. -1.
         21   -1    0    0  501  503 -0.00000000000E+00 -0.00000000000E+00 -0.11397816187E+04  0.11397816187E+04  0.00000000000E+00 0.  1.
          6    2    1    2  501    0 -0.14546675513E+03 -0.13950049623E+03 -0.62549261967E+03  0.67912348678E+03  0.17130886651E+03 0.  0.
         24    2    3    3    0    0 -0.14873135302E+01 -0.44902695838E+02 -0.23383332959E+03  0.25122406759E+03  0.80106441149E+02 0.  0.
         -6    2    1    2    0  502  0.14546675513E+03  0.13950049623E+03 -0.45143127603E+03  0.52351585486E+03  0.17221407613E+03 0.  0.
        -24    2    5    5    0    0  0.82368266054E+02  0.25266851778E+02 -0.32370223511E+03  0.34084800672E+03  0.63018105506E+02 0.  0.
          5    1    3    3  501    0 -0.14397944160E+03 -0.94597800392E+02 -0.39165929008E+03  0.42789941920E+03  0.47000000000E+01 0. -1.
        -13    1    4    4    0    0 -0.27211681649E+02  0.10761220298E+02 -0.57220241501E+02  0.64268464412E+02  0.00000000000E+00 0.  1.
         14    1    4    4    0    0  0.25724368119E+02 -0.55663916135E+02 -0.17661308809E+03  0.18695560318E+03  0.00000000000E+00 0. -1.
         -5    1    5    5    0  502  0.63098489080E+02  0.11423364445E+03 -0.12772904093E+03  0.18266784814E+03  0.47000000000E+01 0.  1.
         13    1    6    6    0    0  0.41594587968E+02 -0.76732370689E+01 -0.69990072711E+02  0.81777738984E+02  0.00000000000E+00 0. -1.
        -14    1    6    6    0    0  0.40773678086E+02  0.32940088846E+02 -0.25371216240E+03  0.25907026774E+03  0.00000000000E+00 0.  1.
</event>
<event>
12    1  0.8271773E-002  0.4371590E+03  0.7818608E-02  0.1031670E+00
         21   -1    0    0  503  502  0.00000000000E+00  0.00000000000E+00  0.20430228119E+03  0.20430228119E+03  0.00000000000E+00 0. -1.
         21   -1    0    0  501  503 -0.00000000000E+00 -0.00000000000E+00 -0.93414124178E+03  0.93414124178E+03  0.00000000000E+00 0. -1.
          6    2    1    2  501    0  0.39921327580E+03  0.44175228635E+02 -0.36918738287E+03  0.57219516303E+03  0.17258415490E+03 0.  0.
         24    2    3    3    0    0  0.24219968247E+03  0.13753866783E+02 -0.30875780810E+03  0.40116139077E+03  0.82153650787E+02 0.  0.
         -6    2    1    2    0  502 -0.39921327580E+03 -0.44175228635E+02 -0.36065157772E+03  0.56624835994E+03  0.17101156165E+03 0.  0.
        -24    2    5    5    0    0 -0.10385117838E+03  0.29148569576E+02 -0.10051454632E+03  0.16586290430E+03  0.75977777295E+02 0.  0.
          5    1    3    3  501    0  0.15701359333E+03  0.30421361851E+02 -0.60429574765E+02  0.17103377226E+03  0.47000000000E+01 0. -1.
        -11    1    4    4    0    0  0.20680983978E+03  0.32792108866E+02 -0.28758315689E+03  0.35573825260E+03  0.00000000000E+00 0.  1.
         12    1    4    4    0    0  0.35389842696E+02 -0.19038242082E+02 -0.21174651214E+02  0.45423138175E+02  0.00000000000E+00 0. -1.
         -5    1    5    5    0  502 -0.29536209742E+03 -0.73323798211E+02 -0.26013703140E+03  0.40038545563E+03  0.47000000000E+01 0.  1.
         13    1    6    6    0    0 -0.41829786851E+02 -0.25736204502E+02 -0.38105543108E+02  0.62162011758E+02  0.00000000000E+00 0. -1.
        -14    1    6    6    0    0 -0.62021391529E+02  0.54884774079E+02 -0.62409003213E+02  0.10370089255E+03  0.00000000000E+00 0.  1.
</event>
<event>
12    1  0.8271773E-002  0.3317414E+03  0.7818608E-02  0.1070380E+00
         21   -1    0    0  503  502  0.00000000000E+00  0.00000000000E+00  0.10901412381E+04  0.10901412381E+04  0.00000000000E+00 0. -1.
         21   -1    0    0  501  503 -0.00000000000E+00 -0.00000000000E+00 -0.13203420507E+03  0.13203420507E+03  0.00000000000E+00 0.  1.
          6    2    1    2  501    0  0.26470562092E+01 -0.28413491983E+03  0.18246790715E+03  0.37861177295E+03  0.17120945624E+03 0.  0.
         24    2    3    3    0    0 -0.26213540931E+02 -0.28948227208E+03  0.17243937170E+03  0.34723997405E+03  0.79706505949E+02 0.  0.
         -6    2    1    2    0  502 -0.26470562092E+01  0.28413491983E+03  0.77563912589E+03  0.84356367024E+03  0.17100863299E+03 0.  0.
        -24    2    5    5    0    0 -0.17884124374E+02  0.29876556139E+03  0.72398742207E+03  0.78756177361E+03  0.80715905232E+02 0.  0.
          5    1    3    3  501    0  0.28860597140E+02  0.53473522444E+01  0.10028535454E+02  0.31371798907E+02  0.47000000000E+01 0. -1.
        -13    1    4    4    0    0  0.13232512998E+02 -0.48466609374E+02  0.36648173940E+01  0.50374026154E+02  0.00000000000E+00 0.  1.
         14    1    4    4    0    0 -0.39446053929E+02 -0.24101566270E+03  0.16877455430E+03  0.29686594789E+03  0.00000000000E+00 0. -1.
         -5    1    5    5    0  502  0.15237068164E+02 -0.14630641553E+02  0.51651703825E+02  0.56001896633E+02  0.47000000000E+01 0.  1.
         13    1    6    6    0    0  0.31812307110E+02  0.11931776108E+03  0.30593594688E+03  0.32991749663E+03  0.00000000000E+00 0. -1.
        -14    1    6    6    0    0 -0.49696431483E+02  0.17944780031E+03  0.41805147519E+03  0.45764427697E+03  0.00000000000E+00 0.  1.
</event>
<event>
12    1  0.8271773E-002  0.2198484E+03  0.7818608E-02  0.1134417E+00
         21   -1    0    0  501  502  0.00000000000E+00  0.00000000000E+00  0.98937955460E+03  0.98937955460E+03  0.00000000000E+00 0. -1.
         21   -1    0    0  502  503 -0.00000000000E+00 -0.00000000000E+00 -0.54431442365E+02  0.54431442365E+02  0.00000000000E+00 0. -1.
         -6    2    1    2    0  503 -0.47452625552E+01  0.13251182934E+03  0.64399254759E+03  0.68048491440E+03  0.17536081359E+03 0.  0.
        -24    2    3    3    0    0 -0.29945396126E+02  0.15001683218E+03  0.41713921380E+03  0.45151767459E+03  0.80382274704E+02 0.  0.
          6    2    1    2  501    0  0.47452625552E+01 -0.13251182934E+03  0.29095556464E+03  0.36332608256E+03  0.17253637078E+03 0.  0.
         24    2    5    5    0    0  0.59170287412E+02 -0.39034092746E+02  0.17049773989E+03  0.20136204917E+03  0.80326908488E+02 0.  0.
          5    1    5    5  501    0 -0.54425024857E+02 -0.93477736595E+02  0.12045782475E+03  0.16196403339E+03  0.47000000000E+01 0. -1.
        -13    1    6    6    0    0 -0.89931613934E+01  0.12858523144E+02  0.78800629369E+01  0.17558871296E+02  0.00000000000E+00 0.  1.
         14    1    6    6    0    0  0.68163448805E+02 -0.51892615891E+02  0.16261767696E+03  0.18380317787E+03  0.00000000000E+00 0. -1.
         -5    1    3    3    0  503  0.25200133570E+02 -0.17505002843E+02  0.22685333379E+03  0.22896723982E+03  0.47000000000E+01 0.  1.
         11    1    4    4    0    0  0.14623772381E+02  0.11260631055E+03  0.29872104991E+03  0.31957518920E+03  0.00000000000E+00 0. -1.
        -12    1    4    4    0    0 -0.44569168507E+02  0.37410521636E+02  0.11841816389E+03  0.13194248539E+03  0.00000000000E+00 0.  1.
</event>
<event>
12    1  0.8271773E-002  0.1973219E+03  0.7818608E-02  0.1152175E+00
         21   -1    0    0  503  502  0.00000000000E+00  0.00000000000E+00  0.10978182943E+04  0.10978182943E+04  0.00000000000E+00 0. -1.
         21   -1    0    0  501  503 -0.00000000000E+00 -0.00000000000E+00 -0.96145549258E+02  0.96145549258E+02  0.00000000000E+00 0. -1.
          6    2    1    2  501    0  0.46121736483E+02 -0.85389905259E+02  0.26407735945E+02  0.19908109704E+03  0.17180589100E+03 0.  0.
         24    2    3    3    0    0 -0.16175358348E+02  0.17966413746E+01 -0.11140123370E+02  0.85439759147E+02  0.83132303929E+02 0.  0.
         -6    2    1    2    0  502 -0.46121736483E+02  0.85389905259E+02  0.97526500907E+03  0.99488274650E+03  0.17097131589E+03 0.  0.
        -24    2    5    5    0    0 -0.88013941590E+02  0.92480975647E+02  0.82908424583E+03  0.84257993736E+03  0.79126982687E+02 0.  0.
          5    1    3    3  501    0  0.62297094832E+02 -0.87186546634E+02  0.37547859315E+02  0.11364133789E+03  0.47000000000E+01 0. -1.
        -13    1    4    4    0    0  0.74069740354E+01  0.25690639849E+02 -0.35151974174E+02  0.44164844940E+02  0.00000000000E+00 0.  1.
         14    1    4    4    0    0 -0.23582332384E+02 -0.23893998475E+02  0.24011850804E+02  0.41274914207E+02  0.00000000000E+00 0. -1.
         -5    1    5    5    0  502  0.41892205107E+02 -0.70910703883E+01  0.14618076324E+03  0.15230280913E+03  0.47000000000E+01 0.  1.
         13    1    6    6    0    0 -0.32997576672E+02  0.84504253911E+02  0.60160443583E+03  0.60840587292E+03  0.00000000000E+00 0. -1.
        -14    1    6    6    0    0 -0.55016364918E+02  0.79767217368E+01  0.22747981000E+03  0.23417406444E+03  0.00000000000E+00 0.  1.
</event>
<event>
12    1  0.8271773E-002  0.1859689E+03  0.7818608E-02  0.1162701E+00
         21   -1    0    0  501  502  0.00000000000E+00  0.00000000000E+00  0.11444218324E+04  0.11444218324E+04  0.00000000000E+00 0. -1.
         21   -1    0    0  502  503 -0.00000000000E+00 -0.00000000000E+00 -0.51879586412E+02  0.51879586412E+02  0.00000000000E+00 0.  1.
         -6    2    1    2    0  503  0.38999447983E+02  0.57893332177E+02  0.15436565289E+03  0.23987067591E+03  0.16981340205E+03 0.  0.
        -24    2    3    3    0    0  0.29161032726E+02  0.90870791689E+02  0.16275217163E+03  0.20413930388E+03  0.77953315571E+02 0.  0.
          6    2    1    2  501    0 -0.38999447983E+02 -0.57893332177E+02  0.93817659312E+03  0.95643074292E+03  0.17237126001E+03 0.  0.
         24    2    5    5    0    0  0.35547301351E+02 -0.64358532549E+02  0.47084298621E+03  0.48312132320E+03  0.79419543699E+02 0.  0.
          5    1    5    5  501    0 -0.74546749334E+02  0.64652003711E+01  0.46733360691E+03  0.47330941973E+03  0.47000000000E+01 0. -1.
        -11    1    6    6    0    0  0.39090730852E+02  0.36164958444E+01  0.20327580689E+03  0.20703192494E+03  0.00000000000E+00 0.  1.
         12    1    6    6    0    0 -0.35434295008E+01 -0.67975028393E+02  0.26756717932E+03  0.27608939826E+03  0.00000000000E+00 0. -1.
         -5    1    3    3    0  503  0.98384152571E+01 -0.32977459511E+02 -0.83865187360E+01  0.35731372029E+02  0.47000000000E+01 0.  1.
         13    1    4    4    0    0 -0.42338379972E+01 -0.28186160877E+01  0.63234046991E+02  0.63438274565E+02  0.00000000000E+00 0. -1.
        -14    1    4    4    0    0  0.33394870723E+02  0.93689407776E+02  0.99518124635E+02  0.14070102932E+03  0.00000000000E+00 0.  1.
</event>
<event>
12    1  0.8271773E-002  0.2136488E+03  0.7818608E-02  0.1138791E+00
         21   -1    0    0  501  502  0.00000000000E+00  0.00000000000E+00  0.70963157090E+03  0.70963157090E+03  0.00000000000E+00 0. -1.
         21   -1    0    0  502  503 -0.00000000000E+00 -0.00000000000E+00 -0.75527631138E+02  0.75527631138E+02  0.00000000000E+00 0.  1.
         -6    2    1    2    0  503 -0.86132825172E+02  0.90458123594E+02  0.16471533792E+03  0.26943498630E+03  0.17280779380E+03 0.  0.
        -24    2    3    3    0    0 -0.67789031728E+02  0.55546382281E+02  0.18732852626E+03  0.22373191500E+03  0.85341898435E+02 0.  0.
          6    2    1    2  501    0  0.86132825172E+02 -0.90458123594E+02  0.46938860184E+03  0.51572421575E+03  0.17333283436E+03 0.  0.
         24    2    5    5    0    0 -0.10894466462E+02 -0.78142153054E+02  0.29561982579E+03  0.31626580909E+03  0.80050578504E+02 0.  0.
          5    1    5    5  501    0  0.97027291634E+02 -0.12315970540E+02  0.17376877606E+03  0.19945840665E+03  0.47000000000E+01 0. -1.
        -13    1    6    6    0    0 -0.30780145290E+02 -0.29444283665E+02  0.52930221224E+02  0.67941088477E+02  0.00000000000E+00 0.  1.
         14    1    6    6    0    0  0.19885678828E+02 -0.48697869389E+02  0.24268960457E+03  0.24832472062E+03  0.00000000000E+00 0. -1.
         -5    1    3    3    0  503 -0.18343793444E+02  0.34911741313E+02 -0.22613188342E+02  0.45703071302E+02  0.47000000000E+01 0.  1.
         13    1    4    4    0    0 -0.85430282192E+02  0.50614444894E+02  0.13023673072E+03  0.16377350572E+03  0.00000000000E+00 0. -1.
        -14    1    4    4    0    0  0.17641250465E+02  0.49319373869E+01  0.57091795546E+02  0.59958409277E+02  0.00000000000E+00 0.  1.
</event>
<event>
12    1  0.8271773E-002  0.2730862E+03  0.7818608E-02  0.1099527E+00
         21   -1    0    0  501  502  0.00000000000E+00  0.00000000000E+00  0.25080399395E+03  0.25080399395E+03  0.00000000000E+00 0. -1.
         21   -1    0    0  502  503 -0.00000000000E+00 -0.00000000000E+00 -0.92016948222E+03  0.92016948222E+03  0.00000000000E+00 0. -1.
         -6    2    1    2    0  503  0.19349856994E+03 -0.86614051699E+02 -0.81637172645E+03  0.86083614538E+03  0.17214059059E+03 0.  0.
        -24    2    3    3    0    0  0.21728536034E+02 -0.35873863660E+02 -0.20231294599E+03  0.22117233752E+03  0.78915216507E+02 0.  0.
          6    2    1    2  501    0 -0.19349856994E+03  0.86614051699E+02  0.14700623819E+03  0.31013733079E+03  0.17213552616E+03 0.  0.
         24    2    5    5    0    0 -0.15334796854E+03  0.89379500911E+02  0.17685454020E+03  0.25981109872E+03  0.68702139621E+02 0.  0.
          5    1    5    5  501    0 -0.40150601395E+02 -0.27654492115E+01 -0.29848302016E+02  0.50326232076E+02  0.47000000000E+01 0. -1.
        -13    1    6    6    0    0 -0.84416908023E+02  0.81939904017E+02  0.87006881350E+02  0.14632347601E+03  0.00000000000E+00 0.  1.
         14    1    6    6    0    0 -0.68931060516E+02  0.74395968942E+01  0.89847658852E+02  0.11348762270E+03  0.00000000000E+00 0. -1.
         -5    1    3    3    0  503  0.17177003390E+03 -0.50740188039E+02 -0.61405878046E+03  0.63966380786E+03  0.47000000000E+01 0.  1.
         13    1    4    4    0    0 -0.19831164135E+02  0.14126137413E+02 -0.55965165239E+02  0.61032143575E+02  0.00000000000E+00 0. -1.
        -14    1    4    4    0    0  0.41559700169E+02 -0.50000001074E+02 -0.14634778075E+03  0.16014019395E+03  0.00000000000E+00 0.  1.
</event>
<event>
12    1  0.8271773E-002  0.1932455E+03  0.7818608E-02  0.1155584E+00
         21   -1    0    0  503  502  0.00000000000E+00  0.00000000000E+00  0.11439880951E+04  0.11439880951E+04  0.00000000000E+00 0. -1.
         21   -1    0    0  501  503 -0.00000000000E+00 -0.00000000000E+00 -0.12562441339E+03  0.12562441339E+03  0.00000000000E+00 0. -1.
          6    2    1    2  501    0  0.63565021048E+02  0.61455830384E+02 -0.36966828746E+02  0.19674954995E+03  0.17183279078E+03 0.  0.
         24    2    3    3    0    0 -0.29550546558E+02  0.54743402027E+02 -0.15687617932E+02  0.10088266078E+03  0.77853291665E+02 0.  0.
         -6    2    1    2    0  502 -0.63565021048E+02 -0.61455830384E+02  0.10553305104E+04  0.10728629585E+04  0.17174140597E+03 0.  0.
        -24    2    5    5    0    0 -0.58666286904E+02 -0.97926323687E+02  0.96676085875E+03  0.97683813008E+03  0.80962190405E+02 0.  0.
          5    1    3    3  501    0  0.93115567606E+02  0.67124283570E+01 -0.21279210814E+02  0.95866889164E+02  0.47000000000E+01 0. -1.
        -11    1    4    4    0    0 -0.26841673968E+02  0.71599988051E+02 -0.26203535373E+02  0.80831052302E+02  0.00000000000E+00 0.  1.
         12    1    4    4    0    0 -0.27088725903E+01 -0.16856586023E+02  0.10515917441E+02  0.20051608482E+02  0.00000000000E+00 0. -1.
         -5    1    5    5    0  502 -0.48987341444E+01  0.36470493302E+02  0.88569651685E+02  0.96024828443E+02  0.47000000000E+01 0.  1.
         11    1    6    6    0    0 -0.48380737256E+02 -0.30766563572E+02  0.66767059723E+03  0.67012782630E+03  0.00000000000E+00 0. -1.
        -12    1    6    6    0    0 -0.10285549648E+02 -0.67159760114E+02  0.29909026152E+03  0.30671030378E+03  0.00000000000E+00 0.  1.
</event>
<event>
12    1  0.8271773E-002  0.2306448E+03  0.7818608E-02  0.1126241E+00
         21   -1    0    0  503  502  0.00000000000E+00  0.00000000000E+00  0.11177966139E+04  0.11177966139E+04  0.00000000000E+00 0. -1.
         21   -1    0    0  501  503 -0.00000000000E+00 -0.00000000000E+00 -0.49198796945E+02  0.49198796945E+02  0.00000000000E+00 0. -1.
          6    2    1    2  501    0  0.15288432582E+03 -0.90343766797E+01  0.64218149689E+03  0.68234456107E+03  0.17245807617E+03 0.  0.
         24    2    3    3    0    0  0.83378847276E+02  0.32472907862E+02  0.20497898273E+03  0.23768514691E+03  0.80444538548E+02 0.  0.
         -6    2    1    2    0  502 -0.15288432582E+03  0.90343766797E+01  0.42641632004E+03  0.48465084975E+03  0.17204746764E+03 0.  0.
        -24    2    5    5    0    0 -0.18148298720E+03  0.16814202452E+02  0.38768501945E+03  0.43565480126E+03  0.79225245381E+02 0.  0.
          5    1    3    3  501    0  0.69505478541E+02 -0.41507284542E+02  0.43720251416E+03  0.44465941416E+03  0.47000000000E+01 0. -1.
        -11    1    4    4    0    0  0.67206267842E+01  0.42456379055E+02  0.75944984893E+02  0.87265982360E+02  0.00000000000E+00 0.  1.
         12    1    4    4    0    0  0.76658220492E+02 -0.99834711924E+01  0.12903399783E+03  0.15041916455E+03  0.00000000000E+00 0. -1.
         -5    1    5    5    0  502  0.28598661384E+02 -0.77798257724E+01  0.38731300584E+02  0.48996048483E+02  0.47000000000E+01 0.  1.
         11    1    6    6    0    0 -0.11023214246E+03  0.22148582444E+02  0.14999004063E+03  0.18745318675E+03  0.00000000000E+00 0. -1.
        -12    1    6    6    0    0 -0.71250844741E+02 -0.53343799915E+01  0.23769497883E+03  0.24820161451E+03  0.00000000000E+00 0.  1.
</event>
<event>
12    1  0.8271773E-002  0.1908395E+03  0.7818608E-02  0.1157777E+00
         21   -1    0    0  501  502  0.00000000000E+00  0.00000000000E+00  0.32418828887E+03  0.32418828887E+03  0.00000000000E+00 0.  1.
         21   -1    0    0  502  503 -0.00000000000E+00 -0.00000000000E+00 -0.16556815064E+03  0.16556815064E+03  0.00000000000E+00 0. -1.
         -6    2    1    2    0  503  0.39998702601E+02  0.70598050626E+02 -0.59819777367E+02  0.19969486098E+03  0.17238228092E+03 0.  0.
        -24    2    3    3    0    0 -0.22000890434E+02 -0.97101948608E+01 -0.43667432355E+01  0.83977563983E+02  0.80341992394E+02 0.  0.
          6    2    1    2  501    0 -0.39998702601E+02 -0.70598050626E+02  0.21843991560E+03  0.29006157853E+03  0.17273025690E+03 0.  0.
         24    2    5    5    0    0 -0.13533087633E+02 -0.11368521080E+03  0.16006057812E+03  0.21268477844E+03  0.80671895327E+02 0.  0.
          5    1    5    5  501    0 -0.26465614968E+02  0.43087160175E+02  0.58379337479E+02  0.77376800090E+02  0.47000000000E+01 0. -1.
        -11    1    6    6    0    0 -0.55781113214E+01 -0.26388773282E+02  0.10671429388E+03  0.11007008313E+03  0.00000000000E+00 0.  1.
         12    1    6    6    0    0 -0.79549763111E+01 -0.87296437519E+02  0.53346284240E+02  0.10261469531E+03  0.00000000000E+00 0. -1.
         -5    1    3    3    0  503  0.61999593035E+02  0.80308245487E+02 -0.55453034131E+02  0.11571729700E+03  0.47000000000E+01 0.  1.
         11    1    4    4    0    0  0.12262947040E+02  0.11364325111E+02  0.27821304106E+02  0.32458476820E+02  0.00000000000E+00 0. -1.
        -12    1    4    4    0    0 -0.34263837474E+02 -0.21074519972E+02 -0.32188047341E+02  0.51519087163E+02  0.00000000000E+00 0.  1.
</event>
<event>
12    1  0.8271773E-002  0.1841742E+03  0.7818608E-02  0.1164202E+00
         21   -1    0    0  501  502  0.00000000000E+00  0.00000000000E+00  0.32197495207E+02  0.32197495207E+02  0.00000000000E+00 0.  1.
         21   -1    0    0  502  503 -0.00000000000E+00 -0.00000000000E+00 -0.10940420698E+04  0.10940420698E+04  0.00000000000E+00 0.  1.
         -6    2    1    2    0  503  0.34242565124E+01  0.57105963339E+02 -0.65316873499E+03  0.67863800013E+03  0.17506376631E+03 0.  0.
        -24    2    3    3    0    0 -0.35989064538E+02  0.22884014688E+02 -0.58616972119E+03  0.59357620203E+03  0.83179773309E+02 0.  0.
          6    2    1    2  501    0 -0.34242565124E+01 -0.57105963339E+02 -0.40867583958E+03  0.44760156485E+03  0.17337359205E+03 0.  0.
         24    2    5    5    0    0  0.23907567203E+02 -0.51485191729E+02 -0.10943619478E+03  0.14702698728E+03  0.80114652369E+02 0.  0.
          5    1    5    5  501    0 -0.27331823716E+02 -0.56207716101E+01 -0.29923964480E+03  0.30057457757E+03  0.47000000000E+01 0. -1.
        -13    1    6    6    0    0 -0.21596667944E+02  0.69228490303E+01 -0.37309370619E+02  0.43661551060E+02  0.00000000000E+00 0.  1.
         14    1    6    6    0    0  0.45504235147E+02 -0.58408040759E+02 -0.72126824160E+02  0.10336543622E+03  0.00000000000E+00 0. -1.
         -5    1    3    3    0  503  0.39413321050E+02  0.34221948651E+02 -0.66999013804E+02  0.85061798102E+02  0.47000000000E+01 0.  1.
         11    1    4    4    0    0 -0.49274826338E+02 -0.14224575106E+02 -0.25801933071E+03  0.26306714365E+03  0.00000000000E+00 0. -1.
        -12    1    4    4    0    0  0.13285761800E+02  0.37108589794E+02 -0.32815039047E+03  0.33050905838E+03  0.00000000000E+00 0.  1.
</event>
<event>
12    1  0.8271773E-002  0.2689505E+03  0.7818608E-02  0.1102016E+00
         21   -1    0    0  501  502  0.00000000000E+00  0.00000000000E+00  0.97795940063E+02  0.97795940063E+02  0.00000000000E+00 0.  1.
         21   -1    0    0  502  503 -0.00000000000E+00 -0.00000000000E+00 -0.75432523664E+03  0.75432523664E+03  0.00000000000E+00 0.  1.
         -6    2    1    2    0  503  0.18290782396E+03 -0.94601361599E+02 -0.26329125014E+03  0.37570693499E+03  0.17154803676E+03 0.  0.
        -24    2    3    3    0    0  0.94473327505E+02 -0.17639602489E+02 -0.21552894770E+03  0.24902978605E+03  0.79540818814E+02 0.  0.
          6    2    1    2  501    0 -0.18290782396E+03  0.94601361599E+02 -0.39323804644E+03  0.47641424172E+03  0.17300196201E+03 0.  0.
         24    2    5    5    0    0 -0.72558591390E+02  0.11204233935E+03 -0.19605804905E+03  0.24973565383E+03  0.78172266221E+02 0.  0.
          5    1    5    5  501    0 -0.11034923257E+03 -0.17440977755E+02 -0.19717999739E+03  0.22667858789E+03  0.47000000000E+01 0. -1.
        -11    1    6    6    0    0 -0.35849537066E+02  0.29018309181E+02 -0.17320645575E+02  0.49267193330E+02  0.00000000000E+00 0.  1.
         12    1    6    6    0    0 -0.36709054324E+02  0.83024030173E+02 -0.17873740347E+03  0.20046846050E+03  0.00000000000E+00 0. -1.
         -5    1    3    3    0  503  0.88434496455E+02 -0.76961759109E+02 -0.47762302436E+02  0.12667714894E+03  0.47000000000E+01 0.  1.
         13    1    4    4    0    0  0.18850340755E+02 -0.41390959189E+02 -0.77430733995E+02  0.89800141515E+02  0.00000000000E+00 0. -1.
        -14    1    4    4    0    0  0.75622986750E+02  0.23751356700E+02 -0.13809821371E+03  0.15922964454E+03  0.00000000000E+00 0.  1.
</event>
<event>
12    1  0.8271773E-002  0.2326039E+03  0.7818608E-02  0.1125412E+00
         21   -1    0    0  501  502  0.00000000000E+00  0.00000000000E+00  0.29712524725E+04  0.29712524725E+04  0.00000000000E+00 0.  1.
         21   -1    0    0  502  503 -0.00000000000E+00 -0.00000000000E+00 -0.22247437065E+02  0.22247437065E+02  0.00000000000E+00 0.  1.
         -6    2    1    2    0  503 -0.82766031895E+02 -0.13445021608E+03  0.80760002423E+03  0.83949897932E+03  0.16617358547E+03 0.  0.
        -24    2    3    3    0    0  0.75820038973E+01 -0.67793011484E+02  0.53062463276E+03  0.54059530257E+03  0.77636338654E+02 0.  0.
          6    2    1    2  501    0  0.82766031895E+02  0.13445021608E+03  0.21414050113E+04  0.21540009303E+04  0.17081425242E+03 0.  0.
         24    2    5    5    0    0  0.58350942149E+02  0.16219659191E+03  0.19388542294E+04  0.19480522299E+04  0.77712293268E+02 0.  0.
          5    1    5    5  501    0  0.24415089746E+02 -0.27746375833E+02  0.20255078185E+03  0.20594870043E+03  0.47000000000E+01 0. -1.
        -11    1    6    6    0    0  0.65406552000E+02  0.69636653949E+02  0.89857745548E+03  0.90364192251E+03  0.00000000000E+00 0.  1.
         12    1    6    6    0    0 -0.70556098511E+01  0.92559937965E+02  0.10402767739E+04  0.10444103074E+04  0.00000000000E+00 0. -1.
         -5    1    3    3    0  503 -0.90348035792E+02 -0.66657204597E+02  0.27697539146E+03  0.29890367675E+03  0.47000000000E+01 0.  1.
         11    1    4    4    0    0 -0.34310575812E+02 -0.40658981229E+02  0.29191729525E+03  0.29672558979E+03  0.00000000000E+00 0. -1.
        -12    1    4    4    0    0  0.41892579709E+02 -0.27134030256E+02  0.23870733751E+03  0.24386971278E+03  0.00000000000E+00 0.  1.
</event>
<event>
12    1  0.8271773E-002  0.1783439E+03  0.7818608E-02  0.1169613E+00
         21   -1    0    0  501  502  0.00000000000E+00  0.00000000000E+00  0.57934796947E+03  0.57934796947E+03  0.00000000000E+00 0.  1.
         21   -1    0    0  502  503 -0.00000000000E+00 -0.00000000000E+00 -0.57174028049E+02  0.57174028049E+02  0.00000000000E+00 0.  1.
         -6    2    1    2    0  503 -0.32243607402E+02 -0.33204715002E+02  0.32847253411E+03  0.37376564752E+03  0.17223341802E+03 0.  0.
        -24    2    3    3    0    0  0.35974133298E+01 -0.44454729116E+02  0.75934040287E+02  0.11840526992E+03  0.79149637696E+02 0.  0.
          6    2    1    2  501    0  0.32243607402E+02  0.33204715002E+02  0.19370140731E+03  0.26275635000E+03  0.17140146135E+03 0.  0.
         24    2    5    5    0    0 -0.26268635380E+02  0.20450813752E+02  0.33833837475E+02  0.91975571112E+02  0.78781343827E+02 0.  0.
          5    1    5    5  501    0  0.58512242782E+02  0.12753901250E+02  0.15986756983E+03  0.17078077889E+03  0.47000000000E+01 0. -1.
        -13    1    6    6    0    0 -0.10856432033E+02  0.48381411111E+02  0.33916880896E+02  0.60074768974E+02  0.00000000000E+00 0.  1.
         14    1    6    6    0    0 -0.15412203347E+02 -0.27930597359E+02 -0.83043420762E-01  0.31900802138E+02  0.00000000000E+00 0. -1.
         -5    1    3    3    0  503 -0.35841020732E+02  0.11250014114E+02  0.25253849383E+03  0.25536037760E+03  0.47000000000E+01 0.  1.
         11    1    4    4    0    0  0.38935068123E+02 -0.91377844932E+01  0.25592880844E+02  0.47480882311E+02  0.00000000000E+00 0. -1.
        -12    1    4    4    0    0 -0.35337654793E+02 -0.35316944623E+02  0.50341159443E+02  0.70924387610E+02  0.00000000000E+00 0.  1.
</event>
<event>
12    1  0.8271773E-002  0.1928470E+03  0.7818608E-02  0.1156836E+00
         21   -1    0    0  501  502  0.00000000000E+00  0.00000000000E+00  0.35937365879E+03  0.35937365879E+03  0.00000000000E+00 0.  1.
         21   -1    0    0  502  503 -0.00000000000E+00 -0.00000000000E+00 -0.17489350218E+03  0.17489350218E+03  0.00000000000E+00 0.  1.
         -6    2    1    2    0  503 -0.66611332020E+02 -0.55038669004E+02 -0.80469557109E+02  0.20896249492E+03  0.17240548141E+03 0.  0.
        -24    2    3    3    0    0 -0.23627384083E+02  0.26797374617E+02 -0.14939563169E+01  0.87290832908E+02  0.79631055747E+02 0.  0.
          6    2    1    2  501    0  0.66611332020E+02  0.55038669004E+02  0.26494971373E+03  0.32530466605E+03  0.16780479824E+03 0.  0.
         24    2    5    5    0    0  0.10792581551E+03  0.44507056374E+02  0.22030773677E+03  0.26339507457E+03  0.84927066980E+02 0.  0.
          5    1    5    5  501    0 -0.41314483492E+02  0.10531612631E+02  0.44641976951E+02  0.61909591478E+02  0.47000000000E+01 0. -1.
        -13    1    6    6    0    0  0.11288370807E+01  0.37309378003E+02  0.56879578286E+02  0.68033450494E+02  0.00000000000E+00 0.  1.
         14    1    6    6    0    0  0.10679697843E+03  0.71976783705E+01  0.16342815849E+03  0.19536162408E+03  0.00000000000E+00 0. -1.
         -5    1    3    3    0  503 -0.42983947937E+02 -0.81836043621E+02 -0.78975600792E+02  0.12167166201E+03  0.47000000000E+01 0.  1.
         13    1    4    4    0    0  0.43610737066E+01  0.17336534796E+02  0.35619530187E+02  0.39853799484E+02  0.00000000000E+00 0. -1.
        -14    1    4    4    0    0 -0.27988457790E+02  0.94608398209E+01 -0.37113486504E+02  0.47437033424E+02  0.00000000000E+00 0.  1.
</event>
<event>
12    1  0.8271773E-002  0.2824725E+03  0.7818608E-02  0.1094442E+00
         21   -1    0    0  503  502  0.00000000000E+00  0.00000000000E+00  0.55561276162E+03  0.55561276162E+03  0.00000000000E+00 0. -1.
         21   -1    0    0  501  503 -0.00000000000E+00 -0.00000000000E+00 -0.15462299467E+03  0.15462299467E+03  0.00000000000E+00 0.  1.
          6    2    1    2  501    0 -0.21847857775E+03  0.45685795144E+02  0.10394602420E+03  0.30032636909E+03  0.17196241219E+03 0.  0.
         24    2    3    3    0    0 -0.13689546568E+03 -0.14914127887E+01 -0.19296957826E+01  0.15850517459E+03  0.79859713321E+02 0.  0.
         -6    2    1    2    0  502  0.21847857775E+03 -0.45685795144E+02  0.29704374274E+03  0.40990938720E+03  0.17312030441E+03 0.  0.
        -24    2    5    5    0    0  0.13338827515E+03 -0.82884769001E+02  0.12916395173E+03  0.21799837271E+03  0.78598010149E+02 0.  0.
          5    1    3    3  501    0 -0.81583112076E+02  0.47177207932E+02  0.10587571999E+03  0.14182119449E+03  0.47000000000E+01 0. -1.
        -11    1    4    4    0    0 -0.22082711369E+02 -0.30345419795E+02  0.11769889871E+02  0.39332187220E+02  0.00000000000E+00 0.  1.
         12    1    4    4    0    0 -0.11481275431E+03  0.28854007007E+02 -0.13699585654E+02  0.11917298737E+03  0.00000000000E+00 0. -1.
         -5    1    5    5    0  502  0.85090302608E+02  0.37198973857E+02  0.16787979101E+03  0.19191101449E+03  0.47000000000E+01 0.  1.
         13    1    6    6    0    0  0.12726374043E+03 -0.73681116265E+02  0.13962308402E+03  0.20277961464E+03  0.00000000000E+00 0. -1.
        -14    1    6    6    0    0  0.61245347137E+01 -0.92036527365E+01 -0.10459132284E+02  0.15218758073E+02  0.00000000000E+00 0.  1.
</event>
<event>
12    1  0.8271773E-002  0.1849193E+03  0.7818608E-02  0.1163800E+00
         21   -1    0    0  503  502  0.00000000000E+00  0.00000000000E+00  0.19210180254E+03  0.19210180254E+03  0.00000000000E+00 0. -1.
         21   -1    0    0  501  503 -0.00000000000E+00 -0.00000000000E+00 -0.19599540682E+03  0.19599540682E+03  0.00000000000E+00 0. -1.
          6    2    1    2  501    0 -0.25404517095E+02 -0.62311194893E+02 -0.65078228759E+02  0.19603650835E+03  0.17224129078E+03 0.  0.
         24    2    3    3    0    0 -0.35419002294E+02 -0.54818350260E+01 -0.96295569612E+02  0.13026053685E+03  0.80065064132E+02 0.  0.
         -6    2    1    2    0  502  0.25404517095E+02  0.62311194893E+02  0.61184624478E+02  0.19206070101E+03  0.16916169810E+03 0.  0.
        -24    2    5    5    0    0 -0.36878393835E+02  0.97472882312E+01  0.42020709083E+02  0.10820683449E+03  0.92130089973E+02 0.  0.
          5    1    3    3  501    0  0.10014485199E+02 -0.56829359868E+02  0.31217340853E+02  0.65775971499E+02  0.47000000000E+01 0. -1.
        -11    1    4    4    0    0  0.54033440762E+01  0.28158045633E+02 -0.12754449225E+02  0.31380688904E+02  0.00000000000E+00 0.  1.
         12    1    4    4    0    0 -0.40822346370E+02 -0.33639880659E+02 -0.83541120387E+02  0.98879847944E+02  0.00000000000E+00 0. -1.
         -5    1    5    5    0  502  0.62282910931E+02  0.52563906662E+02  0.19163915394E+02  0.83853866523E+02  0.47000000000E+01 0.  1.
         13    1    6    6    0    0  0.18138476283E+02 -0.27707326960E+02  0.15446640479E+02  0.36541743133E+02  0.00000000000E+00 0. -1.
        -14    1    6    6    0    0 -0.55016870118E+02  0.37454615191E+02  0.26574068605E+02  0.71665091355E+02  0.00000000000E+00 0.  1.
</event>
<event>
12    1  0.8271773E-002  0.2118996E+03  0.7818608E-02  0.1140110E+00
         21   -1    0    0  501  502  0.00000000000E+00  0.00000000000E+00  0.10870715839E+03  0.10870715839E+03  0.00000000000E+00 0.  1.
         21   -1    0    0  502  503 -0.00000000000E+00 -0.00000000000E+00 -0.41345111970E+03  0.41345111970E+03  0.00000000000E+00 0. -1.
         -6    2    1    2    0  503  0.45167786628E+02 -0.11570507674E+03 -0.16390625392E+03  0.26789307084E+03  0.17167889677E+03 0.  0.
        -24    2    3    3    0    0  0.59045579204E+02 -0.94489959443E+02 -0.18824640073E+03  0.23243595484E+03  0.78581377279E+02 0.  0.
          6    2    1    2  501    0 -0.45167786628E+02  0.11570507674E+03 -0.14083770739E+03  0.25426520724E+03  0.17142853338E+03 0.  0.
         24    2    5    5    0    0  0.36196459278E+02  0.83000434983E+02 -0.60617252971E+02  0.13532343404E+03  0.80241663564E+02 0.  0.
          5    1    5    5  501    0 -0.81364245906E+02  0.32704641758E+02 -0.80220454417E+02  0.11894177320E+03  0.47000000000E+01 0. -1.
        -11    1    6    6    0    0  0.84899045786E+01 -0.15739491180E+02 -0.13800803045E+02  0.22589205985E+02  0.00000000000E+00 0.  1.
         12    1    6    6    0    0  0.27706554700E+02  0.98739926163E+02 -0.46816449927E+02  0.11273422806E+03  0.00000000000E+00 0. -1.
         -5    1    3    3    0  503 -0.13877792576E+02 -0.21215117297E+02  0.24340146806E+02  0.35457116003E+02  0.47000000000E+01 0.  1.
         11    1    4    4    0    0  0.76117806025E+02 -0.57975511867E+02 -0.13989548826E+03  0.16948695527E+03  0.00000000000E+00 0. -1.
        -12    1    4    4    0    0 -0.17072226821E+02 -0.36514447576E+02 -0.48350912468E+02  0.62948999570E+02  0.00000000000E+00 0.  1.
</event>
<event>
12    1  0.8271773E-002  0.1945639E+03  0.7818608E-02  0.1154421E+00
         21   -1    0    0  501  502  0.00000000000E+00  0.00000000000E+00  0.18770358676E+04  0.18770358676E+04  0.00000000000E+00 0. -1.
         21   -1    0    0  502  503 -0.00000000000E+00 -0.00000000000E+00 -0.25277145278E+02  0.25277145278E+02  0.00000000000E+00 0. -1.
         -6    2    1    2    0  503 -0.92821569100E+02  0.12417052270E+02  0.49787011355E+03  0.53451571048E+03  0.17047688376E+03 0.  0.
        -24    2    3    3    0    0 -0.12322833191E+03  0.39309222129E+02  0.36398045240E+03  0.39452895614E+03  0.80255160442E+02 0.  0.
          6    2    1    2  501    0  0.92821569100E+02 -0.12417052270E+02  0.13538886088E+04  0.13677973024E+04  0.17054345087E+03 0.  0.
         24    2    5    5    0    0  0.48394587556E+02  0.19006390762E+02  0.12174133680E+04  0.12207980820E+04  0.74494089713E+02 0.  0.
          5    1    5    5  501    0  0.44426981544E+02 -0.31423443032E+02  0.13647524079E+03  0.14699922044E+03  0.47000000000E+01 0. -1.
        -11    1    6    6    0    0  0.11926208334E+01  0.36552112883E+02  0.69552375603E+03  0.69648458310E+03  0.00000000000E+00 0.  1.
         12    1    6    6    0    0  0.47201966723E+02 -0.17545722121E+02  0.52188961195E+03  0.52431349886E+03  0.00000000000E+00 0. -1.
         -5    1    3    3    0  503  0.30406762808E+02 -0.26892169858E+02  0.13388966116E+03  0.13998675433E+03  0.47000000000E+01 0.  1.
         11    1    4    4    0    0 -0.79867940196E+02  0.33134669805E+01  0.12043926490E+03  0.14455270134E+03  0.00000000000E+00 0. -1.
        -12    1    4    4    0    0 -0.43360391712E+02  0.35995755148E+02  0.24354118749E+03  0.24997625480E+03  0.00000000000E+00 0.  1.
</event>
<event>
12    1  0.8271773E-002  0.2115662E+03  0.7818608E-02  0.1141293E+00
         21   -1    0    0  503  502  0.00000000000E+00  0.00000000000E+00  0.67579443274E+02  0.67579443274E+02  0.00000000000E+00 0.  1.
         21   -1    0    0  501  503 -0.00000000000E+00 -0.00000000000E+00 -0.14679107361E+04  0.14679107361E+04  0.00000000000E+00 0. -1.
          6    2    1    2  501    0  0.11021806894E+03  0.41100632555E+02 -0.12706185165E+04  0.12873256189E+04  0.16999573505E+03 0.  0.
         24    2    3    3    0    0  0.11812129149E+03  0.16070981056E+02 -0.12249736649E+04  0.12344627126E+04  0.95534252108E+02 0.  0.
         -6    2    1    2    0  502 -0.11021806894E+03 -0.41100632555E+02 -0.12971277629E+03  0.24816456041E+03  0.17584925361E+03 0.  0.
        -24    2    5    5    0    0 -0.67995334546E+02 -0.76061549900E+02 -0.14190557298E+03  0.19181050703E+03  0.79027552608E+02 0.  0.
          5    1    3    3  501    0 -0.79032225495E+01  0.25029651500E+02 -0.45644851655E+02  0.52862906309E+02  0.47000000000E+01 0. -1.
        -11    1    4    4    0    0 -0.13616752731E+01  0.99978663882E+01 -0.12332823643E+02  0.15934554618E+02  0.00000000000E+00 0.  1.
         12    1    4    4    0    0  0.11948296677E+03  0.60731146673E+01 -0.12126408412E+04  0.12185281580E+04  0.00000000000E+00 0. -1.
         -5    1    5    5    0  502 -0.42222734397E+02  0.34960917345E+02  0.12192796693E+02  0.56354053384E+02  0.47000000000E+01 0.  1.
         11    1    6    6    0    0  0.14028605966E+02 -0.10663866319E+02 -0.32118671816E+01  0.17911893283E+02  0.00000000000E+00 0. -1.
        -12    1    6    6    0    0 -0.82023940512E+02 -0.65397683582E+02 -0.13869370580E+03  0.17389861375E+03  0.00000000000E+00 0.  1.
</event>
<event>
12    1  0.8271773E-002  0.2185002E+03  0.7818608E-02  0.1135135E+00
         21   -1    0    0  503  502  0.00000000000E+00  0.00000000000E+00  0.29957502592E+03  0.29957502592E+03  0.00000000000E+00 0.  1.
         21   -1    0    0  501  503 -0.00000000000E+00 -0.00000000000E+00 -0.16016353323E+03  0.16016353323E+03  0.00000000000E+00 0.  1.
          6    2    1    2  501    0 -0.12126237771E+03  0.59313109472E+02  0.90278262125E+02  0.23578229747E+03  0.17094010058E+03 0.  0.
         24    2    3    3    0    0  0.80140565696E+01  0.26052571290E+02  0.16263227607E+02  0.83076779579E+02  0.76774326174E+02 0.  0.
         -6    2    1    2    0  502  0.12126237771E+03 -0.59313109472E+02  0.49133230565E+02  0.22395626168E+03  0.17181304840E+03 0.  0.
        -24    2    5    5    0    0  0.40899368398E+02 -0.91783366825E+02  0.10788856411E+02  0.12906204739E+03  0.80272460355E+02 0.  0.
          5    1    3    3  501    0 -0.12927643428E+03  0.33260538182E+02  0.74015034518E+02  0.15270551789E+03  0.47000000000E+01 0. -1.
        -11    1    4    4    0    0 -0.18177169389E+02  0.30178016025E+02 -0.18153169789E+02  0.39631549447E+02  0.00000000000E+00 0.  1.
         12    1    4    4    0    0  0.26191225958E+02 -0.41254447354E+01  0.34416397396E+02  0.43445230131E+02  0.00000000000E+00 0. -1.
         -5    1    5    5    0  502  0.80363009312E+02  0.32470257353E+02  0.38344374155E+02  0.94894214300E+02  0.47000000000E+01 0.  1.
         13    1    6    6    0    0  0.23077430353E+02  0.10000107814E+02 -0.16159930700E+00  0.25151462429E+02  0.00000000000E+00 0. -1.
        -14    1    6    6    0    0  0.17821938045E+02 -0.10178347464E+03  0.10950455718E+02  0.10391058496E+03  0.00000000000E+00 0.  1.
</event>
<event>
12    1  0.8271773E-002  0.1951410E+03  0.7818608E-02  0.1154043E+00
         21   -1    0    0  503  502  0.00000000000E+00  0.00000000000E+00  0.31500924100E+03  0.31500924100E+03  0.00000000000E+00 0.  1.
         21   -1    0    0  501  503 -0.00000000000E+00 -0.00000000000E+00 -0.12326491220E+03  0.12326491220E+03  0.00000000000E+00 0.  1.
          6    2    1    2  501    0  0.79791131664E+02 -0.47668550450E+02  0.62852877436E+02  0.20440873573E+03  0.17086114726E+03 0.  0.
         24    2    3    3    0    0  0.67378084150E+02  0.14461796274E+01 -0.20465983252E+02  0.10678464543E+03  0.80263356336E+02 0.  0.
         -6    2    1    2    0  502 -0.79791131664E+02  0.47668550450E+02  0.12889145136E+03  0.23386541747E+03  0.17158412474E+03 0.  0.
        -24    2    5    5    0    0 -0.96529622137E+02 -0.14988679713E+02  0.62143695618E+02  0.14068034114E+03  0.79915524202E+02 0.  0.
          5    1    3    3  501    0  0.12413047515E+02 -0.49114730078E+02  0.83318860689E+02  0.97624090293E+02  0.47000000000E+01 0. -1.
        -11    1    4    4    0    0  0.54889128772E+02  0.21597858814E+02  0.17937632320E+02  0.61652596182E+02  0.00000000000E+00 0.  1.
         12    1    4    4    0    0  0.12488955378E+02 -0.20151679187E+02 -0.38403615572E+02  0.45132049250E+02  0.00000000000E+00 0. -1.
         -5    1    5    5    0  502  0.16738490473E+02  0.62657230163E+02  0.66747755739E+02  0.93185076333E+02  0.47000000000E+01 0.  1.
         11    1    6    6    0    0 -0.70152592318E+02 -0.69365803313E+01 -0.23538047892E+01  0.70533982963E+02  0.00000000000E+00 0. -1.
        -12    1    6    6    0    0 -0.26377029818E+02 -0.80520993813E+01  0.64497500408E+02  0.70146358176E+02  0.00000000000E+00 0.  1.
</event>
<event>
12    1  0.8271773E-002  0.2180170E+03  0.7818608E-02  0.1135783E+00
         21   -1    0    0  503  502  0.00000000000E+00  0.00000000000E+00  0.28166077925E+03  0.28166077925E+03  0.00000000000E+00 0.  1.
         21   -1    0    0  501  503 -0.00000000000E+00 -0.00000000000E+00 -0.22515303308E+03  0.22515303308E+03  0.00000000000E+00 0. -1.
          6    2    1    2  501    0 -0.63043784248E+02 -0.11943964786E+03 -0.10034539293E+03  0.24000125812E+03  0.17114630526E+03 0.  0.
         24    2    3    3    0    0 -0.62411833404E+02 -0.22392446229E+02 -0.15272879951E+02  0.11085799980E+03  0.87519007424E+02 0.  0.
         -6    2    1    2    0  502  0.63043784248E+02  0.11943964786E+03  0.15685313909E+03  0.26681255421E+03  0.16836176414E+03 0.  0.
        -24    2    5    5    0    0 -0.27075913777E+02  0.71824185218E+02  0.58073392604E+02  0.12479734174E+03  0.79435753209E+02 0.  0.
          5    1    3    3  501    0 -0.63195084417E+00 -0.97047201633E+02 -0.85072512977E+02  0.12914325833E+03  0.47000000000E+01 0. -1.
        -11    1    4    4    0    0  0.19360014986E+02  0.41235592546E+01  0.86888036433E+01  0.21617336329E+02  0.00000000000E+00 0.  1.
         12    1    4    4    0    0 -0.81771848390E+02 -0.26516005484E+02 -0.23961683595E+02  0.89240663471E+02  0.00000000000E+00 0. -1.
         -5    1    5    5    0  502  0.90119698025E+02  0.47615462645E+02  0.98779746490E+02  0.14201521247E+03  0.47000000000E+01 0.  1.
         11    1    6    6    0    0  0.23181879909E+02  0.34271181624E+02  0.32881876818E+01  0.41505730017E+02  0.00000000000E+00 0. -1.
        -12    1    6    6    0    0 -0.50257793686E+02  0.37553003593E+02  0.54785204922E+02  0.83291611723E+02  0.00000000000E+00 0.  1.
</event>
<event>
12    1  0.8271773E-002  0.1819792E+03  0.7818608E-02  0.1166461E+00
         21   -1    0    0  501  502  0.00000000000E+00  0.00000000000E+00  0.59140719826E+02  0.59140719826E+02  0.00000000000E+00 0.  1.
         21   -1    0    0  502  503 -0.00000000000E+00 -0.00000000000E+00 -0.84078689856E+03  0.84078689856E+03  0.00000000000E+00 0.  1.
         -6    2    1    2    0  503 -0.34961629369E+02 -0.41765577169E+02 -0.65581247391E+03  0.68059270878E+03  0.17363684904E+03 0.  0.
        -24    2    3    3    0    0  0.51080570543E+02 -0.19532835650E+01 -0.29997417074E+03  0.31231120383E+03  0.70290432643E+02 0.  0.
          6    2    1    2  501    0  0.34961629369E+02  0.41765577169E+02 -0.12583370482E+03  0.21933490961E+03  0.17119288051E+03 0.  0.
         24    2    5    5    0    0  0.62248610196E+02  0.13712936913E+02 -0.13883302078E+03  0.17783066689E+03  0.91028590655E+02 0.  0.
          5    1    5    5  501    0 -0.27286980827E+02  0.28052640256E+02  0.12999315959E+02  0.41504242716E+02  0.47000000000E+01 0. -1.
        -11    1    6    6    0    0 -0.90603309570E+01  0.32880849791E+02 -0.25583469490E+02  0.42635123914E+02  0.00000000000E+00 0.  1.
         12    1    6    6    0    0  0.71308941153E+02 -0.19167912877E+02 -0.11324955129E+03  0.13519554298E+03  0.00000000000E+00 0. -1.
         -5    1    3    3    0  503 -0.86042199912E+02 -0.39812293604E+02 -0.35583830317E+03  0.36828150495E+03  0.47000000000E+01 0.  1.
         11    1    4    4    0    0 -0.15599807027E+02  0.98226028450E+01 -0.82732597300E+02  0.84761548841E+02  0.00000000000E+00 0. -1.
        -12    1    4    4    0    0  0.66680377570E+02 -0.11775886410E+02 -0.21724157344E+03  0.22754965499E+03  0.00000000000E+00 0.  1.
</event>
<event>
12    1  0.8271773E-002  0.2264294E+03  0.7818608E-02  0.1129203E+00
         21   -1    0    0  501  502  0.00000000000E+00  0.00000000000E+00  0.50526007556E+03  0.50526007556E+03  0.00000000000E+00 0.  1.
         21   -1    0    0  502  503 -0.00000000000E+00 -0.00000000000E+00 -0.10430276429E+03  0.10430276429E+03  0.00000000000E+00 0. -1.
         -6    2    1    2    0  503  0.12647816840E+03 -0.74305171791E+02  0.14966967296E+03  0.27130886114E+03  0.17230641744E+03 0.  0.
        -24    2    3    3    0    0  0.25529586079E+02 -0.72428044109E+02  0.43682109284E+02  0.12485206363E+03  0.88217514038E+02 0.  0.
          6    2    1    2  501    0 -0.12647816840E+03  0.74305171791E+02  0.25128763831E+03  0.33825397872E+03  0.17248852516E+03 0.  0.
         24    2    5    5    0    0 -0.14427353320E+03  0.10179809484E+03  0.23073555625E+03  0.29930511605E+03  0.71881507228E+02 0.  0.
          5    1    5    5  501    0  0.17795364796E+02 -0.27492923046E+02  0.20552082065E+02  0.38948862667E+02  0.47000000000E+01 0. -1.
        -13    1    6    6    0    0 -0.11315648993E+02  0.41026433876E+02  0.70952066964E+02  0.82736980819E+02  0.00000000000E+00 0.  1.
         14    1    6    6    0    0 -0.13295788421E+03  0.60771660962E+02  0.15978348928E+03  0.21656813523E+03  0.00000000000E+00 0. -1.
         -5    1    3    3    0  503  0.10094858232E+03 -0.18771276823E+01  0.10598756367E+03  0.14645679750E+03  0.47000000000E+01 0.  1.
         11    1    4    4    0    0  0.27577963339E+02 -0.52410637679E+02  0.70020018218E+02  0.91707262281E+02  0.00000000000E+00 0. -1.
        -12    1    4    4    0    0 -0.20483772599E+01 -0.20017406430E+02 -0.26337908935E+02  0.33144801351E+02  0.00000000000E+00 0.  1.
</event>
<event>
12    1  0.8271773E-002  0.1795131E+03  0.7818608E-02  0.1168928E+00
         21   -1    0    0  503  502  0.00000000000E+00  0.00000000000E+00  0.10013068679E+04  0.10013068679E+04  0.00000000000E+00 0.  1.
         21   -1    0    0  501  503 -0.00000000000E+00 -0.00000000000E+00 -0.87324445563E+02  0.87324445563E+02  0.00000000000E+00 0.  1.
          6    2    1    2  501    0 -0.51965424815E+02  0.12428667104E+02  0.23837121116E+02  0.18108881713E+03  0.17137699438E+03 0.  0.
         24    2    3    3    0    0 -0.10744199115E+01 -0.61911632627E+01  0.72546609923E+02  0.10807308757E+03  0.79857978718E+02 0.  0.
         -6    2    1    2    0  502  0.51965424815E+02 -0.12428667104E+02  0.89014530125E+03  0.90754249637E+03  0.16858187395E+03 0.  0.
        -24    2    5    5    0    0  0.69897049434E+02  0.21846442740E+02  0.82188498017E+03  0.82894295597E+03  0.79300939736E+02 0.  0.
          5    1    3    3  501    0 -0.50891004904E+02  0.18619830367E+02 -0.48709488807E+02  0.73015729558E+02  0.47000000000E+01 0. -1.
        -13    1    4    4    0    0 -0.28070211801E+02  0.13931431007E+02  0.38552857497E+01  0.31573482365E+02  0.00000000000E+00 0.  1.
         14    1    4    4    0    0  0.26995791889E+02 -0.20122594269E+02  0.68691324174E+02  0.76499605205E+02  0.00000000000E+00 0. -1.
         -5    1    5    5    0  502 -0.17931624618E+02 -0.34275109844E+02  0.68260321085E+02  0.78599540399E+02  0.47000000000E+01 0.  1.
         11    1    6    6    0    0  0.47766259207E+02  0.14673285398E+02  0.18489479492E+03  0.19152808152E+03  0.00000000000E+00 0. -1.
        -12    1    6    6    0    0  0.22130790227E+02  0.71731573420E+01  0.63699018525E+03  0.63741487445E+03  0.00000000000E+00 0.  1.
</event>
<event>
12    1  0.8271773E-002  0.1796559E+03  0.7818608E-02  0.1168275E+00
         21   -1    0    0  503  502  0.00000000000E+00  0.00000000000E+00  0.66319509247E+03  0.66319509247E+03  0.00000000000E+00 0. -1.
         21   -1    0    0  501  503 -0.00000000000E+00 -0.00000000000E+00 -0.78955100832E+02  0.78955100832E+02  0.00000000000E+00 0.  1.
          6    2    1    2  501    0 -0.62202037113E+01  0.50739909248E+02  0.61993424947E+02  0.19005111328E+03  0.17222953173E+03 0.  0.
         24    2    3    3    0    0  0.31246298251E+02  0.60974867947E+02 -0.12409717749E+02  0.10598916712E+03  0.79908928021E+02 0.  0.
         -6    2    1    2    0  502  0.62202037113E+01 -0.50739909248E+02  0.52224656669E+03  0.55209908002E+03  0.17163533556E+03 0.  0.
        -24    2    5    5    0    0  0.45044158991E+02 -0.97859566783E+01  0.16879309859E+03  0.19413823042E+03  0.84105892607E+02 0.  0.
          5    1    3    3  501    0 -0.37466501962E+02 -0.10234958699E+02  0.74403142696E+02  0.84061946158E+02  0.47000000000E+01 0. -1.
        -13    1    4    4    0    0  0.53710294761E+02  0.18159204760E+02 -0.10048699279E+02  0.57580629017E+02  0.00000000000E+00 0.  1.
         14    1    4    4    0    0 -0.22463996510E+02  0.42815663187E+02 -0.23610184703E+01  0.48408538107E+02  0.00000000000E+00 0. -1.
         -5    1    5    5    0  502 -0.38823955280E+02 -0.40953952569E+02  0.35345346810E+03  0.35796084960E+03  0.47000000000E+01 0.  1.
         11    1    6    6    0    0 -0.14505186942E+02 -0.20499144185E+02  0.15935888034E+02  0.29741686032E+02  0.00000000000E+00 0. -1.
        -12    1    6    6    0    0  0.59549345933E+02  0.10713187507E+02  0.15285721056E+03  0.16439654439E+03  0.00000000000E+00 0.  1.
</event>
<event>
12    1  0.8271773E-002  0.1979620E+03  0.7818608E-02  0.1152750E+00
         21   -1    0    0  503  502  0.00000000000E+00  0.00000000000E+00  0.26135989857E+03  0.26135989857E+03  0.00000000000E+00 0. -1.
         21   -1    0    0  501  503 -0.00000000000E+00 -0.00000000000E+00 -0.14857959941E+03  0.14857959941E+03  0.00000000000E+00 0.  1.
          6    2    1    2  501    0 -0.63875589717E+02  0.69688002523E+02  0.27785669927E+02  0.19990251620E+03  0.17393235430E+03 0.  0.
         24    2    3    3    0    0 -0.28983364145E+01  0.82913189052E+02 -0.23599450281E+02  0.11893553800E+03  0.81888527119E+02 0.  0.
         -6    2    1    2    0  502  0.63875589717E+02 -0.69688002523E+02  0.84994629234E+02  0.21003698178E+03  0.16719730278E+03 0.  0.
        -24    2    5    5    0    0  0.46914043342E+02 -0.19799477387E+02  0.11537651195E+03  0.14903118047E+03  0.79407848957E+02 0.  0.
          5    1    3    3  501    0 -0.60977253302E+02 -0.13225186529E+02  0.51385120208E+02  0.80966978193E+02  0.47000000000E+01 0. -1.
        -13    1    4    4    0    0  0.12456303384E+02  0.18936266879E+02 -0.44468170293E+02  0.49911520379E+02  0.00000000000E+00 0.  1.
         14    1    4    4    0    0 -0.15354639799E+02  0.63976922173E+02  0.20868720012E+02  0.69024017625E+02  0.00000000000E+00 0. -1.
         -5    1    5    5    0  502  0.16961546375E+02 -0.49888525136E+02 -0.30381882713E+02  0.61005801305E+02  0.47000000000E+01 0.  1.
         11    1    6    6    0    0 -0.13059658588E+02  0.12013335887E+02  0.56323194656E+02  0.59052325761E+02  0.00000000000E+00 0. -1.
        -12    1    6    6    0    0  0.59973701930E+02 -0.31812813275E+02  0.59053317291E+02  0.89978854709E+02  0.00000000000E+00 0.  1.
</event>
<event>
12    1  0.8271773E-002  0.1942562E+03  0.7818608E-02  0.1155195E+00
         21   -1    0    0  503  502  0.00000000000E+00  0.00000000000E+00  0.74982447071E+03  0.74982447071E+03  0.00000000000E+00 0.  1.
         21   -1    0    0  501  503 -0.00000000000E+00 -0.00000000000E+00 -0.63105248142E+02  0.63105248142E+02  0.00000000000E+00 0.  1.
          6    2    1    2  501    0  0.79138971052E+02 -0.25900181486E+02  0.15780443412E+03  0.25027526489E+03  0.17550405309E+03 0.  0.
         24    2    3    3    0    0  0.63907639407E+02 -0.20715815614E+02  0.18842328345E+03  0.21536860296E+03  0.79793295476E+02 0.  0.
         -6    2    1    2    0  502 -0.79138971052E+02  0.25900181486E+02  0.52891478845E+03  0.56265445396E+03  0.17290281947E+03 0.  0.
        -24    2    5    5    0    0 -0.12057993973E+03  0.27803184918E+02  0.36862197471E+03  0.39701372394E+03  0.80157331509E+02 0.  0.
          5    1    3    3  501    0  0.15231331644E+02 -0.51843658724E+01 -0.30618849330E+02  0.34906661935E+02  0.47000000000E+01 0. -1.
        -11    1    4    4    0    0  0.21036334399E+02 -0.28807815440E+02  0.18994904233E+02  0.40413165951E+02  0.00000000000E+00 0.  1.
         12    1    4    4    0    0  0.42871305009E+02  0.80919998262E+01  0.16942837922E+03  0.17495543701E+03  0.00000000000E+00 0. -1.
         -5    1    5    5    0  502  0.41440968680E+02 -0.19030034318E+01  0.16029281373E+03  0.16564073002E+03  0.47000000000E+01 0.  1.
         11    1    6    6    0    0 -0.13634751476E+02 -0.80444003473E+01  0.54713864709E+01  0.16749772974E+02  0.00000000000E+00 0. -1.
        -12    1    6    6    0    0 -0.10694518826E+03  0.35847585265E+02  0.36315058824E+03  0.38026395096E+03  0.00000000000E+00 0.  1.
</event>
<event>
12    1  0.8271773E-002  0.2354494E+03  0.7818608E-02  0.1123073E+00
         21   -1    0    0  503  502  0.00000000000E+00  0.00000000000E+00  0.15363354276E+04  0.15363354276E+04  0.00000000000E+00 0. -1.
         21   -1    0    0  501  503 -0.00000000000E+00 -0.00000000000E+00 -0.47386640126E+02  0.47386640126E+02  0.00000000000E+00 0. -1.
          6    2    1    2  501    0 -0.12952408716E+03 -0.90716639024E+02  0.35303322709E+03  0.42366147509E+03  0.17277322794E+03 0.  0.
         24    2    3    3    0    0 -0.13843526023E+03 -0.25497480506E+02  0.20490010296E+03  0.26149347545E+03  0.81119311650E+02 0.  0.
         -6    2    1    2    0  502  0.12952408716E+03  0.90716639024E+02  0.11359155604E+04  0.11600605926E+04  0.17444317274E+03 0.  0.
        -24    2    5    5    0    0  0.13360431208E+03  0.31869710866E+02  0.99216221071E+03  0.10046040883E+04  0.77315789137E+02 0.  0.
          5    1    3    3  501    0  0.89111730659E+01 -0.65219158517E+02  0.14813312412E+03  0.16216799964E+03  0.47000000000E+01 0. -1.
        -11    1    4    4    0    0 -0.23755841705E+02 -0.12755534849E+02  0.10646195019E+03  0.10982345160E+03  0.00000000000E+00 0.  1.
         12    1    4    4    0    0 -0.11467941852E+03 -0.12741945658E+02  0.98438152775E+02  0.15167002385E+03  0.00000000000E+00 0. -1.
         -5    1    5    5    0  502 -0.40802249121E+01  0.58846928158E+02  0.14375334967E+03  0.15545650430E+03  0.47000000000E+01 0.  1.
         13    1    6    6    0    0  0.68719560675E+02  0.51375914190E+02  0.43884326600E+03  0.44715240656E+03  0.00000000000E+00 0. -1.
        -14    1    6    6    0    0  0.64884751400E+02 -0.19506203325E+02  0.55331894471E+03  0.55745168177E+03  0.00000000000E+00 0.  1.
</event>
<event>
12    1  0.8271773E-002  0.1821647E+03  0.7818608E-02  0.1165770E+00
         21   -1    0    0  501  502  0.00000000000E+00  0.00000000000E+00  0.21867543743E+03  0.21867543743E+03  0.00000000000E+00 0.  1.
         21   -1    0    0  502  503 -0.00000000000E+00 -0.00000000000E+00 -0.15185794986E+03  0.15185794986E+03  0.00000000000E+00 0.  1.
         -6    2    1    2    0  503  0.25049963576E+02  0.53564729490E+02  0.41169661966E+02  0.18657205796E+03  0.17209738762E+03 0.  0.
        -24    2    3    3    0    0  0.30251675505E+02  0.97105291383E+02  0.25614652234E+02  0.13980789792E+03  0.92442070645E+02 0.  0.
          6    2    1    2  501    0 -0.25049963576E+02 -0.53564729490E+02  0.25647825602E+02  0.18396132932E+03  0.17229996752E+03 0.  0.
         24    2    5    5    0    0 -0.63658081406E+02  0.96017030924E+01  0.20233206373E+02  0.10958395999E+03  0.86340706602E+02 0.  0.
          5    1    5    5  501    0  0.38608117830E+02 -0.63166432583E+02  0.54146192293E+01  0.74377369334E+02  0.47000000000E+01 0. -1.
        -11    1    6    6    0    0 -0.22360281380E+02 -0.31710682259E+02  0.31640099802E+02  0.50066410578E+02  0.00000000000E+00 0.  1.
         12    1    6    6    0    0 -0.41297800026E+02  0.41312385351E+02 -0.11406893429E+02  0.59517549413E+02  0.00000000000E+00 0. -1.
         -5    1    3    3    0  503 -0.52017119288E+01 -0.43540561893E+02  0.15555009731E+02  0.46764160045E+02  0.47000000000E+01 0.  1.
         11    1    4    4    0    0  0.41465967935E+02  0.45824110572E+02  0.52264561360E+02  0.80937383085E+02  0.00000000000E+00 0. -1.
        -12    1    4    4    0    0 -0.11214292430E+02  0.51281180811E+02 -0.26649909125E+02  0.58870514831E+02  0.00000000000E+00 0.  1.
</event>
<event>
12    1  0.8271773E-002  0.3881492E+03  0.7818608E-02  0.1048005E+00
         21   -1    0    0  503  502  0.00000000000E+00  0.00000000000E+00  0.34107267308E+03  0.34107267308E+03  0.00000000000E+00 0.  1.
         21   -1    0    0  501  503 -0.00000000000E+00 -0.00000000000E+00 -0.47562927922E+03  0.47562927922E+03  0.00000000000E+00 0. -1.
          6    2    1    2  501    0 -0.78146954320E+02  0.33824444277E+03 -0.17712636330E+03  0.42622536392E+03  0.17256321374E+03 0.  0.
         24    2    3    3    0    0 -0.37426456309E+02  0.62955200474E+02 -0.35564745356E+02  0.11396888671E+03  0.79749351892E+02 0.  0.
         -6    2    1    2    0  502  0.78146954320E+02 -0.33824444277E+03  0.42569757160E+02  0.39047658838E+03  0.17361892843E+03 0.  0.
        -24    2    5    5    0    0  0.72611986717E+02 -0.11816281543E+03 -0.18908305368E+02  0.16185419067E+03  0.81266865695E+02 0.  0.
          5    1    3    3  501    0 -0.40720498011E+02  0.27528924230E+03 -0.14156161795E+03  0.31225647721E+03  0.47000000000E+01 0. -1.
        -13    1    4    4    0    0 -0.51614412940E+02  0.93457631248E+01 -0.12593310337E+02  0.53944252491E+02  0.00000000000E+00 0.  1.
         14    1    4    4    0    0  0.14187956632E+02  0.53609437350E+02 -0.22971435019E+02  0.60024634219E+02  0.00000000000E+00 0. -1.
         -5    1    5    5    0  502  0.55349676023E+01 -0.22008162735E+03  0.61478062528E+02  0.22862239771E+03  0.47000000000E+01 0.  1.
         11    1    6    6    0    0 -0.75496429475E+01 -0.13280292555E+02 -0.25451104979E+02  0.29683699629E+02  0.00000000000E+00 0. -1.
        -12    1    6    6    0    0  0.80161629665E+02 -0.10488252287E+03  0.65427996114E+01  0.13217049104E+03  0.00000000000E+00 0.  1.
</event>
<event>
12    1  0.8271773E-002  0.2092422E+03  0.7818608E-02  0.1142223E+00
         21   -1    0    0  503  502  0.00000000000E+00  0.00000000000E+00  0.85289490462E+03  0.85289490462E+03  0.00000000000E+00 0.  1.
         21   -1    0    0  501  503 -0.00000000000E+00 -0.00000000000E+00 -0.10185447660E+03  0.10185447660E+03  0.00000000000E+00 0. -1.
          6    2    1    2  501    0  0.92361785545E+02  0.73632444192E+02  0.38962123161E+02  0.21256489804E+03  0.17237561478E+03 0.  0.
         24    2    3    3    0    0  0.10230802417E+03  0.43602240832E+02  0.83341112627E+02  0.15786274559E+03  0.74878689741E+02 0.  0.
         -6    2    1    2    0  502 -0.92361785545E+02 -0.73632444192E+02  0.71207830486E+03  0.74218448318E+03  0.17271322635E+03 0.  0.
        -24    2    5    5    0    0 -0.23215991773E+02 -0.21786059023E+02  0.56442839139E+03  0.57103608150E+03  0.80555463642E+02 0.  0.
          5    1    3    3  501    0 -0.99462386238E+01  0.30030203359E+02 -0.44378989466E+02  0.54702152449E+02  0.47000000000E+01 0. -1.
        -13    1    4    4    0    0  0.28037435168E+02 -0.21310770817E+02  0.25912841266E+02  0.43723244002E+02  0.00000000000E+00 0.  1.
         14    1    4    4    0    0  0.74270589000E+02  0.64913011649E+02  0.57428271361E+02  0.11413950159E+03  0.00000000000E+00 0. -1.
         -5    1    5    5    0  502 -0.69145793772E+02 -0.51846385169E+02  0.14764991346E+03  0.17114840168E+03  0.47000000000E+01 0.  1.
         13    1    6    6    0    0  0.21131320417E+02 -0.10703773303E+01  0.50110417712E+02  0.54394231068E+02  0.00000000000E+00 0. -1.
        -14    1    6    6    0    0 -0.44347312190E+02 -0.20715681692E+02  0.51431797368E+03  0.51664185043E+03  0.00000000000E+00 0.  1.
</event>
<event>
12    1  0.8271773E-002  0.2173004E+03  0.7818608E-02  0.1136017E+00
         21   -1    0    0  501  502  0.00000000000E+00  0.00000000000E+00  0.72064757998E+03  0.72064757998E+03  0.00000000000E+00 0. -1.
         21   -1    0    0  502  503 -0.00000000000E+00 -0.00000000000E+00 -0.15375413153E+03  0.15375413153E+03  0.00000000000E+00 0. -1.
         -6    2    1    2    0  503 -0.33876980137E+02 -0.12888761792E+03 -0.47902669391E+02  0.22251767013E+03  0.17163851535E+03 0.  0.
        -24    2    3    3    0    0  0.20828395572E+02 -0.33251657726E+02 -0.65561262982E+02  0.11083584108E+03  0.80292027379E+02 0.  0.
          6    2    1    2  501    0  0.33876980137E+02  0.12888761792E+03  0.61479611784E+03  0.65188404138E+03  0.17093527739E+03 0.  0.
         24    2    5    5    0    0  0.22917637075E+02  0.13381908265E+03  0.61871166419E+03  0.63839893671E+03  0.79475241581E+02 0.  0.
          5    1    5    5  501    0  0.10959343062E+02 -0.49314647326E+01 -0.39155463436E+01  0.13485104669E+02  0.47000000000E+01 0. -1.
        -11    1    6    6    0    0  0.22095924802E+01  0.85754566241E+02  0.21778069251E+03  0.23406656737E+03  0.00000000000E+00 0.  1.
         12    1    6    6    0    0  0.20708044595E+02  0.48064516410E+02  0.40093097168E+03  0.40433236934E+03  0.00000000000E+00 0. -1.
         -5    1    3    3    0  503 -0.54705375709E+02 -0.95635960192E+02  0.17658593591E+02  0.11168182905E+03  0.47000000000E+01 0.  1.
         11    1    4    4    0    0 -0.27722321406E+02 -0.17742635430E+02 -0.78435869581E+01  0.33835633177E+02  0.00000000000E+00 0. -1.
        -12    1    4    4    0    0  0.48550716977E+02 -0.15509022296E+02 -0.57717676023E+02  0.77000207903E+02  0.00000000000E+00 0.  1.
</event>
<event>
12    1  0.8271773E-002  0.1787532E+03  0.7818608E-02  0.1170293E+00
         21   -1    0    0  501  502  0.00000000000E+00  0.00000000000E+00  0.13815126495E+03  0.13815126495E+03  0.00000000000E+00 0. -1.
         21   -1    0    0  502  503 -0.00000000000E+00 -0.00000000000E+00 -0.24123194462E+03  0.24123194462E+03  0.00000000000E+00 0. -1.
         -6    2    1    2    0  503  0.22535595029E+01  0.40909557552E+02 -0.10193765590E+03  0.20577655387E+03  0.17399435049E+03 0.  0.
        -24    2    3    3    0    0 -0.35559246164E+02  0.10070698186E+02 -0.12413421897E+03  0.15196557979E+03  0.79488075645E+02 0.  0.
          6    2    1    2  501    0 -0.22535595029E+01 -0.40909557552E+02 -0.11430237713E+01  0.17360665571E+03  0.16869882624E+03 0.  0.
         24    2    5    5    0    0  0.52580305228E+02  0.47998699128E+00 -0.43512908797E+02  0.92754047364E+02  0.62809403636E+02 0.  0.
          5    1    5    5  501    0 -0.54833864731E+02 -0.41389544543E+02  0.42369885026E+02  0.80852608343E+02  0.47000000000E+01 0. -1.
        -13    1    6    6    0    0  0.22216674971E+02  0.23175606598E+02  0.35753960547E+01  0.32302830292E+02  0.00000000000E+00 0.  1.
         14    1    6    6    0    0  0.30363630257E+02 -0.22695619606E+02 -0.47088304852E+02  0.60451217072E+02  0.00000000000E+00 0. -1.
         -5    1    3    3    0  503  0.37812805667E+02  0.30838859365E+02  0.22196563074E+02  0.53810974082E+02  0.47000000000E+01 0.  1.
         11    1    4    4    0    0 -0.11952821909E+02  0.29786134621E+02 -0.97866220940E+01  0.33553863254E+02  0.00000000000E+00 0. -1.
        -12    1    4    4    0    0 -0.23606424255E+02 -0.19715436435E+02 -0.11434759688E+03  0.11841171653E+03  0.00000000000E+00 0.  1.
</event>
<event>
12    1  0.8271773E-002  0.1801713E+03  0.7818608E-02  0.1169740E+00
         21   -1    0    0  501  502  0.00000000000E+00  0.00000000000E+00  0.41315954313E+02  0.41315954313E+02  0.00000000000E+00 0.  1.
         21   -1    0    0  502  503 -0.00000000000E+00 -0.00000000000E+00 -0.93077248492E+03  0.93077248492E+03  0.00000000000E+00 0.  1.
         -6    2    1    2    0  503  0.10699690002E+02 -0.51924205199E+02 -0.22144871448E+03  0.28020974161E+03  0.16330143813E+03 0.  0.
        -24    2    3    3    0    0  0.24688531599E+02  0.86997793878E+01 -0.51947321103E+02  0.99589234595E+02  0.80834904117E+02 0.  0.
          6    2    1    2  501    0 -0.10699690002E+02  0.51924205199E+02 -0.66800781613E+03  0.69187869762E+03  0.17219489937E+03 0.  0.
         24    2    5    5    0    0  0.18511975659E+02  0.76733975230E+02 -0.27644393284E+03  0.29841559797E+03  0.79998905665E+02 0.  0.
          5    1    5    5  501    0 -0.29211665661E+02 -0.24809770031E+02 -0.39156388329E+03  0.39346309966E+03  0.47000000000E+01 0. -1.
        -11    1    6    6    0    0 -0.49343605490E+01  0.60531991687E+02 -0.25659646514E+03  0.26368582793E+03  0.00000000000E+00 0.  1.
         12    1    6    6    0    0  0.23446336208E+02  0.16201983543E+02 -0.19847467702E+02  0.34729770032E+02  0.00000000000E+00 0. -1.
         -5    1    3    3    0  503 -0.13988841597E+02 -0.60623984587E+02 -0.16950139338E+03  0.18062050701E+03  0.47000000000E+01 0.  1.
         13    1    4    4    0    0  0.40279092375E+02 -0.34186114226E+01 -0.64550653096E+02  0.76163501769E+02  0.00000000000E+00 0. -1.
        -14    1    4    4    0    0 -0.15590560776E+02  0.12118390810E+02  0.12603331993E+02  0.23425732826E+02  0.00000000000E+00 0.  1.
</event>
<event>
12    1  0.8271773E-002  0.2002498E+03  0.7818608E-02  0.1149928E+00
         21   -1    0    0  503  502  0.00000000000E+00  0.00000000000E+00  0.26640656665E+03  0.26640656665E+03  0.00000000000E+00 0.  1.
         21   -1    0    0  501  503 -0.00000000000E+00 -0.00000000000E+00 -0.16850400844E+03  0.16850400844E+03  0.00000000000E+00 0.  1.
          6    2    1    2  501    0  0.69716385913E+02  0.68943395063E+02 -0.25033203751E+02  0.19993568537E+03  0.17243564251E+03 0.  0.
         24    2    3    3    0    0  0.89008416269E+02  0.12294223161E+01 -0.45119959793E+02  0.12656721593E+03  0.77842403161E+02 0.  0.
         -6    2    1    2    0  502 -0.69716385913E+02 -0.68943395063E+02  0.12293576196E+03  0.23497488972E+03  0.17460363982E+03 0.  0.
        -24    2    5    5    0    0  0.24541152160E+01 -0.61371437659E+02  0.15343499904E+02  0.10511303763E+03  0.83909782793E+02 0.  0.
          5    1    3    3  501    0 -0.19292030356E+02  0.67713972747E+02  0.20086756042E+02  0.73368469445E+02  0.47000000000E+01 0. -1.
        -11    1    4    4    0    0  0.30944316075E+01  0.45324314896E+01 -0.40067324137E+02  0.40441425614E+02  0.00000000000E+00 0.  1.
         12    1    4    4    0    0  0.85913984661E+02 -0.33030091735E+01 -0.50526356560E+01  0.86125790313E+02  0.00000000000E+00 0. -1.
         -5    1    5    5    0  502 -0.72170501129E+02 -0.75719574040E+01  0.10759226206E+03  0.12986185209E+03  0.47000000000E+01 0.  1.
         13    1    6    6    0    0  0.15498242683E+02  0.17288522044E+02  0.97517393188E+01  0.25183028818E+02  0.00000000000E+00 0. -1.
        -14    1    6    6    0    0 -0.13044127467E+02 -0.78659959704E+02  0.55917605856E+01  0.79930008810E+02  0.00000000000E+00 0.  1.
</event>
<event>
12    1  0.8271773E-002  0.2599345E+03  0.7818608E-02  0.1107842E+00
         21   -1    0    0  501  502  0.00000000000E+00  0.00000000000E+00  0.49613113484E+03  0.49613113484E+03  0.00000000000E+00 0. -1.
         21   -1    0    0  502  503 -0.00000000000E+00 -0.00000000000E+00 -0.23931302283E+03  0.23931302283E+03  0.00000000000E+00 0. -1.
         -6    2    1    2    0  503 -0.10977068673E+03  0.15323741735E+03 -0.11622489690E+03  0.28077172566E+03  0.17260714217E+03 0.  0.
        -24    2    3    3    0    0 -0.46145767582E+02  0.16747476514E+03 -0.79391291682E+02  0.20574081948E+03  0.76479270255E+02 0.  0.
          6    2    1    2  501    0  0.10977068673E+03 -0.15323741735E+03  0.37304300891E+03  0.45467243201E+03  0.17898218959E+03 0.  0.
         24    2    5    5    0    0  0.30083309752E+02 -0.22203419266E+02  0.22209146379E+03  0.23943199511E+03  0.81271548770E+02 0.  0.
          5    1    5    5  501    0  0.79687376979E+02 -0.13103399808E+03  0.15095154512E+03  0.21524043690E+03  0.47000000000E+01 0. -1.
        -11    1    6    6    0    0  0.46511807119E+02 -0.38550463040E+02  0.11544063487E+03  0.13029208181E+03  0.00000000000E+00 0.  1.
         12    1    6    6    0    0 -0.16428497367E+02  0.16347043774E+02  0.10665082892E+03  0.10913991330E+03  0.00000000000E+00 0. -1.
         -5    1    3    3    0  503 -0.63624919148E+02 -0.14237347796E+02 -0.36833605222E+02  0.75030906183E+02  0.47000000000E+01 0.  1.
         11    1    4    4    0    0 -0.42718068862E+02  0.46366835376E+02 -0.51522621446E+02  0.81420497117E+02  0.00000000000E+00 0. -1.
        -12    1    4    4    0    0 -0.34276987198E+01  0.12110792977E+03 -0.27868670236E+02  0.12432032236E+03  0.00000000000E+00 0.  1.
</event>
<event>
12    1  0.8271773E-002  0.1936276E+03  0.7818608E-02  0.1155275E+00
         21   -1    0    0  501  502  0.00000000000E+00  0.00000000000E+00  0.14021712795E+03  0.14021712795E+03  0.00000000000E+00 0.  1.
         21   -1    0    0  502  503 -0.00000000000E+00 -0.00000000000E+00 -0.27233653426E+03  0.27233653426E+03  0.00000000000E+00 0.  1.
         -6    2    1    2    0  503 -0.57990016791E+02 -0.67530688591E+02 -0.94626747818E+02  0.21532955134E+03  0.17172465848E+03 0.  0.
        -24    2    3    3    0    0 -0.96161862890E+02 -0.10732042547E+02 -0.52842769044E+02  0.13501039479E+03  0.77930532198E+02 0.  0.
          6    2    1    2  501    0  0.57990016791E+02  0.67530688591E+02 -0.37492658496E+02  0.19722411087E+03  0.17195468740E+03 0.  0.
         24    2    5    5    0    0  0.24549207799E+02 -0.21151353115E+02  0.16078114922E+02  0.88252967942E+02  0.80498678430E+02 0.  0.
          5    1    5    5  501    0  0.33440808992E+02  0.88682041706E+02 -0.53570773418E+02  0.10897114293E+03  0.47000000000E+01 0. -1.
        -13    1    6    6    0    0  0.35428074449E+02  0.18119692479E+02 -0.84642380474E+01  0.40683105098E+02  0.00000000000E+00 0.  1.
         14    1    6    6    0    0 -0.10878866651E+02 -0.39271045595E+02  0.24542352969E+02  0.47569862844E+02  0.00000000000E+00 0. -1.
         -5    1    3    3    0  503  0.38171846099E+02 -0.56798646044E+02 -0.41783978774E+02  0.80319156552E+02  0.47000000000E+01 0.  1.
         11    1    4    4    0    0 -0.78615279663E+01  0.21188949274E+02 -0.31420949083E+02  0.38704666833E+02  0.00000000000E+00 0. -1.
        -12    1    4    4    0    0 -0.88300334924E+02 -0.31920991821E+02 -0.21421819961E+02  0.96305727955E+02  0.00000000000E+00 0.  1.
</event>
<event>
12    1  0.8271773E-002  0.1801127E+03  0.7818608E-02  0.1167827E+00
         21   -1    0    0  503  502  0.00000000000E+00  0.00000000000E+00  0.17448422426E+03  0.17448422426E+03  0.00000000000E+00 0. -1.
         21   -1    0    0  501  503 -0.00000000000E+00 -0.00000000000E+00 -0.21990906087E+03  0.21990906087E+03  0.00000000000E+00 0.  1.
          6    2    1    2  501    0  0.55932310008E+02  0.76521974528E+01 -0.10084750629E+03  0.20594628030E+03  0.17046017545E+03 0.  0.
         24    2    3    3    0    0  0.48542578023E+02 -0.43215060802E+02  0.11164199334E+02  0.82614215129E+02  0.49764905640E+02 0.  0.
         -6    2    1    2    0  502 -0.55932310008E+02 -0.76521974528E+01  0.55422669680E+02  0.18844700484E+03  0.17103690213E+03 0.  0.
        -24    2    5    5    0    0 -0.38254789948E+02 -0.70590804269E+02  0.58922448441E+02  0.12281087611E+03  0.71862130212E+02 0.  0.
          5    1    3    3  501    0  0.73897319849E+01  0.50867258255E+02 -0.11201170563E+03  0.12333206517E+03  0.47000000000E+01 0. -1.
        -13    1    4    4    0    0  0.28498876377E+02 -0.43204704048E+02 -0.10807304561E+02  0.52873719734E+02  0.00000000000E+00 0.  1.
         14    1    4    4    0    0  0.20043701646E+02 -0.10356753784E-01  0.21971503895E+02  0.29740495395E+02  0.00000000000E+00 0. -1.
         -5    1    5    5    0  502 -0.17677520060E+02  0.62938606817E+02 -0.34997787609E+01  0.65636128731E+02  0.47000000000E+01 0.  1.
         11    1    6    6    0    0 -0.52617928943E+02 -0.21956918009E+02  0.32553911649E+02  0.65654473255E+02  0.00000000000E+00 0. -1.
        -12    1    6    6    0    0  0.14363138995E+02 -0.48633886260E+02  0.26368536791E+02  0.57156402853E+02  0.00000000000E+00 0.  1.
</event>
<event>
12    1  0.8271773E-002  0.1781991E+03  0.7818608E-02  0.1169590E+00
         21   -1    0    0  503  502  0.00000000000E+00  0.00000000000E+00  0.41414597166E+03  0.41414597166E+03  0.00000000000E+00 0.  1.
         21   -1    0    0  501  503 -0.00000000000E+00 -0.00000000000E+00 -0.11911693999E+03  0.11911693999E+03  0.00000000000E+00 0. -1.
          6    2    1    2  501    0 -0.34079423828E+02  0.45326940532E+02 -0.11784426004E+02  0.17845392729E+03  0.16879275104E+03 0.  0.
         24    2    3    3    0    0  0.36383454232E+02  0.13878148024E+02  0.20285011297E+02  0.94760543183E+02  0.83974520699E+02 0.  0.
         -6    2    1    2    0  502  0.34079423828E+02 -0.45326940532E+02  0.30681345768E+03  0.35480898436E+03  0.16893483627E+03 0.  0.
        -24    2    5    5    0    0 -0.45379895211E+01 -0.81068183500E+02  0.26114524956E+03  0.28497764258E+03  0.80142196605E+02 0.  0.
          5    1    3    3  501    0 -0.70462878061E+02  0.31448792507E+02 -0.32069437300E+02  0.83693384108E+02  0.47000000000E+01 0. -1.
        -11    1    4    4    0    0 -0.50781519690E+01  0.33842012463E+02  0.32452200562E+02  0.47161581359E+02  0.00000000000E+00 0.  1.
         12    1    4    4    0    0  0.41461606201E+02 -0.19963864439E+02 -0.12167189265E+02  0.47598961824E+02  0.00000000000E+00 0. -1.
         -5    1    5    5    0  502  0.38617413349E+02  0.35741242968E+02  0.45668208111E+02  0.69831341780E+02  0.47000000000E+01 0.  1.
         11    1    6    6    0    0  0.20790476337E+02 -0.48790831714E+02  0.61724395274E+02  0.81379912371E+02  0.00000000000E+00 0. -1.
        -12    1    6    6    0    0 -0.25328465858E+02 -0.32277351786E+02  0.19942085429E+03  0.20359773021E+03  0.00000000000E+00 0.  1.
</event>
<event>
12    1  0.8271773E-002  0.2383753E+03  0.7818608E-02  0.1121017E+00
         21   -1    0    0  501  502  0.00000000000E+00  0.00000000000E+00  0.63592108278E+02  0.63592108278E+02  0.00000000000E+00 0.  1.
         21   -1    0    0  502  503 -0.00000000000E+00 -0.00000000000E+00 -0.12466063694E+04  0.12466063694E+04  0.00000000000E+00 0. -1.
         -6    2    1    2    0  503  0.12721591713E+03 -0.10792133053E+03 -0.94091420245E+03  0.97044085227E+03  0.16913015174E+03 0.  0.
        -24    2    3    3    0    0  0.27536664980E+01 -0.23238794154E+02 -0.40342770373E+03  0.41225109053E+03  0.81544008226E+02 0.  0.
          6    2    1    2  501    0 -0.12721591713E+03  0.10792133053E+03 -0.24210005864E+03  0.33975762538E+03  0.17027008678E+03 0.  0.
         24    2    5    5    0    0 -0.52559056810E+02  0.95125826614E+02 -0.66361042570E+02  0.14833227836E+03  0.76074302424E+02 0.  0.
          5    1    5    5  501    0 -0.74656860317E+02  0.12795503920E+02 -0.17573901607E+03  0.19142534702E+03  0.47000000000E+01 0. -1.
        -13    1    6    6    0    0 -0.67372306295E+02  0.92660411353E+02 -0.47001035667E+02  0.12383083962E+03  0.00000000000E+00 0.  1.
         14    1    6    6    0    0  0.14813249486E+02  0.24654152617E+01 -0.19360006904E+02  0.24501438734E+02  0.00000000000E+00 0. -1.
         -5    1    3    3    0  503  0.12446225063E+03 -0.84682536381E+02 -0.53748649872E+03  0.55818976174E+03  0.47000000000E+01 0.  1.
         11    1    4    4    0    0  0.35268678123E+01  0.26568790151E+02 -0.23749536795E+03  0.23900290626E+03  0.00000000000E+00 0. -1.
        -12    1    4    4    0    0 -0.77320131428E+00 -0.49807584305E+02 -0.16593233578E+03  0.17324818427E+03  0.00000000000E+00 0.  1.
</event>
<event>
12    1  0.8271773E-002  0.2732845E+03  0.7818608E-02  0.1100962E+00
         21   -1    0    0  503  502  0.00000000000E+00  0.00000000000E+00  0.14062903494E+04  0.14062903494E+04  0.00000000000E+00 0. -1.
         21   -1    0    0  501  503 -0.00000000000E+00 -0.00000000000E+00 -0.63692811305E+02  0.63692811305E+02  0.00000000000E+00 0.  1.
          6    2    1    2  501    0  0.19679830758E+03 -0.90338823958E+00  0.33294722914E+03  0.42400124513E+03  0.17376077954E+03 0.  0.
         24    2    3    3    0    0  0.20580126007E+03  0.25653068908E+02  0.32676081252E+03  0.39490381706E+03  0.78512148944E+02 0.  0.
         -6    2    1    2    0  502 -0.19679830758E+03  0.90338823958E+00  0.10096503090E+04  0.10459819156E+04  0.18961548292E+03 0.  0.
        -24    2    5    5    0    0 -0.78139615632E+01  0.80403086046E+01  0.23338834085E+03  0.24700084459E+03  0.80084923827E+02 0.  0.
          5    1    3    3  501    0 -0.90029524966E+01 -0.26556457148E+02  0.61864166132E+01  0.29097428072E+02  0.47000000000E+01 0. -1.
        -11    1    4    4    0    0  0.14559602792E+03  0.42408839906E+02  0.17982966416E+03  0.23523482132E+03  0.00000000000E+00 0.  1.
         12    1    4    4    0    0  0.60205232151E+02 -0.16755770998E+02  0.14693114837E+03  0.15966899574E+03  0.00000000000E+00 0. -1.
         -5    1    5    5    0  502 -0.18898434601E+03 -0.71369203650E+01  0.77626196813E+03  0.79898107101E+03  0.47000000000E+01 0.  1.
         11    1    6    6    0    0  0.16742348089E+02  0.28071012974E+02  0.43098715951E+02  0.54090547285E+02  0.00000000000E+00 0. -1.
        -12    1    6    6    0    0 -0.24556309652E+02 -0.20030704370E+02  0.19028962490E+03  0.19291029730E+03  0.00000000000E+00 0.  1.
</event>
<event>
12    1  0.8271773E-002  0.2028513E+03  0.7818608E-02  0.1147379E+00
         21   -1    0    0  501  502  0.00000000000E+00  0.00000000000E+00  0.22330281137E+02  0.22330281137E+02  0.00000000000E+00 0. -1.
         21   -1    0    0  502  503 -0.00000000000E+00 -0.00000000000E+00 -0.19638971617E+04  0.19638971617E+04  0.00000000000E+00 0. -1.
         -6    2    1    2    0  503 -0.10594046540E+03  0.19185208917E+02 -0.12182651728E+04  0.12350190786E+04  0.17178660817E+03 0.  0.
        -24    2    3    3    0    0 -0.44258364454E+02  0.57057733392E+02 -0.98070008627E+03  0.98662771394E+03  0.80294451551E+02 0.  0.
          6    2    1    2  501    0  0.10594046540E+03 -0.19185208917E+02 -0.72330170782E+03  0.75120836432E+03  0.17192205104E+03 0.  0.
         24    2    5    5    0    0  0.11911042313E+02  0.36513326740E+02 -0.40289479911E+03  0.41264295494E+03  0.80466720755E+02 0.  0.
          5    1    5    5  501    0  0.94029423082E+02 -0.55698535657E+02 -0.32040690871E+03  0.33856540938E+03  0.47000000000E+01 0. -1.
        -11    1    6    6    0    0 -0.54422778050E+00 -0.11554283477E+01  0.38044521781E+01  0.40131103797E+01  0.00000000000E+00 0.  1.
         12    1    6    6    0    0  0.12455270094E+02  0.37668755088E+02 -0.40669925129E+03  0.40862984456E+03  0.00000000000E+00 0. -1.
         -5    1    3    3    0  503 -0.61682100941E+02 -0.37872524475E+02 -0.23756508652E+03  0.24839136462E+03  0.47000000000E+01 0.  1.
         13    1    4    4    0    0 -0.53791295219E+02  0.57588481579E+02 -0.52999024965E+03  0.53581676100E+03  0.00000000000E+00 0. -1.
        -14    1    4    4    0    0  0.95329307653E+01 -0.53074818693E+00 -0.45070983662E+03  0.45081095294E+03  0.00000000000E+00 0.  1.
</event>
<event>
12    1  0.8271773E-002  0.2555976E+03  0.7818608E-02  0.1109947E+00
         21   -1    0    0  503  502  0.00000000000E+00  0.00000000000E+00  0.46269973994E+03  0.46269973994E+03  0.00000000000E+00 0. -1.
         21   -1    0    0  501  503 -0.00000000000E+00 -0.00000000000E+00 -0.14333184263E+03  0.14333184263E+03  0.00000000000E+00 0. -1.
          6    2    1    2  501    0 -0.17510770769E+03  0.73655850453E+02  0.20025711474E+03  0.32404306117E+03  0.16974421900E+03 0.  0.
         24    2    3    3    0    0 -0.30378453246E+02  0.22238878147E+02  0.20637324940E+02  0.87662814478E+02  0.76429390543E+02 0.  0.
         -6    2    1    2    0  502  0.17510770769E+03 -0.73655850453E+02  0.11911078257E+03  0.28198852141E+03  0.17100366687E+03 0.  0.
        -24    2    5    5    0    0  0.58175935522E+02 -0.93573194500E+02  0.78029512777E+02  0.15637203895E+03  0.78887435626E+02 0.  0.
          5    1    3    3  501    0 -0.14472925445E+03  0.51416972307E+02  0.17961978980E+03  0.23638024669E+03  0.47000000000E+01 0. -1.
        -13    1    4    4    0    0 -0.20500921410E+02  0.50905305266E+02  0.13374249063E+02  0.56484585693E+02  0.00000000000E+00 0.  1.
         14    1    4    4    0    0 -0.98775318365E+01 -0.28666427120E+02  0.72630758768E+01  0.31178228785E+02  0.00000000000E+00 0. -1.
         -5    1    5    5    0  502  0.11693177217E+03  0.19917344047E+02  0.41081269792E+02  0.12561648246E+03  0.47000000000E+01 0.  1.
         13    1    6    6    0    0  0.69742421006E+02 -0.99024623965E+02  0.62623764223E+02  0.13635108098E+03  0.00000000000E+00 0. -1.
        -14    1    6    6    0    0 -0.11566485484E+02  0.54514294648E+01  0.15405748554E+02  0.20020957973E+02  0.00000000000E+00 0.  1.
</event>
<event>
12    1  0.8271773E-002  0.2077147E+03  0.7818608E-02  0.1143504E+00
         21   -1    0    0  503  502  0.00000000000E+00  0.00000000000E+00  0.59863375776E+03  0.59863375776E+03  0.00000000000E+00 0. -1.
         21   -1    0    0  501  503 -0.00000000000E+00 -0.00000000000E+00 -0.81304670458E+02  0.81304670458E+02  0.00000000000E+00 0. -1.
          6    2    1    2  501    0 -0.94544495561E+02  0.68377693007E+02  0.14319361372E+03  0.25228910391E+03  0.17184647334E+03 0.  0.
         24    2    3    3    0    0 -0.18586585695E+02 -0.23266312660E+02  0.44225506107E+02  0.97418176455E+02  0.81532958003E+02 0.  0.
         -6    2    1    2    0  502  0.94544495561E+02 -0.68377693007E+02  0.37413547359E+03  0.42764932431E+03  0.17115028907E+03 0.  0.
        -24    2    5    5    0    0  0.44638496872E+02 -0.80256896420E-01  0.30620835618E+03  0.31906142553E+03  0.77743385696E+02 0.  0.
          5    1    3    3  501    0 -0.75957909866E+02  0.91644005666E+02  0.98968107613E+02  0.15487092745E+03  0.47000000000E+01 0. -1.
        -11    1    4    4    0    0 -0.35372231376E+02 -0.13994573746E+02  0.61034167388E+02  0.71918095328E+02  0.00000000000E+00 0.  1.
         12    1    4    4    0    0  0.16785645681E+02 -0.92717389133E+01 -0.16808661281E+02  0.25500081127E+02  0.00000000000E+00 0. -1.
         -5    1    5    5    0  502  0.49905998690E+02 -0.68297436110E+02  0.67927117406E+02  0.10858789879E+03  0.47000000000E+01 0.  1.
         13    1    6    6    0    0 -0.10779164709E+01  0.95475729072E+01  0.22625496227E+03  0.22645888370E+03  0.00000000000E+00 0. -1.
        -14    1    6    6    0    0  0.45716413343E+02 -0.96278298036E+01  0.79953393906E+02  0.92602541827E+02  0.00000000000E+00 0.  1.
</event>
<event>
12    1  0.8271773E-002  0.2122999E+03  0.7818608E-02  0.1140075E+00
         21   -1    0    0  501  502  0.00000000000E+00  0.00000000000E+00  0.18244334729E+03  0.18244334729E+03  0.00000000000E+00 0. -1.
         21   -1    0    0  502  503 -0.00000000000E+00 -0.00000000000E+00 -0.67871947279E+03  0.67871947279E+03  0.00000000000E+00 0. -1.
         -6    2    1    2    0  503 -0.53411871070E+01 -0.12383442230E+03 -0.59193347168E+03  0.62830754674E+03  0.17035740656E+03 0.  0.
        -24    2    3    3    0    0  0.48830307775E+02 -0.63894562183E+02 -0.45816248906E+03  0.47196144516E+03  0.79798654757E+02 0.  0.
          6    2    1    2  501    0  0.53411871070E+01  0.12383442230E+03  0.95657346175E+02  0.23285527335E+03  0.17235938623E+03 0.  0.
         24    2    5    5    0    0  0.18499259243E+01  0.40588382286E+02  0.11354899744E+03  0.14750720209E+03  0.84936216340E+02 0.  0.
          5    1    5    5  501    0  0.34912611827E+01  0.83246040016E+02 -0.17891651261E+02  0.85348071260E+02  0.47000000000E+01 0. -1.
        -13    1    6    6    0    0 -0.13866995331E+02 -0.46496494047E+01 -0.81367052590E+01  0.16736749134E+02  0.00000000000E+00 0.  1.
         14    1    6    6    0    0  0.15716921256E+02  0.45238031691E+02  0.12168570270E+03  0.13077045295E+03  0.00000000000E+00 0. -1.
         -5    1    3    3    0  503 -0.54171494882E+02 -0.59939860119E+02 -0.13377098262E+03  0.15634610158E+03  0.47000000000E+01 0.  1.
         11    1    4    4    0    0  0.52272352855E+02 -0.65678411559E+02 -0.24909630972E+03  0.26285932385E+03  0.00000000000E+00 0. -1.
        -12    1    4    4    0    0 -0.34420450795E+01  0.17838493757E+01 -0.20906617934E+03  0.20910212131E+03  0.00000000000E+00 0.  1.
</event>
<event>
12    1  0.8271773E-002  0.2316343E+03  0.7818608E-02  0.1125664E+00
         21   -1    0    0  503  502  0.00000000000E+00  0.00000000000E+00  0.21046769804E+03  0.21046769804E+03  0.00000000000E+00 0.  1.
         21   -1    0    0  501  503 -0.00000000000E+00 -0.00000000000E+00 -0.25939003774E+03  0.25939003774E+03  0.00000000000E+00 0.  1.
          6    2    1    2  501    0 -0.86824431297E+02 -0.13001434361E+03  0.98746605248E+01  0.23087750883E+03  0.16960160302E+03 0.  0.
         24    2    3    3    0    0 -0.99153082989E+01 -0.12663809403E+03  0.26079117586E+02  0.15206706098E+03  0.79427642935E+02 0.  0.
         -6    2    1    2    0  502  0.86824431297E+02  0.13001434361E+03 -0.58797000225E+02  0.23898022695E+03  0.17091591565E+03 0.  0.
        -24    2    5    5    0    0  0.10131335898E+03  0.15630257309E+03 -0.42282893697E+02  0.20439980259E+03  0.72777366909E+02 0.  0.
          5    1    3    3  501    0 -0.76909122998E+02 -0.33762495837E+01 -0.16204457061E+02  0.78810447850E+02  0.47000000000E+01 0. -1.
        -11    1    4    4    0    0 -0.27732430104E+02 -0.12700893010E+03  0.14483482510E+02  0.13080568516E+03  0.00000000000E+00 0.  1.
         12    1    4    4    0    0  0.17817121805E+02  0.37083607143E+00  0.11595635076E+02  0.21261375817E+02  0.00000000000E+00 0. -1.
         -5    1    5    5    0  502 -0.14488927683E+02 -0.26288229482E+02 -0.16514106528E+02  0.34580424363E+02  0.47000000000E+01 0.  1.
         13    1    6    6    0    0 -0.35722890658E+01  0.99489209499E+01 -0.20454934774E+02  0.23024913330E+02  0.00000000000E+00 0. -1.
        -14    1    6    6    0    0  0.10488564805E+03  0.14635365214E+03 -0.21827958923E+02  0.18137488926E+03  0.00000000000E+00 0.  1.
</event>
<event>
12    1  0.8271773E-002  0.2154765E+03  0.7818608E-02  0.1137516E+00
         21   -1    0    0  503  502  0.00000000000E+00  0.00000000000E+00  0.11125924810E+03  0.11125924810E+03  0.00000000000E+00 0. -1.
         21   -1    0    0  501  503 -0.00000000000E+00 -0.00000000000E+00 -0.52283881533E+03  0.52283881533E+03  0.00000000000E+00 0. -1.
          6    2    1    2  501    0  0.58014452835E+02 -0.11474535006E+03 -0.35010376558E+03  0.41109945653E+03  0.17291022060E+03 0.  0.
         24    2    3    3    0    0 -0.95694578035E-01 -0.89723608825E+02 -0.32401975685E+03  0.34250395902E+03  0.65343890138E+02 0.  0.
         -6    2    1    2    0  502 -0.58014452835E+02  0.11474535006E+03 -0.61475801647E+02  0.22299860691E+03  0.17151365075E+03 0.  0.
        -24    2    5    5    0    0 -0.70569566090E+02  0.14320367625E+02 -0.47879023055E+02  0.12077448864E+03  0.84314528230E+02 0.  0.
          5    1    3    3  501    0  0.58110147413E+02 -0.25021741240E+02 -0.26084008732E+02  0.68595497510E+02  0.47000000000E+01 0. -1.
        -11    1    4    4    0    0  0.16680553505E+02 -0.92462652812E+02 -0.27087344357E+03  0.28670543326E+03  0.00000000000E+00 0.  1.
         12    1    4    4    0    0 -0.16776248083E+02  0.27390439876E+01 -0.53146313281E+02  0.55798525761E+02  0.00000000000E+00 0. -1.
         -5    1    5    5    0  502  0.12555113255E+02  0.10042498244E+03 -0.13596778592E+02  0.10222411826E+03  0.47000000000E+01 0.  1.
         13    1    6    6    0    0 -0.45968076118E+02  0.45124533597E+02 -0.83613827120E+01  0.64955371411E+02  0.00000000000E+00 0. -1.
        -14    1    6    6    0    0 -0.24601489971E+02 -0.30804165971E+02 -0.39517640343E+02  0.55819117229E+02  0.00000000000E+00 0.  1.
</event>
<event>
12    1  0.8271773E-002  0.1936508E+03  0.7818608E-02  0.1155216E+00
         21   -1    0    0  501  502  0.00000000000E+00  0.00000000000E+00  0.46719177115E+03  0.46719177115E+03  0.00000000000E+00 0.  1.
         21   -1    0    0  502  503 -0.00000000000E+00 -0.00000000000E+00 -0.94101852162E+02  0.94101852162E+02  0.00000000000E+00 0.  1.
         -6    2    1    2    0  503  0.13710450465E+02 -0.86852975889E+02  0.78880384478E+02  0.20907226185E+03  0.17250414414E+03 0.  0.
        -24    2    3    3    0    0 -0.17256024156E+02 -0.86261926468E+02  0.11281874808E+03  0.16288596070E+03  0.77877313414E+02 0.  0.
          6    2    1    2  501    0 -0.13710450465E+02  0.86852975889E+02  0.29420953451E+03  0.35222136146E+03  0.17253759417E+03 0.  0.
         24    2    5    5    0    0  0.26601727502E+02  0.59823377148E+02  0.73959308382E+02  0.12663784476E+03  0.79250716519E+02 0.  0.
          5    1    5    5  501    0 -0.40312177967E+02  0.27029598740E+02  0.22025022613E+03  0.22558351671E+03  0.47000000000E+01 0. -1.
        -11    1    6    6    0    0  0.32361337797E+02  0.80075951232E+01  0.65942185531E+02  0.73890118394E+02  0.00000000000E+00 0.  1.
         12    1    6    6    0    0 -0.57596102946E+01  0.51815782025E+02  0.80171228508E+01  0.52747726363E+02  0.00000000000E+00 0. -1.
         -5    1    3    3    0  503  0.30966474621E+02 -0.59104942063E+00 -0.33938363607E+02  0.46186301153E+02  0.47000000000E+01 0.  1.
         13    1    4    4    0    0  0.12933980707E+02  0.88934449951E+01  0.63414275910E+01  0.16929114705E+02  0.00000000000E+00 0. -1.
        -14    1    4    4    0    0 -0.30190004863E+02 -0.95155371463E+02  0.10647732049E+03  0.14595684599E+03  0.00000000000E+00 0.  1.
</event>
<event>
12    1  0.8271773E-002  0.2062548E+03  0.7818608E-02  0.1144756E+00
         21   -1    0    0  501  502  0.00000000000E+00  0.00000000000E+00  0.11632018544E+03  0.11632018544E+03  0.00000000000E+00 0. -1.
         21   -1    0    0  502  503 -0.00000000000E+00 -0.00000000000E+00 -0.56977186620E+03  0.56977186620E+03  0.00000000000E+00 0. -1.
         -6    2    1    2    0  503  0.58994300357E+01  0.11417049055E+03 -0.43317496311E+03  0.47977241918E+03  0.17167213332E+03 0.  0.
        -24    2    3    3    0    0 -0.25597513962E+02  0.14281888459E+03 -0.33909568066E+03  0.37640032745E+03  0.75092338819E+02 0.  0.
          6    2    1    2  501    0 -0.58994300357E+01 -0.11417049055E+03 -0.20276717653E+02  0.20631963245E+03  0.17054894098E+03 0.  0.
         24    2    5    5    0    0  0.49865168267E+02 -0.91787146571E+02 -0.45927366608E+02  0.14081581345E+03  0.82512756790E+02 0.  0.
          5    1    5    5  501    0 -0.55764598303E+02 -0.22383343982E+02  0.25650648955E+02  0.65503818999E+02  0.47000000000E+01 0. -1.
        -11    1    6    6    0    0 -0.20198437247E+01 -0.26306930303E+02 -0.50679377740E+02  0.57136097861E+02  0.00000000000E+00 0.  1.
         12    1    6    6    0    0  0.51885011992E+02 -0.65480216267E+02  0.47520111321E+01  0.83679715592E+02  0.00000000000E+00 0. -1.
         -5    1    3    3    0  503  0.31496943998E+02 -0.28648394043E+02 -0.94079282449E+02  0.10337209173E+03  0.47000000000E+01 0.  1.
         13    1    4    4    0    0 -0.18987311411E+02  0.37146821800E+02 -0.35185996532E+02  0.54575257364E+02  0.00000000000E+00 0. -1.
        -14    1    4    4    0    0 -0.66102025512E+01  0.10567206280E+03 -0.30390968413E+03  0.32182507009E+03  0.00000000000E+00 0.  1.
</event>
<event>
12    1  0.8271773E-002  0.1882370E+03  0.7818608E-02  0.1161410E+00
         21   -1    0    0  503  502  0.00000000000E+00  0.00000000000E+00  0.11549258061E+03  0.11549258061E+03  0.00000000000E+00 0.  1.
         21   -1    0    0  501  503 -0.00000000000E+00 -0.00000000000E+00 -0.67381376618E+03  0.67381376618E+03  0.00000000000E+00 0.  1.
          6    2    1    2  501    0 -0.47464303459E+02 -0.37924808737E+02 -0.57604714154E+03  0.60602266726E+03  0.17816288259E+03 0.  0.
         24    2    3    3    0    0  0.87691318026E+01 -0.22447578265E+00 -0.48796345110E+03  0.49482760951E+03  0.81664468774E+02 0.  0.
         -6    2    1    2    0  502  0.47464303459E+02  0.37924808737E+02  0.17725955979E+02  0.18328367953E+03  0.17201030913E+03 0.  0.
        -24    2    5    5    0    0  0.70890103421E+02  0.33741159411E+02  0.65745639896E+02  0.12948543542E+03  0.79247184301E+02 0.  0.
          5    1    3    3  501    0 -0.56233435262E+02 -0.37700332954E+02 -0.88083690444E+02  0.11119505775E+03  0.47000000000E+01 0. -1.
        -11    1    4    4    0    0 -0.45436970077E+01 -0.30393580622E+02 -0.82709105441E+02  0.88233842988E+02  0.00000000000E+00 0.  1.
         12    1    4    4    0    0  0.13312828810E+02  0.30169104839E+02 -0.40525434566E+03  0.40659376652E+03  0.00000000000E+00 0. -1.
         -5    1    5    5    0  502 -0.23425799962E+02  0.41836493257E+01 -0.48019683917E+02  0.53798244107E+02  0.47000000000E+01 0.  1.
         13    1    6    6    0    0  0.58706677360E+02  0.28135528883E+01  0.34491244938E+01  0.58875177335E+02  0.00000000000E+00 0. -1.
        -14    1    6    6    0    0  0.12183426061E+02  0.30927606523E+02  0.62296515402E+02  0.70610258087E+02  0.00000000000E+00 0.  1.
</event>
<event>
12    1  0.8271773E-002  0.2185020E+03  0.7818608E-02  0.1135222E+00
         21   -1    0    0  503  502  0.00000000000E+00  0.00000000000E+00  0.24756390667E+03  0.24756390667E+03  0.00000000000E+00 0. -1.
         21   -1    0    0  501  503 -0.00000000000E+00 -0.00000000000E+00 -0.39503930696E+03  0.39503930696E+03  0.00000000000E+00 0.  1.
          6    2    1    2  501    0  0.12497956362E+03  0.47902392778E+02 -0.30427164468E+03  0.37459891232E+03  0.17270952723E+03 0.  0.
         24    2    3    3    0    0  0.11669389345E+03  0.94466790026E+02 -0.25413402269E+03  0.30551370000E+03  0.78823094430E+02 0.  0.
         -6    2    1    2    0  502 -0.12497956362E+03 -0.47902392778E+02  0.15679624439E+03  0.26800430132E+03  0.17125043858E+03 0.  0.
        -24    2    5    5    0    0 -0.10745237578E+03 -0.55834118076E+02  0.41962149889E+02  0.15147501813E+03  0.80748977042E+02 0.  0.
          5    1    3    3  501    0  0.82856701717E+01 -0.46564397249E+02 -0.50137621995E+02  0.69085212315E+02  0.47000000000E+01 0. -1.
        -13    1    4    4    0    0  0.39553038889E+02  0.37275761159E+01 -0.11864997578E+03  0.12512455579E+03  0.00000000000E+00 0.  1.
         14    1    4    4    0    0  0.77140854558E+02  0.90739213910E+02 -0.13548404691E+03  0.18038914421E+03  0.00000000000E+00 0. -1.
         -5    1    5    5    0  502 -0.17527187840E+02  0.79317252985E+01  0.11483409450E+03  0.11652928318E+03  0.47000000000E+01 0.  1.
         13    1    6    6    0    0 -0.75669002883E+02 -0.31159977761E+02  0.65535774573E+02  0.10484121308E+03  0.00000000000E+00 0. -1.
        -14    1    6    6    0    0 -0.31783372896E+02 -0.24674140315E+02 -0.23573624684E+02  0.46633805052E+02  0.00000000000E+00 0.  1.
</event>
<event>
12    1  0.8271773E-002  0.1934891E+03  0.7818608E-02  0.1155423E+00
         21   -1    0    0  503  502  0.00000000000E+00  0.00000000000E+00  0.41522238568E+03  0.41522238568E+03  0.00000000000E+00 0. -1.
         21   -1    0    0  501  503 -0.00000000000E+00 -0.00000000000E+00 -0.10067929158E+03  0.10067929158E+03  0.00000000000E+00 0.  1.
          6    2    1    2  501    0  0.87787141093E+02  0.11877986785E+02  0.73429765485E+02  0.20695397640E+03  0.17201845592E+03 0.  0.
         24    2    3    3    0    0  0.12667090262E+03 -0.42532398282E+01  0.66438290183E+02  0.16402223861E+03  0.80160094424E+02 0.  0.
         -6    2    1    2    0  502 -0.87787141093E+02 -0.11877986785E+02  0.24111332861E+03  0.30894770086E+03  0.17165481619E+03 0.  0.
        -24    2    5    5    0    0  0.25023052297E+01 -0.32490054212E+02  0.17475967306E+03  0.19492165538E+03  0.79947753297E+02 0.  0.
          5    1    3    3  501    0 -0.38883761526E+02  0.16131226613E+02  0.69914753016E+01  0.42931737786E+02  0.47000000000E+01 0. -1.
        -11    1    4    4    0    0 -0.32989415715E+01 -0.13665154195E+02 -0.55922243448E+01  0.15129191247E+02  0.00000000000E+00 0.  1.
         12    1    4    4    0    0  0.12996984419E+03  0.94119143667E+01  0.72030514528E+02  0.14889304737E+03  0.00000000000E+00 0. -1.
         -5    1    5    5    0  502 -0.90289446323E+02  0.20612067427E+02  0.66353655559E+02  0.11402604548E+03  0.47000000000E+01 0.  1.
         13    1    6    6    0    0 -0.29168482058E+02 -0.38214613602E+02  0.67031199609E+02  0.82488415910E+02  0.00000000000E+00 0. -1.
        -14    1    6    6    0    0  0.31670787288E+02  0.57245593900E+01  0.10772847345E+03  0.11243323948E+03  0.00000000000E+00 0.  1.
</event>
<event>
12    1  0.8271773E-002  0.2108828E+03  0.7818608E-02  0.1141220E+00
         21   -1    0    0  503  502  0.00000000000E+00  0.00000000000E+00  0.27486212767E+03  0.27486212767E+03  0.00000000000E+00 0.  1.
         21   -1    0    0  501  503 -0.00000000000E+00 -0.00000000000E+00 -0.17434190452E+03  0.17434190452E+03  0.00000000000E+00 0.  1.
          6    2    1    2  501    0  0.10507612546E+03  0.56148209341E+02 -0.12973202796E+02  0.21128142512E+03  0.17400552593E+03 0.  0.
         24    2    3    3    0    0 -0.54830255264E+01  0.34170264598E+02 -0.39079962348E+02  0.95479832655E+02  0.79946760004E+02 0.  0.
         -6    2    1    2    0  502 -0.10507612546E+03 -0.56148209341E+02  0.11349342595E+03  0.23792260707E+03  0.17185108573E+03 0.  0.
        -24    2    5    5    0    0 -0.60790505406E+02  0.10290393760E+02  0.15566007196E+01  0.10034627564E+03  0.79155380606E+02 0.  0.
          5    1    3    3  501    0  0.11055915099E+03  0.21977944743E+02  0.26106759551E+02  0.11580159246E+03  0.47000000000E+01 0. -1.
        -11    1    4    4    0    0 -0.18883047847E+02  0.62210881288E+01  0.20351774863E+02  0.28451119021E+02  0.00000000000E+00 0.  1.
         12    1    4    4    0    0  0.13400022320E+02  0.27949176469E+02 -0.59431737211E+02  0.67028713634E+02  0.00000000000E+00 0. -1.
         -5    1    5    5    0  502 -0.44285620055E+02 -0.66438603101E+02  0.11193682523E+03  0.13757633142E+03  0.47000000000E+01 0.  1.
         13    1    6    6    0    0 -0.31673767499E+01  0.31872329609E+02 -0.16755246061E+02  0.36147142913E+02  0.00000000000E+00 0. -1.
        -14    1    6    6    0    0 -0.57623128656E+02 -0.21581935849E+02  0.18311846780E+02  0.64199132732E+02  0.00000000000E+00 0.  1.
</event>
<event>
12    1  0.8271773E-002  0.2391984E+03  0.7818608E-02  0.1120447E+00
         21   -1    0    0  503  502  0.00000000000E+00  0.00000000000E+00  0.20158461089E+03  0.20158461089E+03  0.00000000000E+00 0. -1.
         21   -1    0    0  501  503 -0.00000000000E+00 -0.00000000000E+00 -0.36675601764E+03  0.36675601764E+03  0.00000000000E+00 0. -1.
          6    2    1    2  501    0 -0.81381399940E+02  0.14461574641E+03 -0.21848700396E+03  0.32396364290E+03  0.17227659345E+03 0.  0.
         24    2    3    3    0    0 -0.33993918646E+02  0.10465895253E+03 -0.22427039189E+03  0.26153243006E+03  0.77413955098E+02 0.  0.
         -6    2    1    2    0  502  0.81381399940E+02 -0.14461574641E+03  0.53315597207E+02  0.24437698563E+03  0.17129189074E+03 0.  0.
        -24    2    5    5    0    0  0.35342758313E+02 -0.14538166207E+03  0.83453246371E+02  0.18914555394E+03  0.80166439441E+02 0.  0.
          5    1    3    3  501    0 -0.47387481294E+02  0.39956793878E+02  0.57833879276E+01  0.62431212837E+02  0.47000000000E+01 0. -1.
        -11    1    4    4    0    0  0.12374195432E+02 -0.64994910247E+01 -0.20043003722E+02  0.24435345186E+02  0.00000000000E+00 0.  1.
         12    1    4    4    0    0 -0.46368114078E+02  0.11115844356E+03 -0.20422738817E+03  0.23709708487E+03  0.00000000000E+00 0. -1.
         -5    1    5    5    0  502  0.46038641627E+02  0.76591566150E+00 -0.30137649165E+02  0.55231431693E+02  0.47000000000E+01 0.  1.
         13    1    6    6    0    0 -0.10360966436E+02 -0.10140191105E+03  0.71741945471E+02  0.12464591422E+03  0.00000000000E+00 0. -1.
        -14    1    6    6    0    0  0.45703724748E+02 -0.43979751021E+02  0.11711300900E+02  0.64499639724E+02  0.00000000000E+00 0.  1.
</event>
<event>
12    1  0.8271773E-002  0.2106440E+03  0.7818608E-02  0.1141316E+00
         21   -1    0    0  503  502  0.00000000000E+00  0.00000000000E+00  0.82822543113E+03  0.82822543113E+03  0.00000000000E+00 0.  1.
         21   -1    0    0  501  503 -0.00000000000E+00 -0.00000000000E+00 -0.86558281133E+02  0.86558281133E+02  0.00000000000E+00 0. -1.
          6    2    1    2  501    0 -0.26316086778E+02  0.11615100976E+03  0.86353644860E+02  0.22644752745E+03  0.17215672283E+03 0.  0.
         24    2    3    3    0    0  0.24700330906E+02  0.12258176705E+01  0.41850117481E+02  0.92981694371E+02  0.79262564803E+02 0.  0.
         -6    2    1    2    0  502  0.26316086778E+02 -0.11615100976E+03  0.65531350514E+03  0.68833618481E+03  0.17374498500E+03 0.  0.
        -24    2    5    5    0    0  0.34924775299E+02 -0.15156758319E+02  0.45781700430E+03  0.46629811108E+03  0.79925288353E+02 0.  0.
          5    1    3    3  501    0 -0.51016417684E+02  0.11492519209E+03  0.44503527379E+02  0.13346583308E+03  0.47000000000E+01 0. -1.
        -13    1    4    4    0    0 -0.22362280658E+02  0.16474561898E+01  0.40029640336E+02  0.45881998796E+02  0.00000000000E+00 0.  1.
         14    1    4    4    0    0  0.47062611564E+02 -0.42163851924E+00  0.18204771455E+01  0.47099695575E+02  0.00000000000E+00 0. -1.
         -5    1    5    5    0  502 -0.86086885206E+01 -0.10099425145E+03  0.19749650084E+03  0.22203807373E+03  0.47000000000E+01 0.  1.
         13    1    6    6    0    0  0.99273078417E+01  0.11284410803E+02  0.12644755225E+02  0.19641262762E+02  0.00000000000E+00 0. -1.
        -14    1    6    6    0    0  0.24997467457E+02 -0.26441169122E+02  0.44517224907E+03  0.44665684832E+03  0.00000000000E+00 0.  1.
</event>
<event>
12    1  0.8271773E-002  0.2223007E+03  0.7818608E-02  0.1132180E+00
         21   -1    0    0  503  502  0.00000000000E+00  0.00000000000E+00  0.38106773306E+03  0.38106773306E+03  0.00000000000E+00 0. -1.
         21   -1    0    0  501  503 -0.00000000000E+00 -0.00000000000E+00 -0.13289484094E+03  0.13289484094E+03  0.00000000000E+00 0. -1.
          6    2    1    2  501    0 -0.10471421997E+02  0.13969256341E+03  0.16406186748E+03  0.27628589095E+03  0.17260919508E+03 0.  0.
         24    2    3    3    0    0 -0.72202664430E+02  0.92847678308E+02  0.85086317887E+02  0.16554106269E+03  0.79562842002E+02 0.  0.
         -6    2    1    2    0  502  0.10471421997E+02 -0.13969256341E+03  0.84111024640E+02  0.23767668305E+03  0.17260323939E+03 0.  0.
        -24    2    5    5    0    0  0.60317225645E+02 -0.35473670924E+02  0.26473870671E+02  0.10848568797E+03  0.78560356587E+02 0.  0.
          5    1    3    3  501    0  0.61731242433E+02  0.46844885105E+02  0.78975549596E+02  0.11074482826E+03  0.47000000000E+01 0. -1.
        -13    1    4    4    0    0 -0.31073128743E+02 -0.41370241665E+01  0.40335949575E+02  0.51084666261E+02  0.00000000000E+00 0.  1.
         14    1    4    4    0    0 -0.41129535687E+02  0.96984702474E+02  0.44750368312E+02  0.11445639643E+03  0.00000000000E+00 0. -1.
         -5    1    5    5    0  502 -0.49845803648E+02 -0.10421889249E+03  0.57637153970E+02  0.12919099508E+03  0.47000000000E+01 0.  1.
         13    1    6    6    0    0  0.21771977798E+02 -0.26094974471E+01 -0.27031172553E+02  0.34806792207E+02  0.00000000000E+00 0. -1.
        -14    1    6    6    0    0  0.38545247847E+02 -0.32864173477E+02  0.53505043224E+02  0.73678895760E+02  0.00000000000E+00 0.  1.
</event>
<event>
12    1  0.8271773E-002  0.1948995E+03  0.7818608E-02  0.1155031E+00
         21   -1    0    0  503  502  0.00000000000E+00  0.00000000000E+00  0.30582503341E+03  0.30582503341E+03  0.00000000000E+00 0.  1.
         21   -1    0    0  501  503 -0.00000000000E+00 -0.00000000000E+00 -0.12453309273E+03  0.12453309273E+03  0.00000000000E+00 0.  1.
          6    2    1    2  501    0  0.75551088444E+02  0.54441030658E+02  0.12474806360E+03  0.23140420129E+03  0.17121341133E+03 0.  0.
         24    2    3    3    0    0 -0.25466539359E+02  0.58321493966E+01  0.64815661346E+02  0.10419819788E+03  0.77289299985E+02 0.  0.
         -6    2    1    2    0  502 -0.75551088444E+02 -0.54441030658E+02  0.56543877071E+02  0.19895392485E+03  0.16647420639E+03 0.  0.
        -24    2    5    5    0    0 -0.78866195145E+02 -0.75113192282E+02  0.87614521188E+02  0.16119411653E+03  0.80283064765E+02 0.  0.
          5    1    3    3  501    0  0.10101762780E+03  0.48608881262E+02  0.59932402258E+02  0.12720600342E+03  0.47000000000E+01 0. -1.
        -11    1    4    4    0    0 -0.39181925730E+02 -0.18038687573E+02  0.12219131999E+02  0.44832184199E+02  0.00000000000E+00 0.  1.
         12    1    4    4    0    0  0.13715386371E+02  0.23870836969E+02  0.52596529347E+02  0.59366013680E+02  0.00000000000E+00 0. -1.
         -5    1    5    5    0  502  0.33151067010E+01  0.20672161623E+02 -0.31070644117E+02  0.37759808321E+02  0.47000000000E+01 0.  1.
         13    1    6    6    0    0  0.31968831584E+01 -0.21091762902E+02 -0.92259035368E+01  0.23242199128E+02  0.00000000000E+00 0. -1.
        -14    1    6    6    0    0 -0.82063078303E+02 -0.54021429380E+02  0.96840424725E+02  0.13795191740E+03  0.00000000000E+00 0.  1.
</event>
<event>
12    1  0.8271773E-002  0.2012352E+03  0.7818608E-02  0.1148850E+00
         21   -1    0    0  503  502  0.00000000000E+00  0.00000000000E+00  0.36567775995E+02  0.36567775995E+02  0.00000000000E+00 0.  1.
         21   -1    0    0  501  503 -0.00000000000E+00 -0.00000000000E+00 -0.12260705253E+04  0.12260705253E+04  0.00000000000E+00 0.  1.
          6    2    1    2  501    0  0.32901094541E+02 -0.97365872616E+02 -0.79529697723E+03  0.82036143382E+03  0.17301157456E+03 0.  0.
         24    2    3    3    0    0  0.88670546509E+02 -0.62595281239E+02 -0.48640688214E+03  0.50452222371E+03  0.78551792925E+02 0.  0.
         -6    2    1    2    0  502 -0.32901094541E+02  0.97365872616E+02 -0.39420577211E+03  0.44227686751E+03  0.17218606680E+03 0.  0.
        -24    2    5    5    0    0  0.15114342769E+02  0.12081929008E+03 -0.27634769454E+03  0.31278493162E+03  0.81490005287E+02 0.  0.
          5    1    3    3  501    0 -0.55769451969E+02 -0.34770591377E+02 -0.30889009509E+03  0.31583921011E+03  0.47000000000E+01 0. -1.
        -13    1    4    4    0    0  0.49459790124E+02 -0.53742052664E+01 -0.32578520750E+03  0.32956206449E+03  0.00000000000E+00 0.  1.
         14    1    4    4    0    0  0.39210756385E+02 -0.57221075973E+02 -0.16062167464E+03  0.17496015922E+03  0.00000000000E+00 0. -1.
         -5    1    5    5    0  502 -0.48015437310E+02 -0.23453417465E+02 -0.11785807757E+03  0.12949193589E+03  0.47000000000E+01 0.  1.
         11    1    6    6    0    0 -0.24119611521E+01  0.68953316024E+02 -0.23286320841E+03  0.24286961765E+03  0.00000000000E+00 0. -1.
        -12    1    6    6    0    0  0.17526303921E+02  0.51865974057E+02 -0.43484486127E+02  0.69915313971E+02  0.00000000000E+00 0.  1.
</event>
<event>
12    1  0.8271773E-002  0.2459896E+03  0.7818608E-02  0.1115885E+00
         21   -1    0    0  501  502  0.00000000000E+00  0.00000000000E+00  0.71100862282E+03  0.71100862282E+03  0.00000000000E+00 0. -1.
         21   -1    0    0  502  503 -0.00000000000E+00 -0.00000000000E+00 -0.12824991152E+03  0.12824991152E+03  0.00000000000E+00 0.  1.
         -6    2    1    2    0  503  0.51567836071E+02 -0.16598125504E+03  0.47922202682E+02  0.25061409222E+03  0.17407431450E+03 0.  0.
        -24    2    3    3    0    0  0.59662124403E+02 -0.51598032808E+02 -0.23536871620E+02  0.11541968282E+03  0.80906073812E+02 0.  0.
          6    2    1    2  501    0 -0.51567836071E+02  0.16598125504E+03  0.53483650861E+03  0.58864444212E+03  0.17390563406E+03 0.  0.
         24    2    5    5    0    0 -0.68851061608E+02  0.18716483581E+03  0.43663429173E+03  0.48659925909E+03  0.79738257969E+02 0.  0.
          5    1    5    5  501    0  0.17283225537E+02 -0.21183580776E+02  0.98202216882E+02  0.10204518303E+03  0.47000000000E+01 0. -1.
        -11    1    6    6    0    0 -0.27064130911E+02  0.48626852051E+02  0.54110337103E+02  0.77620657713E+02  0.00000000000E+00 0.  1.
         12    1    6    6    0    0 -0.41786930697E+02  0.13853798376E+03  0.38252395463E+03  0.40897860138E+03  0.00000000000E+00 0. -1.
         -5    1    3    3    0  503 -0.80942883325E+01 -0.11438322223E+03  0.71459074302E+02  0.13519440939E+03  0.47000000000E+01 0.  1.
         13    1    4    4    0    0  0.65907154627E+02 -0.38084523703E+02  0.11843104332E+02  0.77035336677E+02  0.00000000000E+00 0. -1.
        -14    1    4    4    0    0 -0.62450302235E+01 -0.13513509105E+02 -0.35379975952E+02  0.38384346147E+02  0.00000000000E+00 0.  1.
</event>
<event>
12    1  0.8271773E-002  0.4142683E+03  0.7818608E-02  0.1039071E+00
         21   -1    0    0  503  502  0.00000000000E+00  0.00000000000E+00  0.92772907621E+03  0.92772907621E+03  0.00000000000E+00 0.  1.
         21   -1    0    0  501  503 -0.00000000000E+00 -0.00000000000E+00 -0.33036387334E+03  0.33036387334E+03  0.00000000000E+00 0. -1.
          6    2    1    2  501    0 -0.33893848077E+03  0.16534185252E+03 -0.11925198470E+03  0.43109077103E+03  0.17146718366E+03 0.  0.
         24    2    3    3    0    0 -0.28195070581E+03  0.76206585489E+02 -0.54867488858E+02  0.30715467610E+03  0.77652492141E+02 0.  0.
         -6    2    1    2    0  502  0.33893848077E+03 -0.16534185252E+03  0.71661718757E+03  0.82700217852E+03  0.16785466278E+03 0.  0.
        -24    2    5    5    0    0  0.87154821833E+02 -0.36073920989E+02  0.28257608106E+03  0.30881400693E+03  0.81360669543E+02 0.  0.
          5    1    3    3  501    0 -0.56987774961E+02  0.89135267028E+02 -0.64384495840E+02  0.12393609493E+03  0.47000000000E+01 0. -1.
        -11    1    4    4    0    0 -0.25492771460E+03  0.41719833824E+02 -0.49427531260E+02  0.26300525670E+03  0.00000000000E+00 0.  1.
         12    1    4    4    0    0 -0.27022991210E+02  0.34486751665E+02 -0.54399575983E+01  0.44149419396E+02  0.00000000000E+00 0. -1.
         -5    1    5    5    0  502  0.25178365894E+03 -0.12926793153E+03  0.43404110652E+03  0.51818817159E+03  0.47000000000E+01 0.  1.
         11    1    6    6    0    0  0.10933446557E+02 -0.29630866908E+01 -0.27293981664E+01  0.11652027751E+02  0.00000000000E+00 0. -1.
        -12    1    6    6    0    0  0.76221375275E+02 -0.33110834298E+02  0.28530547922E+03  0.29716197918E+03  0.00000000000E+00 0.  1.
</event>
<event>
12    1  0.8271773E-002  0.1849399E+03  0.7818608E-02  0.1165075E+00
         21   -1    0    0  501  502  0.00000000000E+00  0.00000000000E+00  0.28118649717E+03  0.28118649717E+03  0.00000000000E+00 0.  1.
         21   -1    0    0  502  503 -0.00000000000E+00 -0.00000000000E+00 -0.21663882941E+03  0.21663882941E+03  0.00000000000E+00 0.  1.
         -6    2    1    2    0  503  0.96949392944E+01 -0.42931626938E+02 -0.13750870394E+03  0.22391009078E+03  0.17114312331E+03 0.  0.
        -24    2    3    3    0    0 -0.20241083002E+02  0.31382843180E+02 -0.37451178387E+02  0.95643164733E+02  0.79689647448E+02 0.  0.
          6    2    1    2  501    0 -0.96949392944E+01  0.42931626938E+02  0.20205637170E+03  0.27391523580E+03  0.17962645301E+03 0.  0.
         24    2    5    5    0    0 -0.11932428010E+02  0.68243632089E+02  0.45606614145E+02  0.11534562774E+03  0.80156561969E+02 0.  0.
          5    1    5    5  501    0  0.22374887161E+01 -0.25312005152E+02  0.15644975755E+03  0.15856960805E+03  0.47000000000E+01 0. -1.
        -11    1    6    6    0    0  0.62851190494E+01  0.48385450879E+02  0.65624633088E+02  0.81775589550E+02  0.00000000000E+00 0.  1.
         12    1    6    6    0    0 -0.18217547060E+02  0.19858181210E+02 -0.20018018944E+02  0.33570038193E+02  0.00000000000E+00 0. -1.
         -5    1    3    3    0  503  0.29936022296E+02 -0.74314470118E+02 -0.10005752555E+03  0.12826692605E+03  0.47000000000E+01 0.  1.
         11    1    4    4    0    0  0.19539896979E+01 -0.20648558008E+02  0.88427997550E+01  0.22547197854E+02  0.00000000000E+00 0. -1.
        -12    1    4    4    0    0 -0.22195072700E+02  0.52031401189E+02 -0.46293978142E+02  0.73095966879E+02  0.00000000000E+00 0.  1.
</event>
<event>
12    1  0.8271773E-002  0.2375214E+03  0.7818608E-02  0.1121850E+00
         21   -1    0    0  501  502  0.00000000000E+00  0.00000000000E+00  0.20670975738E+03  0.20670975738E+03  0.00000000000E+00 0.  1.
         21   -1    0    0  502  503 -0.00000000000E+00 -0.00000000000E+00 -0.29784782800E+03  0.29784782800E+03  0.00000000000E+00 0. -1.
         -6    2    1    2    0  503  0.15148581936E+03  0.49076216234E+02 -0.12255630226E+03  0.26727603755E+03  0.17623848772E+03 0.  0.
        -24    2    3    3    0    0  0.75809171275E+02  0.38634174474E+02 -0.14596976147E+03  0.18723685106E+03  0.80689759223E+02 0.  0.
          6    2    1    2  501    0 -0.15148581936E+03 -0.49076216234E+02  0.31418231645E+02  0.23728154783E+03  0.17308668115E+03 0.  0.
         24    2    5    5    0    0 -0.87332081392E+02 -0.89782799236E+02 -0.11108180402E+02  0.15008456556E+03  0.81939866170E+02 0.  0.
          5    1    5    5  501    0 -0.64153737972E+02  0.40706583002E+02  0.42526412047E+02  0.87196982270E+02  0.47000000000E+01 0. -1.
        -11    1    6    6    0    0 -0.61697718361E+02 -0.92980390367E+02  0.15894798613E+02  0.11271471096E+03  0.00000000000E+00 0.  1.
         12    1    6    6    0    0 -0.25634363031E+02  0.31975911310E+01 -0.27002979015E+02  0.37369854598E+02  0.00000000000E+00 0. -1.
         -5    1    3    3    0  503  0.75676648089E+02  0.10442041760E+02  0.23413459208E+02  0.80039186491E+02  0.47000000000E+01 0.  1.
         13    1    4    4    0    0  0.77589387351E+02 -0.70795576783E+00 -0.10290167421E+03  0.12887734008E+03  0.00000000000E+00 0. -1.
        -14    1    4    4    0    0 -0.17802160763E+01  0.39342130242E+02 -0.43068087263E+02  0.58359510980E+02  0.00000000000E+00 0.  1.
</event>
<event>
12    1  0.8271773E-002  0.3122052E+03  0.7818608E-02  0.1079371E+00
         21   -1    0    0  501  502  0.00000000000E+00  0.00000000000E+00  0.64588685856E+03  0.64588685856E+03  0.00000000000E+00 0.  1.
         21   -1    0    0  502  503 -0.00000000000E+00 -0.00000000000E+00 -0.16089027571E+03  0.16089027571E+03  0.00000000000E+00 0. -1.
         -6    2    1    2    0  503  0.21877210767E+03  0.14171511141E+03  0.14022902100E+03  0.34165695641E+03  0.17064843872E+03 0.  0.
        -24    2    3    3    0    0  0.19897588896E+03  0.57012397924E+02  0.11761265153E+03  0.25165678911E+03  0.81587902300E+02 0.  0.
          6    2    1    2  501    0 -0.21877210767E+03 -0.14171511141E+03  0.34476756185E+03  0.46512017786E+03  0.17183626000E+03 0.  0.
         24    2    5    5    0    0 -0.21593938064E+03 -0.12883799320E+03  0.23096233618E+03  0.35045735082E+03  0.79042453169E+02 0.  0.
          5    1    5    5  501    0 -0.28327270281E+01 -0.12877118208E+02  0.11380522567E+03  0.11466282704E+03  0.47000000000E+01 0. -1.
        -11    1    6    6    0    0 -0.34636973910E+02 -0.60378911388E+02  0.66807076475E+02  0.96480663188E+02  0.00000000000E+00 0.  1.
         12    1    6    6    0    0 -0.18130240673E+03 -0.68459081809E+02  0.16415525971E+03  0.25397668763E+03  0.00000000000E+00 0. -1.
         -5    1    3    3    0  503  0.19796218712E+02  0.84702713481E+02  0.22616369473E+02  0.90000167303E+02  0.47000000000E+01 0.  1.
         13    1    4    4    0    0  0.93956225531E+02  0.44275312922E+02  0.16220799804E+02  0.10512464029E+03  0.00000000000E+00 0. -1.
        -14    1    4    4    0    0  0.10501966343E+03  0.12737085003E+02  0.10139185173E+03  0.14653214882E+03  0.00000000000E+00 0.  1.
</event>
<event>
12    1  0.8271773E-002  0.2132976E+03  0.7818608E-02  0.1139103E+00
         21   -1    0    0  503  502  0.00000000000E+00  0.00000000000E+00  0.11325532850E+03  0.11325532850E+03  0.00000000000E+00 0.  1.
         21   -1    0    0  501  503 -0.00000000000E+00 -0.00000000000E+00 -0.46101831822E+03  0.46101831822E+03  0.00000000000E+00 0. -1.
          6    2    1    2  501    0  0.12476658553E+03  0.40180234116E+01 -0.70097335481E+02  0.22452060767E+03  0.17295381306E+03 0.  0.
         24    2    3    3    0    0  0.57783603719E+02 -0.60999774741E+02 -0.59451027498E+02  0.13044899770E+03  0.80141118995E+02 0.  0.
         -6    2    1    2    0  502 -0.12476658553E+03 -0.40180234116E+01 -0.27766565424E+03  0.34975303905E+03  0.17218050819E+03 0.  0.
        -24    2    5    5    0    0 -0.67861067895E+02  0.37581560546E+02 -0.25261498318E+03  0.27479712238E+03  0.75376591279E+02 0.  0.
          5    1    3    3  501    0  0.66982981813E+02  0.65017798153E+02 -0.10646307983E+02  0.94071609973E+02  0.47000000000E+01 0. -1.
        -13    1    4    4    0    0  0.66291181324E+02 -0.50540774361E+02 -0.15905188247E+02  0.84863806228E+02  0.00000000000E+00 0.  1.
         14    1    4    4    0    0 -0.85075776053E+01 -0.10459000380E+02 -0.43545839250E+02  0.45585191474E+02  0.00000000000E+00 0. -1.
         -5    1    5    5    0  502 -0.56905517636E+02 -0.41599583958E+02 -0.25050671062E+02  0.74955916668E+02  0.47000000000E+01 0.  1.
         11    1    6    6    0    0 -0.29984180284E+02 -0.19253838443E+02 -0.12591832183E+03  0.13086323064E+03  0.00000000000E+00 0. -1.
        -12    1    6    6    0    0 -0.37876887612E+02  0.56835398990E+02 -0.12669666136E+03  0.14393389174E+03  0.00000000000E+00 0.  1.
</event>
<event>
12    1  0.8271773E-002  0.1730317E+03  0.7818608E-02  0.1174733E+00
         21   -1    0    0  503  502  0.00000000000E+00  0.00000000000E+00  0.17586507736E+03  0.17586507736E+03  0.00000000000E+00 0. -1.
         21   -1    0    0  501  503 -0.00000000000E+00 -0.00000000000E+00 -0.65330491147E+03  0.65330491147E+03  0.00000000000E+00 0. -1.
          6    2    1    2  501    0 -0.22512808415E+02  0.17206492476E+01 -0.59522529036E+03  0.61985353742E+03  0.17150940029E+03 0.  0.
         24    2    3    3    0    0  0.43729663642E+02 -0.25346733479E+02 -0.25737937814E+03  0.27448032086E+03  0.80873740285E+02 0.  0.
         -6    2    1    2    0  502  0.22512808415E+02 -0.17206492476E+01  0.11778545625E+03  0.20931645141E+03  0.17155225429E+03 0.  0.
        -24    2    5    5    0    0 -0.43749720163E+02  0.36176823401E+01  0.14526193810E+02  0.86418991073E+02  0.73007575439E+02 0.  0.
          5    1    3    3  501    0 -0.66242472057E+02  0.27067382726E+02 -0.33784591222E+03  0.34537321656E+03  0.47000000000E+01 0. -1.
        -13    1    4    4    0    0  0.46604046569E+02  0.12238111087E+02 -0.82113901357E+02  0.95207149499E+02  0.00000000000E+00 0.  1.
         14    1    4    4    0    0 -0.28743829270E+01 -0.37584844566E+02 -0.17526547678E+03  0.17927317136E+03  0.00000000000E+00 0. -1.
         -5    1    5    5    0  502  0.66262528578E+02 -0.53383315877E+01  0.10325926244E+03  0.12289746034E+03  0.47000000000E+01 0.  1.
         13    1    6    6    0    0  0.10973134794E+02 -0.11591002951E+02  0.24014439654E+02  0.28834950122E+02  0.00000000000E+00 0. -1.
        -14    1    6    6    0    0 -0.54722854958E+02  0.15208685291E+02 -0.94882458447E+01  0.57584040951E+02  0.00000000000E+00 0.  1.
</event>
<event>
12    1  0.8271773E-002  0.3168062E+03  0.7818608E-02  0.1077134E+00
         21   -1    0    0  503  502  0.00000000000E+00  0.00000000000E+00  0.16172636340E+03  0.16172636340E+03  0.00000000000E+00 0.  1.
         21   -1    0    0  501  503 -0.00000000000E+00 -0.00000000000E+00 -0.64033983470E+03  0.64033983470E+03  0.00000000000E+00 0. -1.
          6    2    1    2  501    0 -0.25674830564E+03 -0.68575904940E+02 -0.30990561657E+03  0.44317907343E+03  0.17246406223E+03 0.  0.
         24    2    3    3    0    0 -0.14129048692E+03  0.96063912931E+01 -0.98335963889E+02  0.18974902927E+03  0.79242967311E+02 0.  0.
         -6    2    1    2    0  502  0.25674830564E+03  0.68575904940E+02 -0.16870785473E+03  0.35888712467E+03  0.17238120785E+03 0.  0.
        -24    2    5    5    0    0  0.11590302694E+03 -0.24935246040E+02 -0.10323556048E+03  0.17752991030E+03  0.82486422857E+02 0.  0.
          5    1    3    3  501    0 -0.11545781872E+03 -0.78182296233E+02 -0.21156965268E+03  0.25343004416E+03  0.47000000000E+01 0. -1.
        -11    1    4    4    0    0 -0.77747800145E+02 -0.32351762347E+02 -0.37034488175E+02  0.91994077357E+02  0.00000000000E+00 0.  1.
         12    1    4    4    0    0 -0.63542686776E+02  0.41958153640E+02 -0.61301475713E+02  0.97754951916E+02  0.00000000000E+00 0. -1.
         -5    1    5    5    0  502  0.14084527870E+03  0.93511150980E+02 -0.65472294255E+02  0.18135721437E+03  0.47000000000E+01 0.  1.
         11    1    6    6    0    0  0.10352415593E+03  0.84274008564E+01 -0.95534675687E+02  0.14112103388E+03  0.00000000000E+00 0. -1.
        -12    1    6    6    0    0  0.12378871014E+02 -0.33362646897E+02 -0.77008847893E+01  0.36408876419E+02  0.00000000000E+00 0.  1.
</event>
<event>
12    1  0.8271773E-002  0.2112345E+03  0.7818608E-02  0.1140809E+00
         21   -1    0    0  503  502  0.00000000000E+00  0.00000000000E+00  0.31220359257E+03  0.31220359257E+03  0.00000000000E+00 0. -1.
         21   -1    0    0  501  503 -0.00000000000E+00 -0.00000000000E+00 -0.18088375395E+03  0.18088375395E+03  0.00000000000E+00 0. -1.
          6    2    1    2  501    0  0.50909101343E+02  0.10944410819E+03 -0.48252722943E+02  0.21667561001E+03  0.17335006572E+03 0.  0.
         24    2    3    3    0    0 -0.11395914920E+02 -0.28434734715E+01 -0.66902299694E+01  0.81620262583E+02  0.80493203867E+02 0.  0.
         -6    2    1    2    0  502 -0.50909101343E+02 -0.10944410819E+03  0.17957256157E+03  0.27641173651E+03  0.17200986539E+03 0.  0.
        -24    2    5    5    0    0 -0.88329546156E+02 -0.75155582546E+02  0.18309273237E+03  0.22531893580E+03  0.61605226027E+02 0.  0.
          5    1    3    3  501    0  0.62305016263E+02  0.11228758166E+03 -0.41562492974E+02  0.13505534743E+03  0.47000000000E+01 0. -1.
        -13    1    4    4    0    0 -0.45239455324E+02  0.48663203522E+01  0.29495797734E+01  0.45595936361E+02  0.00000000000E+00 0.  1.
         14    1    4    4    0    0  0.33843540404E+02 -0.77097938237E+01 -0.96398097428E+01  0.36024326222E+02  0.00000000000E+00 0. -1.
         -5    1    5    5    0  502  0.37420444812E+02 -0.34288525647E+02 -0.35201707983E+01  0.51092800701E+02  0.47000000000E+01 0.  1.
         11    1    6    6    0    0 -0.21095434315E+02  0.75216793266E+01  0.50255882765E+02  0.55020421312E+02  0.00000000000E+00 0. -1.
        -12    1    6    6    0    0 -0.67234111840E+02 -0.82677261872E+02  0.13283684960E+03  0.17029851449E+03  0.00000000000E+00 0.  1.
</event>
<event>
12    1  0.8271773E-002  0.2242702E+03  0.7818608E-02  0.1130797E+00
         21   -1    0    0  501  502  0.00000000000E+00  0.00000000000E+00  0.12161581805E+03  0.12161581805E+03  0.00000000000E+00 0.  1.
         21   -1    0    0  502  503 -0.00000000000E+00 -0.00000000000E+00 -0.41298775626E+03  0.41298775626E+03  0.00000000000E+00 0. -1.
         -6    2    1    2    0  503 -0.11404031661E+03  0.85805627219E+02 -0.14469876132E+03  0.26689857951E+03  0.17300092701E+03 0.  0.
        -24    2    3    3    0    0 -0.70885772021E+01  0.38060107956E+02 -0.12154033090E+03  0.14741338348E+03  0.73890688521E+02 0.  0.
          6    2    1    2  501    0  0.11404031661E+03 -0.85805627219E+02 -0.14667317689E+03  0.26770499479E+03  0.17258373023E+03 0.  0.
         24    2    5    5    0    0  0.34723125121E+02 -0.51315076533E+01 -0.74963658964E+01  0.88284245841E+02  0.80659065040E+02 0.  0.
          5    1    5    5  501    0  0.79317191489E+02 -0.80674119566E+02 -0.13917681100E+03  0.17942074895E+03  0.47000000000E+01 0. -1.
        -11    1    6    6    0    0  0.35412501319E+02 -0.29578178506E+02 -0.30011640285E+02  0.55041915355E+02  0.00000000000E+00 0.  1.
         12    1    6    6    0    0 -0.68937619861E+00  0.24446670852E+02  0.22515274389E+02  0.33242330485E+02  0.00000000000E+00 0. -1.
         -5    1    3    3    0  503 -0.10695173941E+03  0.47745519263E+02 -0.23158430422E+02  0.11948519603E+03  0.47000000000E+01 0.  1.
         11    1    4    4    0    0  0.47079856976E+01 -0.21589583661E+02 -0.25490900560E+02  0.33735163603E+02  0.00000000000E+00 0. -1.
        -12    1    4    4    0    0 -0.11796562900E+02  0.59649691617E+02 -0.96049430337E+02  0.11367821988E+03  0.00000000000E+00 0.  1.
</event>
<event>
12    1  0.8271773E-002  0.2111496E+03  0.7818608E-02  0.1140887E+00
         21   -1    0    0  503  502  0.00000000000E+00  0.00000000000E+00  0.62742320257E+03  0.62742320257E+03  0.00000000000E+00 0. -1.
         21   -1    0    0  501  503 -0.00000000000E+00 -0.00000000000E+00 -0.16099188380E+03  0.16099188380E+03  0.00000000000E+00 0.  1.
          6    2    1    2  501    0  0.68051795565E+02  0.98724953653E+02 -0.62333704898E+02  0.21904998218E+03  0.17239414310E+03 0.  0.
         24    2    3    3    0    0  0.10093159199E+03  0.54208135114E+02 -0.79347724813E+02  0.16096043906E+03  0.80538769143E+02 0.  0.
         -6    2    1    2    0  502 -0.68051795565E+02 -0.98724953653E+02  0.52876502366E+03  0.56936510419E+03  0.17380019639E+03 0.  0.
        -24    2    5    5    0    0 -0.33332225022E+02  0.15772369684E+02  0.18179181123E+03  0.20231253878E+03  0.80760732074E+02 0.  0.
          5    1    3    3  501    0 -0.32879796429E+02  0.44516818539E+02  0.17014019915E+02  0.58089543118E+02  0.47000000000E+01 0. -1.
        -13    1    4    4    0    0  0.44107284331E+00  0.18771903141E+02 -0.45396895140E+02  0.49126947606E+02  0.00000000000E+00 0.  1.
         14    1    4    4    0    0  0.10049051915E+03  0.35436231973E+02 -0.33950829674E+02  0.11183349146E+03  0.00000000000E+00 0. -1.
         -5    1    5    5    0  502 -0.34719570544E+02 -0.11449732334E+03  0.34697321243E+03  0.36705256541E+03  0.47000000000E+01 0.  1.
         13    1    6    6    0    0  0.10162618885E+02  0.26125896870E+02  0.13386554002E+03  0.13676923672E+03  0.00000000000E+00 0. -1.
        -14    1    6    6    0    0 -0.43494843906E+02 -0.10353527186E+02  0.47926271217E+02  0.65543302056E+02  0.00000000000E+00 0.  1.
</event>
<event>
12    1  0.8271773E-002  0.2221955E+03  0.7818608E-02  0.1132740E+00
         21   -1    0    0  503  502  0.00000000000E+00  0.00000000000E+00  0.71333763144E+03  0.71333763144E+03  0.00000000000E+00 0. -1.
         21   -1    0    0  501  503 -0.00000000000E+00 -0.00000000000E+00 -0.99612241770E+02  0.99612241770E+02  0.00000000000E+00 0. -1.
          6    2    1    2  501    0 -0.98607630432E+02 -0.99437696804E+02  0.78090310107E+02  0.23305698040E+03  0.16913349536E+03 0.  0.
         24    2    3    3    0    0 -0.19109402170E+02 -0.58788883397E+02 -0.26928550174E+02  0.95131836412E+02  0.67108996583E+02 0.  0.
         -6    2    1    2    0  502  0.98607630432E+02  0.99437696804E+02  0.53563507956E+03  0.57989289281E+03  0.17250944424E+03 0.  0.
        -24    2    5    5    0    0  0.46411523078E+02  0.11322420359E+03  0.25529098199E+03  0.29435934936E+03  0.80623763977E+02 0.  0.
          5    1    3    3  501    0 -0.79498228262E+02 -0.40648813407E+02  0.10501886028E+03  0.13792514398E+03  0.47000000000E+01 0. -1.
        -11    1    4    4    0    0  0.18186254126E+02 -0.15356901298E+02  0.11243586444E+02  0.26324750573E+02  0.00000000000E+00 0.  1.
         12    1    4    4    0    0 -0.37295656297E+02 -0.43431982099E+02 -0.38172136618E+02  0.68807085839E+02  0.00000000000E+00 0. -1.
         -5    1    5    5    0  502  0.52196107354E+02 -0.13786506790E+02  0.28034409757E+03  0.28553354345E+03  0.47000000000E+01 0.  1.
         11    1    6    6    0    0  0.52285245303E+02  0.11229872909E+03  0.25917521437E+03  0.28725692885E+03  0.00000000000E+00 0. -1.
        -12    1    6    6    0    0 -0.58737222249E+01  0.92547450533E+00 -0.38842323827E+01  0.71024205056E+01  0.00000000000E+00 0.  1.
</event>
<event>
12    1  0.8271773E-002  0.1748478E+03  0.7818608E-02  0.1173370E+00
         21   -1    0    0  501  502  0.00000000000E+00  0.00000000000E+00  0.47336804118E+03  0.47336804118E+03  0.00000000000E+00 0. -1.
         21   -1    0    0  502  503 -0.00000000000E+00 -0.00000000000E+00 -0.14083713913E+03  0.14083713913E+03  0.00000000000E+00 0. -1.
         -6    2    1    2    0  503 -0.16329805495E+02 -0.29994726253E+02 -0.61166370151E+02  0.18342762994E+03  0.16952293189E+03 0.  0.
        -24    2    3    3    0    0 -0.44390380179E+02 -0.64135829140E+02 -0.55898370613E+01  0.11226688382E+03  0.80552445599E+02 0.  0.
          6    2    1    2  501    0  0.16329805495E+02  0.29994726253E+02  0.39369727220E+03  0.43077755037E+03  0.17148005604E+03 0.  0.
         24    2    5    5    0    0 -0.12084415376E+02 -0.27187225260E+02  0.10087587961E+03  0.13103832791E+03  0.78165989928E+02 0.  0.
          5    1    5    5  501    0  0.28414220870E+02  0.57181951513E+02  0.29282139259E+03  0.29973922247E+03  0.47000000000E+01 0. -1.
        -11    1    6    6    0    0  0.33010705480E+02 -0.62588094792E+01  0.35111319480E+02  0.48597161727E+02  0.00000000000E+00 0.  1.
         12    1    6    6    0    0 -0.45095120855E+02 -0.20928415781E+02  0.65764560130E+02  0.82441166180E+02  0.00000000000E+00 0. -1.
         -5    1    3    3    0  503  0.28060574684E+02  0.34141102887E+02 -0.55576533090E+02  0.71160746119E+02  0.47000000000E+01 0.  1.
         11    1    4    4    0    0  0.13132192050E+02 -0.23041870882E+02 -0.27550015164E+02  0.38241150836E+02  0.00000000000E+00 0. -1.
        -12    1    4    4    0    0 -0.57522572230E+02 -0.41093958258E+02  0.21960178102E+02  0.74025732982E+02  0.00000000000E+00 0.  1.
</event>
<event>
12    1  0.8271773E-002  0.1753652E+03  0.7818608E-02  0.1172415E+00
         21   -1    0    0  503  502  0.00000000000E+00  0.00000000000E+00  0.16293324219E+03  0.16293324219E+03  0.00000000000E+00 0. -1.
         21   -1    0    0  501  503 -0.00000000000E+00 -0.00000000000E+00 -0.54533342529E+03  0.54533342529E+03  0.00000000000E+00 0. -1.
          6    2    1    2  501    0 -0.34735800088E+02 -0.18920558052E+02 -0.47768676859E+03  0.50885911531E+03  0.17084609163E+03 0.  0.
         24    2    3    3    0    0 -0.22008567151E+02 -0.70046971167E+02 -0.40617494821E+03  0.41991012414E+03  0.77171682674E+02 0.  0.
         -6    2    1    2    0  502  0.34735800088E+02  0.18920558052E+02  0.95286585482E+02  0.19940755217E+03  0.17064370824E+03 0.  0.
        -24    2    5    5    0    0  0.76542672738E+02  0.65671751531E+01  0.10768230078E+03  0.15384260481E+03  0.78550369915E+02 0.  0.
          5    1    3    3  501    0 -0.12727232937E+02  0.51126413114E+02 -0.71511820381E+02  0.88948991172E+02  0.47000000000E+01 0. -1.
        -13    1    4    4    0    0  0.40159632678E+01  0.15769985673E+02 -0.48168729369E+02  0.50843356480E+02  0.00000000000E+00 0.  1.
         14    1    4    4    0    0 -0.26024530419E+02 -0.85816956839E+02 -0.35800621884E+03  0.36906676766E+03  0.00000000000E+00 0. -1.
         -5    1    5    5    0  502 -0.41806872649E+02  0.12353382899E+02 -0.12395715300E+02  0.45564947356E+02  0.47000000000E+01 0.  1.
         11    1    6    6    0    0 -0.12858416176E+02  0.11221293119E+02  0.33430167042E+02  0.37534415598E+02  0.00000000000E+00 0. -1.
        -12    1    6    6    0    0  0.89401088913E+02 -0.46541179659E+01  0.74252133740E+02  0.11630818921E+03  0.00000000000E+00 0.  1.
</event>
<event>
12    1  0.8271773E-002  0.2589451E+03  0.7818608E-02  0.1107794E+00
         21   -1    0    0  501  502  0.00000000000E+00  0.00000000000E+00  0.49945619078E+03  0.49945619078E+03  0.00000000000E+00 0.  1.
         21   -1    0    0  502  503 -0.00000000000E+00 -0.00000000000E+00 -0.45936227936E+03  0.45936227936E+03  0.00000000000E+00 0. -1.
         -6    2    1    2    0  503 -0.16699148186E+03 -0.96920045472E+02 -0.38330279771E+03  0.46251479268E+03  0.17239271589E+03 0.  0.
        -24    2    3    3    0    0 -0.11587457944E+03 -0.89907706733E+02 -0.15475562715E+03  0.22816887363E+03  0.81249103793E+02 0.  0.
          6    2    1    2  501    0  0.16699148186E+03  0.96920045472E+02  0.42339670912E+03  0.49630367746E+03  0.17254830260E+03 0.  0.
         24    2    5    5    0    0  0.18650456852E+03  0.10653105916E+03  0.33610664300E+03  0.40622161609E+03  0.76912321970E+02 0.  0.
          5    1    5    5  501    0 -0.19513086655E+02 -0.96110136872E+01  0.87290066128E+02  0.90082061364E+02  0.47000000000E+01 0. -1.
        -11    1    6    6    0    0  0.88217388601E+02  0.29195513267E+02  0.20475237218E+03  0.22485155005E+03  0.00000000000E+00 0.  1.
         12    1    6    6    0    0  0.98287179915E+02  0.77335545892E+02  0.13135427081E+03  0.18137006604E+03  0.00000000000E+00 0. -1.
         -5    1    3    3    0  503 -0.51116902417E+02 -0.70123387384E+01 -0.22854717056E+03  0.23434591905E+03  0.47000000000E+01 0.  1.
         13    1    4    4    0    0 -0.83301689639E+02 -0.64209509245E+02 -0.15422659707E+03  0.18667585762E+03  0.00000000000E+00 0. -1.
        -14    1    4    4    0    0 -0.32572889805E+02 -0.25698197488E+02 -0.52903007485E+00  0.41493016006E+02  0.00000000000E+00 0.  1.
</event>
<event>
12    1  0.8271773E-002  0.1892163E+03  0.7818608E-02  0.1159820E+00
         21   -1    0    0  501  502  0.00000000000E+00  0.00000000000E+00  0.21791271426E+03  0.21791271426E+03  0.00000000000E+00 0.  1.
         21   -1    0    0  502  503 -0.00000000000E+00 -0.00000000000E+00 -0.18583364708E+03  0.18583364708E+03  0.00000000000E+00 0.  1.
         -6    2    1    2    0  503 -0.13766142124E+02  0.76314700588E+02 -0.56601561023E+02  0.19477968121E+03  0.16947550652E+03 0.  0.
        -24    2    3    3    0    0 -0.72380342567E+02  0.35988413762E+02 -0.22103747474E+02  0.11557095037E+03  0.79586361904E+02 0.  0.
          6    2    1    2  501    0  0.13766142124E+02 -0.76314700588E+02  0.88680628208E+02  0.20896668013E+03  0.17259600051E+03 0.  0.
         24    2    5    5    0    0 -0.23907112763E+02  0.18686101234E+02  0.55676027435E+02  0.10146867944E+03  0.79217122241E+02 0.  0.
          5    1    5    5  501    0  0.37673254886E+02 -0.95000801822E+02  0.33004600772E+02  0.10749800069E+03  0.47000000000E+01 0. -1.
        -11    1    6    6    0    0 -0.13919339919E+02 -0.29441595723E+02  0.35943873879E+02  0.48502759220E+02  0.00000000000E+00 0.  1.
         12    1    6    6    0    0 -0.99877728435E+01  0.48127696957E+02  0.19732153556E+02  0.52965920219E+02  0.00000000000E+00 0. -1.
         -5    1    3    3    0  503  0.58614200443E+02  0.40326286827E+02 -0.34497813549E+02  0.79208730847E+02  0.47000000000E+01 0.  1.
         13    1    4    4    0    0 -0.65244910616E+02  0.35983465221E+01  0.13701120060E+02  0.66765014416E+02  0.00000000000E+00 0. -1.
        -14    1    4    4    0    0 -0.71354319501E+01  0.32390067239E+02 -0.35804867534E+02  0.48805935951E+02  0.00000000000E+00 0.  1.
</event>
<event>
12    1  0.8271773E-002  0.2339777E+03  0.7818608E-02  0.1125962E+00
         21   -1    0    0  503  502  0.00000000000E+00  0.00000000000E+00  0.38231332430E+03  0.38231332430E+03  0.00000000000E+00 0. -1.
         21   -1    0    0  501  503 -0.00000000000E+00 -0.00000000000E+00 -0.14650236558E+03  0.14650236558E+03  0.00000000000E+00 0. -1.
          6    2    1    2  501    0 -0.95130624741E+01  0.15859705099E+03  0.19133398610E+03  0.30224863652E+03  0.17176152392E+03 0.  0.
         24    2    3    3    0    0  0.38634828253E+02  0.13916420452E+03  0.86308205784E+02  0.18499523813E+03  0.76907775739E+02 0.  0.
         -6    2    1    2    0  502  0.95130624741E+01 -0.15859705099E+03  0.44476972611E+02  0.22656705336E+03  0.15527686767E+03 0.  0.
        -24    2    5    5    0    0  0.45482732487E+01 -0.55946348628E+02 -0.27373730712E+02  0.10108227581E+03  0.79483486559E+02 0.  0.
          5    1    3    3  501    0 -0.48147890727E+02  0.19432846469E+02  0.10502578032E+03  0.11725339840E+03  0.47000000000E+01 0. -1.
        -13    1    4    4    0    0 -0.43698182425E+01  0.28773028071E+02 -0.11572555794E+02  0.31319426934E+02  0.00000000000E+00 0.  1.
         14    1    4    4    0    0  0.43004646496E+02  0.11039117645E+03  0.97880761578E+02  0.15367581119E+03  0.00000000000E+00 0. -1.
         -5    1    5    5    0  502  0.49647892254E+01 -0.10265070237E+03  0.71850703322E+02  0.12548477755E+03  0.47000000000E+01 0.  1.
         11    1    6    6    0    0  0.23924058762E+02 -0.61280093798E+02  0.16202296512E+01  0.65804525891E+02  0.00000000000E+00 0. -1.
        -12    1    6    6    0    0 -0.19375785514E+02  0.53337451707E+01 -0.28993960363E+02  0.35277749919E+02  0.00000000000E+00 0.  1.
</event>
<event>
12    1  0.8271773E-002  0.1928245E+03  0.7818608E-02  0.1156112E+00
         21   -1    0    0  503  502  0.00000000000E+00  0.00000000000E+00  0.11882228668E+03  0.11882228668E+03  0.00000000000E+00 0.  1.
         21   -1    0    0  501  503 -0.00000000000E+00 -0.00000000000E+00 -0.83021617047E+03  0.83021617047E+03  0.00000000000E+00 0.  1.
          6    2    1    2  501    0  0.48976397766E+02  0.69228334881E+02 -0.73045192904E+03  0.75527438708E+03  0.17230243538E+03 0.  0.
         24    2    3    3    0    0 -0.15270158558E+02  0.20857638450E+02 -0.56246010082E+03  0.56896633941E+03  0.81811438988E+02 0.  0.
         -6    2    1    2    0  502 -0.48976397766E+02 -0.69228334881E+02  0.19058045255E+02  0.19376407007E+03  0.17317637216E+03 0.  0.
        -24    2    5    5    0    0 -0.10002208626E+03 -0.46647605724E+02  0.62544931077E+01  0.13630475760E+03  0.79746168562E+02 0.  0.
          5    1    3    3  501    0  0.64246556324E+02  0.48370696431E+02 -0.16799182823E+03  0.18630804766E+03  0.47000000000E+01 0. -1.
        -13    1    4    4    0    0  0.49386025012E+01  0.46212068907E+02 -0.43385338991E+03  0.43633554639E+03  0.00000000000E+00 0.  1.
         14    1    4    4    0    0 -0.20208761059E+02 -0.25354430457E+02 -0.12860671090E+03  0.13263079302E+03  0.00000000000E+00 0. -1.
         -5    1    5    5    0  502  0.51045688491E+02 -0.22580729157E+02  0.12803552147E+02  0.57459312477E+02  0.47000000000E+01 0.  1.
         11    1    6    6    0    0  0.10174543421E+02 -0.18855601342E+02  0.73530926545E+01  0.22652218597E+02  0.00000000000E+00 0. -1.
        -12    1    6    6    0    0 -0.11019662968E+03 -0.27792004382E+02 -0.10985995467E+01  0.11365253900E+03  0.00000000000E+00 0.  1.
</event>
<event>
12    1  0.8271773E-002  0.1999670E+03  0.7818608E-02  0.1150243E+00
         21   -1    0    0  501  502  0.00000000000E+00  0.00000000000E+00  0.12220748176E+04  0.12220748176E+04  0.00000000000E+00 0.  1.
         21   -1    0    0  502  503 -0.00000000000E+00 -0.00000000000E+00 -0.53773041060E+02  0.53773041060E+02  0.00000000000E+00 0.  1.
         -6    2    1    2    0  503  0.10641638917E+03 -0.77572605076E+01  0.18353009483E+03  0.27142232659E+03  0.16912173334E+03 0.  0.
        -24    2    3    3    0    0  0.76266961431E+02  0.27821943093E+02  0.19223738061E+03  0.22374870131E+03  0.80731412157E+02 0.  0.
          6    2    1    2  501    0 -0.10641638917E+03  0.77572605076E+01  0.98477168166E+03  0.10044255320E+04  0.16646549615E+03 0.  0.
         24    2    5    5    0    0 -0.12532755849E+03 -0.38124925405E+01  0.95620274832E+03  0.96795958266E+03  0.83069403238E+02 0.  0.
          5    1    5    5  501    0  0.18911169323E+02  0.11569753048E+02  0.28568933341E+02  0.36465949364E+02  0.47000000000E+01 0. -1.
        -13    1    6    6    0    0 -0.22734148547E+01  0.10109150059E+02  0.29968147325E+03  0.29986054882E+03  0.00000000000E+00 0.  1.
         14    1    6    6    0    0 -0.12305414364E+03 -0.13921642599E+02  0.65652127507E+03  0.66809903384E+03  0.00000000000E+00 0. -1.
         -5    1    3    3    0  503  0.30149427737E+02 -0.35579203601E+02 -0.87072857812E+01  0.47673625280E+02  0.47000000000E+01 0.  1.
         11    1    4    4    0    0  0.20653773270E+02 -0.23652268863E+02  0.24977701471E+02  0.40123481198E+02  0.00000000000E+00 0. -1.
        -12    1    4    4    0    0  0.55613188161E+02  0.51474211956E+02  0.16725967914E+03  0.18362522011E+03  0.00000000000E+00 0.  1.
</event>
<event>
12    1  0.8271773E-002  0.1912142E+03  0.7818608E-02  0.1157375E+00
         21   -1    0    0  503  502  0.00000000000E+00  0.00000000000E+00  0.20870420917E+03  0.20870420917E+03  0.00000000000E+00 0. -1.
         21   -1    0    0  501  503 -0.00000000000E+00 -0.00000000000E+00 -0.31733799016E+03  0.31733799016E+03  0.00000000000E+00 0. -1.
          6    2    1    2  501    0 -0.82036995488E+02 -0.16268149115E+02 -0.23036589975E+03  0.29938492292E+03  0.17195395605E+03 0.  0.
         24    2    3    3    0    0  0.19946811499E+02 -0.36431261129E+02 -0.90504016828E+02  0.12505568192E+03  0.75649417989E+02 0.  0.
         -6    2    1    2    0  502  0.82036995488E+02  0.16268149115E+02  0.12173211875E+03  0.22665727641E+03  0.17193048278E+03 0.  0.
        -24    2    5    5    0    0  0.73763114760E+02  0.21241261859E+02  0.68779335388E+01  0.11130233367E+03  0.80303892849E+02 0.  0.
          5    1    3    3  501    0 -0.10198380699E+03  0.20163112014E+02 -0.13986188292E+03  0.17432924100E+03  0.47000000000E+01 0. -1.
        -13    1    4    4    0    0 -0.62289967036E+01 -0.53540068838E+02 -0.66691595536E+02  0.85750266974E+02  0.00000000000E+00 0.  1.
         14    1    4    4    0    0  0.26175808202E+02  0.17108807709E+02 -0.23812421292E+02  0.39305414946E+02  0.00000000000E+00 0. -1.
         -5    1    5    5    0  502  0.82738807273E+01 -0.49731127439E+01  0.11485418522E+03  0.11535494274E+03  0.47000000000E+01 0.  1.
         11    1    6    6    0    0  0.67747857088E+02  0.54210541368E+00  0.34690152662E+02  0.76114865237E+02  0.00000000000E+00 0. -1.
        -12    1    6    6    0    0  0.60152576727E+01  0.20699156445E+02 -0.27812219123E+02  0.35187468436E+02  0.00000000000E+00 0.  1.
</event>
<event>
12    1  0.8271773E-002  0.1954287E+03  0.7818608E-02  0.1153757E+00
         21   -1    0    0  501  502  0.00000000000E+00  0.00000000000E+00  0.20130831727E+03  0.20130831727E+03  0.00000000000E+00 0. -1.
         21   -1    0    0  502  503 -0.00000000000E+00 -0.00000000000E+00 -0.20498517267E+03  0.20498517267E+03  0.00000000000E+00 0. -1.
         -6    2    1    2    0  503 -0.43462698657E+01 -0.93168251330E+02 -0.58094484314E+02  0.20342983820E+03  0.17120022442E+03 0.  0.
        -24    2    3    3    0    0  0.57238385037E+01 -0.26371487768E+02  0.39860144324E+02  0.84348294804E+02  0.69264608831E+02 0.  0.
          6    2    1    2  501    0  0.43462698657E+01  0.93168251330E+02  0.54417628916E+02  0.20286365175E+03  0.17173575558E+03 0.  0.
         24    2    5    5    0    0 -0.78273056647E+01  0.56324264659E+02  0.10143792423E+03  0.14171895887E+03  0.80999514375E+02 0.  0.
          5    1    5    5  501    0  0.12173575530E+02  0.36843986671E+02 -0.47020295314E+02  0.61144692873E+02  0.47000000000E+01 0. -1.
        -11    1    6    6    0    0 -0.20664396535E+02 -0.50350768019E+01  0.66786868445E+02  0.70091761850E+02  0.00000000000E+00 0.  1.
         12    1    6    6    0    0  0.12837090870E+02  0.61359341461E+02  0.34651055785E+02  0.71627197024E+02  0.00000000000E+00 0. -1.
         -5    1    3    3    0  503 -0.10070108369E+02 -0.66796763563E+02 -0.97954628638E+02  0.11908154339E+03  0.47000000000E+01 0.  1.
         13    1    4    4    0    0  0.27093796736E+01 -0.49928762483E+02  0.31850216619E+02  0.59284554143E+02  0.00000000000E+00 0. -1.
        -14    1    4    4    0    0  0.30144588301E+01  0.23557274715E+02  0.80099277050E+01  0.25063740660E+02  0.00000000000E+00 0.  1.
</event>
<event>
12    1  0.8271773E-002  0.2951654E+03  0.7818608E-02  0.1087801E+00
         21   -1    0    0  501  502  0.00000000000E+00  0.00000000000E+00  0.10708988501E+03  0.10708988501E+03  0.00000000000E+00 0.  1.
         21   -1    0    0  502  503 -0.00000000000E+00 -0.00000000000E+00 -0.11978076676E+04  0.11978076676E+04  0.00000000000E+00 0. -1.
         -6    2    1    2    0  503 -0.17339722885E+03 -0.16411157366E+03 -0.91554610681E+03  0.96166621800E+03  0.17198265485E+03 0.  0.
        -24    2    3    3    0    0 -0.13992818465E+02 -0.44788118210E+02 -0.27972442857E+03  0.29537863025E+03  0.82468204596E+02 0.  0.
          6    2    1    2  501    0  0.17339722885E+03  0.16411157366E+03 -0.17517167575E+03  0.34323133458E+03  0.17356101368E+03 0.  0.
         24    2    5    5    0    0  0.17899235890E+03  0.17665433867E+03 -0.12698636513E+03  0.29290698069E+03  0.80149500901E+02 0.  0.
          5    1    5    5  501    0 -0.55951300489E+01 -0.12542765009E+02 -0.48185310627E+02  0.50324353891E+02  0.47000000000E+01 0. -1.
        -11    1    6    6    0    0  0.17975961098E+03  0.15122989466E+03 -0.12786187568E+03  0.26745589922E+03  0.00000000000E+00 0.  1.
         12    1    6    6    0    0 -0.76725208289E+00  0.25424444015E+02  0.87551054908E+00  0.25451081469E+02  0.00000000000E+00 0. -1.
         -5    1    3    3    0  503 -0.15940441038E+03 -0.11932345545E+03 -0.63582167824E+03  0.66628758775E+03  0.47000000000E+01 0.  1.
         13    1    4    4    0    0 -0.32264040278E+02 -0.40667749029E+02 -0.26864998731E+03  0.27361953473E+03  0.00000000000E+00 0. -1.
        -14    1    4    4    0    0  0.18271221813E+02 -0.41203691813E+01 -0.11074441268E+02  0.21759095526E+02  0.00000000000E+00 0.  1.
</event>
<event>
12    1  0.8271773E-002  0.1738150E+03  0.7818608E-02  0.1174022E+00
         21   -1    0    0  501  502  0.00000000000E+00  0.00000000000E+00  0.11953791571E+03  0.11953791571E+03  0.00000000000E+00 0. -1.
         21   -1    0    0  502  503 -0.00000000000E+00 -0.00000000000E+00 -0.26630084767E+03  0.26630084767E+03  0.00000000000E+00 0. -1.
         -6    2    1    2    0  503  0.94990450421E+01 -0.15030391061E+02 -0.11786698744E+03  0.21001022439E+03  0.17290321891E+03 0.  0.
        -24    2    3    3    0    0 -0.43363804467E+02 -0.47018659674E+02 -0.38161188302E+02  0.10905065524E+03  0.79652967430E+02 0.  0.
          6    2    1    2  501    0 -0.94990450421E+01  0.15030391061E+02 -0.28895944523E+02  0.17582853899E+03  0.17252407079E+03 0.  0.
         24    2    5    5    0    0 -0.32486502566E+02  0.13803392934E+02 -0.80588088667E+02  0.11904741102E+03  0.80199373622E+02 0.  0.
          5    1    5    5  501    0  0.22987457524E+02  0.12269981277E+01  0.51692144144E+02  0.56781127974E+02  0.47000000000E+01 0. -1.
        -11    1    6    6    0    0 -0.17944274371E+02  0.25432628856E+02  0.49404379241E+01  0.31515448912E+02  0.00000000000E+00 0.  1.
         12    1    6    6    0    0 -0.14542228195E+02 -0.11629235923E+02 -0.85528526591E+02  0.87531962105E+02  0.00000000000E+00 0. -1.
         -5    1    3    3    0  503  0.52862849509E+02  0.31988268612E+02 -0.79705799137E+02  0.10095956915E+03  0.47000000000E+01 0.  1.
         11    1    4    4    0    0  0.18890460077E+01  0.14960749847E+02  0.10324646862E+02  0.18275416920E+02  0.00000000000E+00 0. -1.
        -12    1    4    4    0    0 -0.45252850475E+02 -0.61979409520E+02 -0.48485835164E+02  0.90775238320E+02  0.00000000000E+00 0.  1.
</event>
<event>
12    1  0.8271773E-002  0.2079369E+03  0.7818608E-02  0.1143443E+00
         21   -1    0    0  503  502  0.00000000000E+00  0.00000000000E+00  0.77837652845E+03  0.77837652845E+03  0.00000000000E+00 0.  1.
         21   -1    0    0  501  503 -0.00000000000E+00 -0.00000000000E+00 -0.59291257207E+02  0.59291257207E+02  0.00000000000E+00 0. -1.
          6    2    1    2  501    0 -0.30949537017E+02 -0.11214272664E+03  0.24912062154E+03  0.32375678577E+03  0.17094884402E+03 0.  0.
         24    2    3    3    0    0 -0.49979823912E+02 -0.87128648845E+02  0.25987740986E+03  0.29020601227E+03  0.81202691792E+02 0.  0.
         -6    2    1    2    0  502  0.30949537017E+02  0.11214272664E+03  0.46996464970E+03  0.51391099989E+03  0.17234813274E+03 0.  0.
        -24    2    5    5    0    0  0.50313162037E+02  0.88461988656E+02  0.46488445229E+03  0.48254819180E+03  0.79864045224E+02 0.  0.
          5    1    3    3  501    0  0.19030286895E+02 -0.25014077800E+02 -0.10756788315E+02  0.33550773499E+02  0.47000000000E+01 0. -1.
        -13    1    4    4    0    0  0.43634511828E+01 -0.59869621224E+02  0.18050569565E+03  0.19022543840E+03  0.00000000000E+00 0.  1.
         14    1    4    4    0    0 -0.54343275095E+02 -0.27259027620E+02  0.79371714204E+02  0.99980573865E+02  0.00000000000E+00 0. -1.
         -5    1    5    5    0  502 -0.19363625020E+02  0.23680737988E+02  0.50801974123E+01  0.31362808090E+02  0.47000000000E+01 0.  1.
         13    1    6    6    0    0  0.53682205409E+02  0.53524794489E+02  0.17725251937E+03  0.19278261961E+03  0.00000000000E+00 0. -1.
        -14    1    6    6    0    0 -0.33690433726E+01  0.34937194167E+02  0.28763193292E+03  0.28976557219E+03  0.00000000000E+00 0.  1.
</event>
<event>
12    1  0.8271773E-002  0.1851096E+03  0.7818608E-02  0.1162959E+00
         21   -1    0    0  501  502  0.00000000000E+00  0.00000000000E+00  0.13406198870E+03  0.13406198870E+03  0.00000000000E+00 0.  1.
         21   -1    0    0  502  503 -0.00000000000E+00 -0.00000000000E+00 -0.25575435392E+03  0.25575435392E+03  0.00000000000E+00 0. -1.
         -6    2    1    2    0  503  0.53219485651E+02 -0.42538100451E+02 -0.55045619926E+02  0.19307453546E+03  0.17206380307E+03 0.  0.
        -24    2    3    3    0    0  0.64467715772E+02 -0.27240517893E+02  0.26198387700E+02  0.10950888768E+03  0.80048165319E+02 0.  0.
          6    2    1    2  501    0 -0.53219485651E+02  0.42538100451E+02 -0.66646745296E+02  0.19674180716E+03  0.17211550303E+03 0.  0.
         24    2    5    5    0    0  0.35048731374E+02  0.28667544945E+01 -0.23147485212E+02  0.90537431289E+02  0.80153531054E+02 0.  0.
          5    1    5    5  501    0 -0.88268217025E+02  0.39671345957E+02 -0.43499260084E+02  0.10620437587E+03  0.47000000000E+01 0. -1.
        -13    1    6    6    0    0  0.14937081269E+02  0.37182577058E+02  0.69364440909E+01  0.40666628704E+02  0.00000000000E+00 0.  1.
         14    1    6    6    0    0  0.20111650105E+02 -0.34315822563E+02 -0.30083929303E+02  0.49870802585E+02  0.00000000000E+00 0. -1.
         -5    1    3    3    0  503 -0.11248230121E+02 -0.15297582558E+02 -0.81244007627E+02  0.83565647776E+02  0.47000000000E+01 0.  1.
         13    1    4    4    0    0 -0.35369483301E+01  0.17907031655E+02 -0.93136028780E+01  0.20491827267E+02  0.00000000000E+00 0. -1.
        -14    1    4    4    0    0  0.68004664103E+02 -0.45147549548E+02  0.35511990578E+02  0.89017060414E+02  0.00000000000E+00 0.  1.
</event>
<event>
12    1  0.8271773E-002  0.2549089E+03  0.7818608E-02  0.1110318E+00
         21   -1    0    0  503  502  0.00000000000E+00  0.00000000000E+00  0.56874515106E+03  0.56874515106E+03  0.00000000000E+00 0. -1.
         21   -1    0    0  501  503 -0.00000000000E+00 -0.00000000000E+00 -0.11618946378E+03  0.11618946378E+03  0.00000000000E+00 0.  1.
          6    2    1    2  501    0 -0.16046715855E+03  0.96957555394E+02  0.27280289228E+03  0.37302181720E+03  0.17196912965E+03 0.  0.
         24    2    3    3    0    0 -0.35177320966E+02  0.12183051684E+02  0.16282431483E+03  0.18593457184E+03  0.81694778576E+02 0.  0.
         -6    2    1    2    0  502  0.16046715855E+03 -0.96957555394E+02  0.17975279500E+03  0.31191279764E+03  0.17270798910E+03 0.  0.
        -24    2    5    5    0    0  0.14641134946E+02 -0.63920850850E+02  0.93195893796E+02  0.13908097142E+03  0.79735838777E+02 0.  0.
          5    1    3    3  501    0 -0.12528983758E+03  0.84774503710E+02  0.10997857745E+03  0.18708724536E+03  0.47000000000E+01 0. -1.
        -13    1    4    4    0    0  0.63383068172E+01  0.14635660810E+02 -0.18811603803E+01  0.16059746730E+02  0.00000000000E+00 0.  1.
         14    1    4    4    0    0 -0.41515627783E+02 -0.24526091263E+01  0.16470547521E+03  0.16987482511E+03  0.00000000000E+00 0. -1.
         -5    1    5    5    0  502  0.14582602360E+03 -0.33036704544E+02  0.86556901203E+02  0.17283182621E+03  0.47000000000E+01 0.  1.
         11    1    6    6    0    0  0.17080266166E+02  0.96002429467E+01  0.50170539533E+02  0.53860776025E+02  0.00000000000E+00 0. -1.
        -12    1    6    6    0    0 -0.24391312198E+01 -0.73521093797E+02  0.43025354262E+02  0.85220195398E+02  0.00000000000E+00 0.  1.
</event>
<event>
12    1  0.8271773E-002  0.1760230E+03  0.7818608E-02  0.1171774E+00
         21   -1    0    0  501  502  0.00000000000E+00  0.00000000000E+00  0.32574496978E+03  0.32574496978E+03  0.00000000000E+00 0. -1.
         21   -1    0    0  502  503 -0.00000000000E+00 -0.00000000000E+00 -0.10686751822E+03  0.10686751822E+03  0.00000000000E+00 0.  1.
         -6    2    1    2    0  503  0.17564457111E+02  0.32881112428E+02  0.37213662356E+02  0.17965825750E+03  0.17176307844E+03 0.  0.
        -24    2    3    3    0    0 -0.55634127391E+02  0.35545291708E+02  0.21672420410E+02  0.10463325617E+03  0.78229154392E+02 0.  0.
          6    2    1    2  501    0 -0.17564457111E+02 -0.32881112428E+02  0.18166378921E+03  0.25295423050E+03  0.17203032498E+03 0.  0.
         24    2    5    5    0    0 -0.17384682569E+02  0.22087903167E+02  0.26328625075E+02  0.88112705970E+02  0.79249919878E+02 0.  0.
          5    1    5    5  501    0 -0.17977454159E+00 -0.54969015595E+02  0.15533516413E+03  0.16484152453E+03  0.47000000000E+01 0. -1.
        -13    1    6    6    0    0  0.39480062870E+01  0.42191051333E+02  0.37654725640E+02  0.56688181566E+02  0.00000000000E+00 0.  1.
         14    1    6    6    0    0 -0.21332688856E+02 -0.20103148166E+02 -0.11326100565E+02  0.31424524404E+02  0.00000000000E+00 0. -1.
         -5    1    3    3    0  503  0.73198584501E+02 -0.26641792796E+01  0.15541241945E+02  0.75025001336E+02  0.47000000000E+01 0.  1.
         11    1    4    4    0    0 -0.43245978629E+02  0.34917054571E+01  0.45458400212E+02  0.62840057482E+02  0.00000000000E+00 0. -1.
        -12    1    4    4    0    0 -0.12388148762E+02  0.32053586251E+02 -0.23785979802E+02  0.41793198686E+02  0.00000000000E+00 0.  1.
</event>
<event>
12    1  0.8271773E-002  0.1862773E+03  0.7818608E-02  0.1161880E+00
         21   -1    0    0  501  502  0.00000000000E+00  0.00000000000E+00  0.12410582909E+04  0.12410582909E+04  0.00000000000E+00 0. -1.
         21   -1    0    0  502  503 -0.00000000000E+00 -0.00000000000E+00 -0.34553907903E+02  0.34553907903E+02  0.00000000000E+00 0. -1.
         -6    2    1    2    0  503 -0.42824370551E+02  0.55870112337E+02  0.32448117860E+03  0.37414873277E+03  0.17246403336E+03 0.  0.
        -24    2    3    3    0    0 -0.57846489568E+02 -0.17016030069E+02  0.24750104195E+03  0.26697557730E+03  0.79896379598E+02 0.  0.
          6    2    1    2  501    0  0.42824370551E+02 -0.55870112337E+02  0.88202320437E+03  0.90146346601E+03  0.17238344274E+03 0.  0.
         24    2    5    5    0    0  0.48332020051E+02  0.21689546910E+02  0.64304317866E+03  0.65010838324E+03  0.79561044032E+02 0.  0.
          5    1    5    5  501    0 -0.55076494995E+01 -0.77559659247E+02  0.23898002571E+03  0.25135508277E+03  0.47000000000E+01 0. -1.
        -13    1    6    6    0    0  0.63158950980E+02  0.36641502707E+02  0.44525489193E+03  0.45120236213E+03  0.00000000000E+00 0.  1.
         14    1    6    6    0    0 -0.14826930930E+02 -0.14951955796E+02  0.19778828673E+03  0.19890602110E+03  0.00000000000E+00 0. -1.
         -5    1    3    3    0  503  0.15022119017E+02  0.72886142405E+02  0.76980136644E+02  0.10717315546E+03  0.47000000000E+01 0.  1.
         13    1    4    4    0    0 -0.35225059821E+02  0.18848571627E+02  0.45403912393E+02  0.60478002219E+02  0.00000000000E+00 0. -1.
        -14    1    4    4    0    0 -0.22621429747E+02 -0.35864601696E+02  0.20209712956E+03  0.20649757508E+03  0.00000000000E+00 0.  1.
</event>
<event>
12    1  0.8271773E-002  0.2241460E+03  0.7818608E-02  0.1130934E+00
         21   -1    0    0  501  502  0.00000000000E+00  0.00000000000E+00  0.23671870434E+03  0.23671870434E+03  0.00000000000E+00 0. -1.
         21   -1    0    0  502  503 -0.00000000000E+00 -0.00000000000E+00 -0.26278711930E+03  0.26278711930E+03  0.00000000000E+00 0. -1.
         -6    2    1    2    0  503  0.94135439702E+02  0.10835109579E+03 -0.12314153440E+03  0.25524243213E+03  0.17141592895E+03 0.  0.
        -24    2    3    3    0    0 -0.17707545721E+02  0.47689373978E+02 -0.70950291273E+02  0.11763896655E+03  0.78848900135E+02 0.  0.
          6    2    1    2  501    0 -0.94135439702E+02 -0.10835109579E+03  0.97073119435E+02  0.24426339151E+03  0.17216263517E+03 0.  0.
         24    2    5    5    0    0 -0.10977882979E+03 -0.46237433985E+02  0.18841397954E+02  0.14304523660E+03  0.76926261231E+02 0.  0.
          5    1    5    5  501    0  0.15643390088E+02 -0.62113661807E+02  0.78231721481E+02  0.10121815491E+03  0.47000000000E+01 0. -1.
        -13    1    6    6    0    0 -0.93444543231E+02 -0.65759150610E+02  0.57159425634E+01  0.11440638334E+03  0.00000000000E+00 0.  1.
         14    1    6    6    0    0 -0.16334286558E+02  0.19521716625E+02  0.13125455391E+02  0.28638853269E+02  0.00000000000E+00 0. -1.
         -5    1    3    3    0  503  0.11184298542E+03  0.60661721814E+02 -0.52191243122E+02  0.13760346558E+03  0.47000000000E+01 0.  1.
         13    1    4    4    0    0  0.16706515705E+02 -0.14672158427E+02 -0.12557123572E+02  0.25535490054E+02  0.00000000000E+00 0. -1.
        -14    1    4    4    0    0 -0.34414061426E+02  0.62361532405E+02 -0.58393167701E+02  0.92103476492E+02  0.00000000000E+00 0.  1.
</event>
<event>
12    1  0.8271773E-002  0.1989914E+03  0.7818608E-02  0.1151246E+00
         21   -1    0    0  503  502  0.00000000000E+00  0.00000000000E+00  0.39327366482E+03  0.39327366482E+03  0.00000000000E+00 0.  1.
         21   -1    0    0  501  503 -0.00000000000E+00 -0.00000000000E+00 -0.11800853473E+03  0.11800853473E+03  0.00000000000E+00 0.  1.
          6    2    1    2  501    0 -0.47267084457E+02  0.84472293486E+02  0.36333306590E+02  0.20228116726E+03  0.17386148458E+03 0.  0.
         24    2    3    3    0    0  0.16583495758E+02  0.91791520622E+02 -0.10555287237E+02  0.12258739140E+03  0.78838815642E+02 0.  0.
         -6    2    1    2    0  502  0.47267084457E+02 -0.84472293486E+02  0.23893182351E+03  0.30900103229E+03  0.17036277773E+03 0.  0.
        -24    2    5    5    0    0  0.95804959809E+02 -0.43670435931E+02  0.16548734523E+03  0.21185733300E+03  0.80073533803E+02 0.  0.
          5    1    3    3  501    0 -0.63850580215E+02 -0.73192271369E+01  0.46888593828E+02  0.79693775860E+02  0.47000000000E+01 0. -1.
        -11    1    4    4    0    0  0.40903931216E+02  0.21522366115E+02 -0.13557605510E+02  0.48167961336E+02  0.00000000000E+00 0.  1.
         12    1    4    4    0    0 -0.24320435459E+02  0.70269154507E+02  0.30023182722E+01  0.74419430064E+02  0.00000000000E+00 0. -1.
         -5    1    5    5    0  502 -0.48537875352E+02 -0.40801857555E+02  0.73444478279E+02  0.97143699298E+02  0.47000000000E+01 0.  1.
         13    1    6    6    0    0  0.97301518689E+02 -0.59931985734E+02  0.13196259479E+03  0.17456676338E+03  0.00000000000E+00 0. -1.
        -14    1    6    6    0    0 -0.14965588793E+01  0.16261549803E+02  0.33524750439E+02  0.37290569618E+02  0.00000000000E+00 0.  1.
</event>
<event>
12    1  0.8271773E-002  0.1925058E+03  0.7818608E-02  0.1156431E+00
         21   -1    0    0  503  502  0.00000000000E+00  0.00000000000E+00  0.14690570735E+03  0.14690570735E+03  0.00000000000E+00 0.  1.
         21   -1    0    0  501  503 -0.00000000000E+00 -0.00000000000E+00 -0.25192917632E+03  0.25192917632E+03  0.00000000000E+00 0.  1.
          6    2    1    2  501    0  0.20600383620E+01 -0.86701724538E+02 -0.40681280151E+02  0.19675730965E+03  0.17186343285E+03 0.  0.
         24    2    3    3    0    0  0.27298370558E+02 -0.71924310524E+02 -0.81840856926E+02  0.14604689517E+03  0.93345927852E+02 0.  0.
         -6    2    1    2    0  502 -0.20600383620E+01  0.86701724538E+02 -0.64342188825E+02  0.20207757402E+03  0.17080396911E+03 0.  0.
        -24    2    5    5    0    0 -0.57764341652E+02  0.33157003418E+02 -0.63900807222E+02  0.12466768200E+03  0.83801024631E+02 0.  0.
          5    1    3    3  501    0 -0.25238332196E+02 -0.14777414014E+02  0.41159576775E+02  0.50710414485E+02  0.47000000000E+01 0. -1.
        -11    1    4    4    0    0  0.24084162076E+02  0.42104509267E+01  0.10254528000E+02  0.26512829054E+02  0.00000000000E+00 0.  1.
         12    1    4    4    0    0  0.32142084814E+01 -0.76134761451E+02 -0.92095384926E+02  0.11953406612E+03  0.00000000000E+00 0. -1.
         -5    1    5    5    0  502  0.55704303290E+02  0.53544721120E+02 -0.44138160301E+00  0.77409892020E+02  0.47000000000E+01 0.  1.
         11    1    6    6    0    0  0.78643174630E+01  0.19994593977E+02  0.11065227433E+02  0.24167551295E+02  0.00000000000E+00 0. -1.
        -12    1    6    6    0    0 -0.65628659115E+02  0.13162409441E+02 -0.74966034654E+02  0.10050013070E+03  0.00000000000E+00 0.  1.
</event>
<event>
12    1  0.8271773E-002  0.1799022E+03  0.7818608E-02  0.1168785E+00
         21   -1    0    0  503  502  0.00000000000E+00  0.00000000000E+00  0.25267234144E+02  0.25267234144E+02  0.00000000000E+00 0. -1.
         21   -1    0    0  501  503 -0.00000000000E+00 -0.00000000000E+00 -0.12820649729E+04  0.12820649729E+04  0.00000000000E+00 0. -1.
          6    2    1    2  501    0 -0.26781284905E+02  0.34733217412E+02 -0.52755169443E+03  0.55622329803E+03  0.17073351566E+03 0.  0.
         24    2    3    3    0    0 -0.68327579258E+01  0.73814274509E+02 -0.47555687860E+03  0.48802635070E+03  0.80747386911E+02 0.  0.
         -6    2    1    2    0  502  0.26781284905E+02 -0.34733217412E+02 -0.72924604430E+03  0.75110890899E+03  0.17447397059E+03 0.  0.
        -24    2    5    5    0    0 -0.31883813469E+02 -0.20271271689E+02 -0.17531219673E+03  0.19386969722E+03  0.73645034867E+02 0.  0.
          5    1    3    3  501    0 -0.19948526980E+02 -0.39081057097E+02 -0.51994815831E+02  0.68196947335E+02  0.47000000000E+01 0. -1.
        -13    1    4    4    0    0  0.37746740287E+01 -0.42981753510E+01  0.25758975359E+00  0.57261529715E+01  0.00000000000E+00 0.  1.
         14    1    4    4    0    0 -0.10607431955E+02  0.78112449860E+02 -0.47581446835E+03  0.48230019773E+03  0.00000000000E+00 0. -1.
         -5    1    5    5    0  502  0.58665098375E+02 -0.14461945724E+02 -0.55393384758E+03  0.55723921177E+03  0.47000000000E+01 0.  1.
         11    1    6    6    0    0  0.10545701220E+02  0.35330167729E+01  0.81026157473E+00  0.11151257578E+02  0.00000000000E+00 0. -1.
        -12    1    6    6    0    0 -0.42429514690E+02 -0.23804288461E+02 -0.17612245830E+03  0.18271843964E+03  0.00000000000E+00 0.  1.
</event>
<event>
12    1  0.8271773E-002  0.2212930E+03  0.7818608E-02  0.1133017E+00
         21   -1    0    0  503  502  0.00000000000E+00  0.00000000000E+00  0.15299025529E+04  0.15299025529E+04  0.00000000000E+00 0.  1.
         21   -1    0    0  501  503 -0.00000000000E+00 -0.00000000000E+00 -0.75774068355E+02  0.75774068355E+02  0.00000000000E+00 0.  1.
          6    2    1    2  501    0 -0.45702420315E+02 -0.13196001835E+03  0.11605498072E+03  0.24942763959E+03  0.17100652378E+03 0.  0.
         24    2    3    3    0    0  0.24704818676E+02 -0.31945837457E+02  0.15388482679E+02  0.90947831698E+02  0.80023984497E+02 0.  0.
         -6    2    1    2    0  502  0.45702420315E+02  0.13196001835E+03  0.13380735038E+04  0.13562489816E+04  0.17166374386E+03 0.  0.
        -24    2    5    5    0    0 -0.38755566447E+02  0.74591740916E+02  0.54899036076E+03  0.56057406849E+03  0.76071994271E+02 0.  0.
          5    1    3    3  501    0 -0.70407238990E+02 -0.10001418090E+03  0.10066649804E+03  0.15847980790E+03  0.47000000000E+01 0. -1.
        -13    1    4    4    0    0 -0.24303572011E+02 -0.21054917451E+02 -0.11309648163E+02  0.34086380021E+02  0.00000000000E+00 0.  1.
         14    1    4    4    0    0  0.49008390687E+02 -0.10890920006E+02  0.26698130842E+02  0.56861451676E+02  0.00000000000E+00 0. -1.
         -5    1    5    5    0  502  0.84457986762E+02  0.57368277438E+02  0.78908314304E+03  0.79567491315E+03  0.47000000000E+01 0.  1.
         13    1    6    6    0    0  0.12069347101E+02  0.58514672304E+02  0.31095439490E+03  0.31664218247E+03  0.00000000000E+00 0. -1.
        -14    1    6    6    0    0 -0.50824913549E+02  0.16077068612E+02  0.23803596587E+03  0.24393188602E+03  0.00000000000E+00 0.  1.
</event>
<event>
12    1  0.8271773E-002  0.1793668E+03  0.7818608E-02  0.1168538E+00
         21   -1    0    0  503  502  0.00000000000E+00  0.00000000000E+00  0.72814222548E+02  0.72814222548E+02  0.00000000000E+00 0.  1.
         21   -1    0    0  501  503 -0.00000000000E+00 -0.00000000000E+00 -0.57377003534E+03  0.57377003534E+03  0.00000000000E+00 0.  1.
          6    2    1    2  501    0  0.43671191760E+02 -0.25561988249E+02 -0.40648106613E+03  0.44429643361E+03  0.17208101453E+03 0.  0.
         24    2    3    3    0    0 -0.13910049551E+02  0.45384543057E+02 -0.18925571606E+03  0.20858908886E+03  0.73745750404E+02 0.  0.
         -6    2    1    2    0  502 -0.43671191760E+02  0.25561988249E+02 -0.94474746657E+02  0.20228782428E+03  0.17156426744E+03 0.  0.
        -24    2    5    5    0    0 -0.69475505132E+02  0.45188367894E+02 -0.11594022036E+03  0.16312261104E+03  0.79360047439E+02 0.  0.
          5    1    3    3  501    0  0.57581241311E+02 -0.70946531305E+02 -0.21722535008E+03  0.23570734475E+03  0.47000000000E+01 0. -1.
        -13    1    4    4    0    0  0.26756795923E+02  0.10159852276E+02 -0.10323598320E+03  0.10712990690E+03  0.00000000000E+00 0.  1.
         14    1    4    4    0    0 -0.40666845474E+02  0.35224690780E+02 -0.86019732860E+02  0.10145918195E+03  0.00000000000E+00 0. -1.
         -5    1    5    5    0  502  0.25804313372E+02 -0.19626379645E+02  0.21465473702E+02  0.39165213236E+02  0.47000000000E+01 0.  1.
         11    1    6    6    0    0 -0.58212741308E+02 -0.69466099562E+01 -0.42740240250E+02  0.72551407823E+02  0.00000000000E+00 0. -1.
        -12    1    6    6    0    0 -0.11262763825E+02  0.52134977850E+02 -0.73199980109E+02  0.90571203218E+02  0.00000000000E+00 0.  1.
</event>
<event>
12    1  0.8271773E-002  0.2162583E+03  0.7818608E-02  0.1137099E+00
         21   -1    0    0  503  502  0.00000000000E+00  0.00000000000E+00  0.48467046750E+03  0.48467046750E+03  0.00000000000E+00 0.  1.
         21   -1    0    0  501  503 -0.00000000000E+00 -0.00000000000E+00 -0.98764595598E+02  0.98764595598E+02  0.00000000000E+00 0.  1.
          6    2    1    2  501    0  0.17768220445E+02 -0.12672122588E+03  0.14142037201E+03  0.25839380675E+03  0.17433777273E+03 0.  0.
         24    2    3    3    0    0 -0.20775733024E+02 -0.46092231036E+02  0.27243974321E+01  0.93332198482E+02  0.78405051416E+02 0.  0.
         -6    2    1    2    0  502 -0.17768220445E+02  0.12672122588E+03  0.24448549989E+03  0.32504125635E+03  0.17176926363E+03 0.  0.
        -24    2    5    5    0    0 -0.69368773180E+02  0.39113245007E+02  0.11121997380E+03  0.15735236048E+03  0.77768953626E+02 0.  0.
          5    1    3    3  501    0  0.38543953469E+02 -0.80628994845E+02  0.13869597458E+03  0.16506160827E+03  0.47000000000E+01 0. -1.
        -13    1    4    4    0    0  0.13310667798E+01 -0.17461097186E+02 -0.36188855156E+02  0.40203170164E+02  0.00000000000E+00 0.  1.
         14    1    4    4    0    0 -0.22106799803E+02 -0.28631133849E+02  0.38913252588E+02  0.53129028318E+02  0.00000000000E+00 0. -1.
         -5    1    5    5    0  502  0.51600552735E+02  0.87607980874E+02  0.13326552610E+03  0.16768889588E+03  0.47000000000E+01 0.  1.
         13    1    6    6    0    0 -0.32083053694E+02 -0.67616730201E+01  0.16225644242E+01  0.32827964782E+02  0.00000000000E+00 0. -1.
        -14    1    6    6    0    0 -0.37285719486E+02  0.45874918027E+02  0.10959740937E+03  0.12452439569E+03  0.00000000000E+00 0.  1.
</event>
<event>
12    1  0.8271773E-002  0.1932005E+03  0.7818608E-02  0.1155764E+00
         21   -1    0    0  501  502  0.00000000000E+00  0.00000000000E+00  0.15614193949E+02  0.15614193949E+02  0.00000000000E+00 0.  1.
         21   -1    0    0  502  503 -0.00000000000E+00 -0.00000000000E+00 -0.23844455102E+04  0.23844455102E+04  0.00000000000E+00 0.  1.
         -6    2    1    2    0  503 -0.53925770075E+02  0.66823102515E+02 -0.11458325954E+04  0.11620063482E+04  0.17306964206E+03 0.  0.
        -24    2    3    3    0    0 -0.97095680822E+02  0.63617476197E+02 -0.99841526644E+03  0.10082927311E+04  0.79664501109E+02 0.  0.
          6    2    1    2  501    0  0.53925770075E+02 -0.66823102515E+02 -0.12229987209E+04  0.12380533559E+04  0.17226991937E+03 0.  0.
         24    2    5    5    0    0 -0.43677140174E+01 -0.18429068814E+02 -0.98028091107E+03  0.98374225120E+03  0.80246150572E+02 0.  0.
          5    1    5    5  501    0  0.58293484093E+02 -0.48394033701E+02 -0.24271780982E+03  0.25431110473E+03  0.47000000000E+01 0. -1.
        -11    1    6    6    0    0 -0.16563050629E+02  0.25671511117E+02 -0.58961236120E+03  0.59040333468E+03  0.00000000000E+00 0.  1.
         12    1    6    6    0    0  0.12195336611E+02 -0.44100579930E+02 -0.39066854988E+03  0.39333891652E+03  0.00000000000E+00 0. -1.
         -5    1    3    3    0  503  0.43169910747E+02  0.32056263175E+01 -0.14741732892E+03  0.15371361715E+03  0.47000000000E+01 0.  1.
         13    1    4    4    0    0 -0.40287306003E+02  0.62686148472E+02 -0.73795595260E+03  0.74170857364E+03  0.00000000000E+00 0. -1.
        -14    1    4    4    0    0 -0.56808374819E+02  0.93132772563E+00 -0.26045931384E+03  0.26658415742E+03  0.00000000000E+00 0.  1.
</event>
<event>
12    1  0.8271773E-002  0.1811161E+03  0.7818608E-02  0.1166890E+00
         21   -1    0    0  501  502  0.00000000000E+00  0.00000000000E+00  0.39214882253E+03  0.39214882253E+03  0.00000000000E+00 0.  1.
         21   -1    0    0  502  503 -0.00000000000E+00 -0.00000000000E+00 -0.31401944427E+03  0.31401944427E+03  0.00000000000E+00 0.  1.
         -6    2    1    2    0  503 -0.35500769011E+02  0.43872544500E+02 -0.26354241217E+03  0.31977749486E+03  0.17209863000E+03 0.  0.
        -24    2    3    3    0    0 -0.82712768404E+02  0.61401373837E+02 -0.18196923917E+03  0.22379569817E+03  0.79750735084E+02 0.  0.
          6    2    1    2  501    0  0.35500769011E+02 -0.43872544500E+02  0.34167179043E+03  0.38639077193E+03  0.17138585560E+03 0.  0.
         24    2    5    5    0    0  0.47803541370E+02 -0.69071420804E+02  0.33818135590E+03  0.35774439855E+03  0.80983859379E+02 0.  0.
          5    1    5    5  501    0 -0.12302772359E+02  0.25198876304E+02  0.34904345325E+01  0.28646373381E+02  0.47000000000E+01 0. -1.
        -11    1    6    6    0    0  0.21252233349E+02 -0.56767105521E+02  0.94217429394E+02  0.11203162809E+03  0.00000000000E+00 0.  1.
         12    1    6    6    0    0  0.26551308021E+02 -0.12304315283E+02  0.24396392650E+03  0.24571277046E+03  0.00000000000E+00 0. -1.
         -5    1    3    3    0  503  0.47211999393E+02 -0.17528829337E+02 -0.81573172993E+02  0.95981796695E+02  0.47000000000E+01 0.  1.
         11    1    4    4    0    0 -0.11413797484E+02  0.28815532762E+02 -0.65801635715E+01  0.31684511264E+02  0.00000000000E+00 0. -1.
        -12    1    4    4    0    0 -0.71298970919E+02  0.32585841075E+02 -0.17538907560E+03  0.19211118690E+03  0.00000000000E+00 0.  1.
</event>
<event>
12    1  0.8271773E-002  0.1925011E+03  0.7818608E-02  0.1156472E+00
         21   -1    0    0  503  502  0.00000000000E+00  0.00000000000E+00  0.94432194865E+03  0.94432194865E+03  0.00000000000E+00 0. -1.
         21   -1    0    0  501  503 -0.00000000000E+00 -0.00000000000E+00 -0.43787724376E+02  0.43787724376E+02  0.00000000000E+00 0. -1.
          6    2    1    2  501    0  0.19859240026E+02  0.85279644126E+02  0.28831985780E+03  0.34667708428E+03  0.17143410761E+03 0.  0.
         24    2    3    3    0    0 -0.29406051771E+02  0.16366781241E+02  0.65869941810E+02  0.10859704151E+03  0.79510255824E+02 0.  0.
         -6    2    1    2    0  502 -0.19859240026E+02 -0.85279644126E+02  0.61221436648E+03  0.64143258875E+03  0.17018321968E+03 0.  0.
        -24    2    5    5    0    0  0.49722966065E+02 -0.73665217049E+02  0.34988626925E+03  0.36974398222E+03  0.79945440255E+02 0.  0.
          5    1    3    3  501    0  0.49265291796E+02  0.68912862885E+02  0.22244991599E+03  0.23808004278E+03  0.47000000000E+01 0. -1.
        -11    1    4    4    0    0  0.14831476896E+02 -0.19153333692E+02  0.38252900256E+01  0.24524594639E+02  0.00000000000E+00 0.  1.
         12    1    4    4    0    0 -0.44237528667E+02  0.35520114933E+02  0.62044651784E+02  0.84072446868E+02  0.00000000000E+00 0. -1.
         -5    1    5    5    0  502 -0.69582206091E+02 -0.11614427077E+02  0.26232809723E+03  0.27168860653E+03  0.47000000000E+01 0.  1.
         13    1    6    6    0    0 -0.65466444378E+01 -0.61344988721E+02  0.16907580043E+03  0.17997970020E+03  0.00000000000E+00 0. -1.
        -14    1    6    6    0    0  0.56269610503E+02 -0.12320228328E+02  0.18081046882E+03  0.18976428201E+03  0.00000000000E+00 0.  1.
</event>
<event>
12    1  0.8271773E-002  0.1785690E+03  0.7818608E-02  0.1171299E+00
         21   -1    0    0  501  502  0.00000000000E+00  0.00000000000E+00  0.96267332481E+03  0.96267332481E+03  0.00000000000E+00 0. -1.
         21   -1    0    0  502  503 -0.00000000000E+00 -0.00000000000E+00 -0.61536594900E+02  0.61536594900E+02  0.00000000000E+00 0. -1.
         -6    2    1    2    0  503 -0.70671918645E+01  0.48743046725E+02  0.87794296243E+02  0.19149580888E+03  0.16290173897E+03 0.  0.
        -24    2    3    3    0    0  0.47436741123E+02  0.91864322142E+01  0.82781572794E+02  0.12380074363E+03  0.78353049609E+02 0.  0.
          6    2    1    2  501    0  0.70671918645E+01 -0.48743046725E+02  0.81334243367E+03  0.83271411084E+03  0.17164220395E+03 0.  0.
         24    2    5    5    0    0  0.36037756933E+02 -0.14503107327E+02  0.74846837535E+03  0.75370524720E+03  0.79734752220E+02 0.  0.
          5    1    5    5  501    0 -0.28970565068E+02 -0.34239939397E+02  0.64874058317E+02  0.79008863634E+02  0.47000000000E+01 0. -1.
        -11    1    6    6    0    0  0.26476511304E+02 -0.58838786661E+01  0.69352921323E+02  0.74467800928E+02  0.00000000000E+00 0.  1.
         12    1    6    6    0    0  0.95612456289E+01 -0.86192286614E+01  0.67911545403E+03  0.67923744628E+03  0.00000000000E+00 0. -1.
         -5    1    3    3    0  503 -0.54503932987E+02  0.39556614510E+02  0.50127234490E+01  0.67695065248E+02  0.47000000000E+01 0.  1.
         13    1    4    4    0    0  0.18764405240E+02 -0.13145047255E+02 -0.93615955827E+01  0.24749437230E+02  0.00000000000E+00 0. -1.
        -14    1    4    4    0    0  0.28672335883E+02  0.22331479470E+02  0.92143168377E+02  0.99051306396E+02  0.00000000000E+00 0.  1.
</event>
<event>
12    1  0.8271773E-002  0.1822885E+03  0.7818608E-02  0.1165779E+00
         21   -1    0    0  501  502  0.00000000000E+00  0.00000000000E+00  0.61247540662E+03  0.61247540662E+03  0.00000000000E+00 0.  1.
         21   -1    0    0  502  503 -0.00000000000E+00 -0.00000000000E+00 -0.63461964670E+02  0.63461964670E+02  0.00000000000E+00 0.  1.
         -6    2    1    2    0  503 -0.58426211675E+02  0.19738972244E+02  0.14474033105E+03  0.23276356384E+03  0.17153968632E+03 0.  0.
        -24    2    3    3    0    0 -0.41524913981E+02  0.70008308662E+02  0.49258213228E+02  0.12344025950E+03  0.78648867331E+02 0.  0.
          6    2    1    2  501    0  0.58426211675E+02 -0.19738972244E+02  0.40427311090E+03  0.44317380745E+03  0.17077185417E+03 0.  0.
         24    2    5    5    0    0  0.53210772033E+02  0.18841109090E+02  0.11494507724E+03  0.15120047896E+03  0.80391793143E+02 0.  0.
          5    1    5    5  501    0  0.52154396420E+01 -0.38580081333E+02  0.28932803366E+03  0.29197332849E+03  0.47000000000E+01 0. -1.
        -13    1    6    6    0    0  0.72354074553E+02  0.27132453808E+02  0.87730928427E+02  0.11691021323E+03  0.00000000000E+00 0.  1.
         14    1    6    6    0    0 -0.19143302521E+02 -0.82913447178E+01  0.27214148811E+02  0.34290265734E+02  0.00000000000E+00 0. -1.
         -5    1    3    3    0  503 -0.16901297694E+02 -0.50269336418E+02  0.95482117822E+02  0.10932330434E+03  0.47000000000E+01 0.  1.
         13    1    4    4    0    0 -0.58565994377E+02  0.54474251331E+02  0.57978947544E+02  0.98787540276E+02  0.00000000000E+00 0. -1.
        -14    1    4    4    0    0  0.17041080396E+02  0.15534057331E+02 -0.87207343155E+01  0.24652719226E+02  0.00000000000E+00 0.  1.
</event>
<event>
12    1  0.8271773E-002  0.1979210E+03  0.7818608E-02  0.1155415E+00
         21   -1    0    0  501  502  0.00000000000E+00  0.00000000000E+00  0.19452754014E+04  0.19452754014E+04  0.00000000000E+00 0.  1.
         21   -1    0    0  502  503 -0.00000000000E+00 -0.00000000000E+00 -0.25011099921E+02  0.25011099921E+02  0.00000000000E+00 0.  1.
         -6    2    1    2    0  503 -0.93210524404E+02 -0.24307867842E+02  0.14985357522E+04  0.15115495831E+04  0.17289785168E+03 0.  0.
        -24    2    3    3    0    0 -0.10700839962E+03  0.17295041325E+02  0.13405119409E+04  0.13474922810E+04  0.83745254725E+02 0.  0.
          6    2    1    2  501    0  0.93210524404E+02  0.24307867842E+02  0.42172854922E+03  0.45873691821E+03  0.15266144438E+03 0.  0.
         24    2    5    5    0    0  0.21751971729E+02 -0.26919400312E+01  0.32608022046E+03  0.33623790936E+03  0.79039399638E+02 0.  0.
          5    1    5    5  501    0  0.71458552674E+02  0.26999807873E+02  0.95648328757E+02  0.12249900885E+03  0.47000000000E+01 0. -1.
        -11    1    6    6    0    0  0.28205746472E+02  0.15166166865E+02  0.49182153470E+02  0.58689530339E+02  0.00000000000E+00 0.  1.
         12    1    6    6    0    0 -0.64537747427E+01 -0.17858106896E+02  0.27689806699E+03  0.27754837902E+03  0.00000000000E+00 0. -1.
         -5    1    3    3    0  503  0.13797875214E+02 -0.41602909167E+02  0.15802381136E+03  0.16405730209E+03  0.47000000000E+01 0.  1.
         11    1    4    4    0    0 -0.68797646086E+02  0.29630330441E+02  0.45948015705E+03  0.46554600988E+03  0.00000000000E+00 0. -1.
        -12    1    4    4    0    0 -0.38210753531E+02 -0.12335289116E+02  0.88103178384E+03  0.88194627114E+03  0.00000000000E+00 0.  1.
</event>
<event>
12    1  0.8271773E-002  0.2513342E+03  0.7818608E-02  0.1112503E+00
         21   -1    0    0  501  502  0.00000000000E+00  0.00000000000E+00  0.17508324320E+03  0.17508324320E+03  0.00000000000E+00 0. -1.
         21   -1    0    0  502  503 -0.00000000000E+00 -0.00000000000E+00 -0.42100714076E+03  0.42100714076E+03  0.00000000000E+00 0.  1.
         -6    2    1    2    0  503  0.12090765289E+03 -0.13744435539E+03 -0.23595549924E+03  0.34455854463E+03  0.17186035523E+03 0.  0.
        -24    2    3    3    0    0  0.53067526226E+02 -0.15026278041E+03 -0.19727639435E+03  0.26528207926E+03  0.77855894420E+02 0.  0.
          6    2    1    2  501    0 -0.12090765289E+03  0.13744435539E+03 -0.99683983197E+01  0.25153183932E+03  0.17221871521E+03 0.  0.
         24    2    5    5    0    0 -0.14826235866E+01  0.51768328125E+02 -0.37670269233E+02  0.10189159431E+03  0.79250803393E+02 0.  0.
          5    1    5    5  501    0 -0.11942502931E+03  0.85676027269E+02  0.27701870914E+02  0.14964024501E+03  0.47000000000E+01 0. -1.
        -11    1    6    6    0    0 -0.17868364930E+02 -0.16468045937E+02 -0.68574628183E+01  0.25248758357E+02  0.00000000000E+00 0.  1.
         12    1    6    6    0    0  0.16385741344E+02  0.68236374062E+02 -0.30812806415E+02  0.76642835958E+02  0.00000000000E+00 0. -1.
         -5    1    3    3    0  503  0.67840126666E+02  0.12818425014E+02 -0.38679104893E+02  0.79276465368E+02  0.47000000000E+01 0.  1.
         11    1    4    4    0    0  0.64159216448E+01 -0.29302522153E+02 -0.94914082973E+00  0.30011709771E+02  0.00000000000E+00 0. -1.
        -12    1    4    4    0    0  0.46651604581E+02 -0.12096025825E+03 -0.19632725352E+03  0.23527036949E+03  0.00000000000E+00 0.  1.
</event>
<event>
12    1  0.8271773E-002  0.1854878E+03  0.7818608E-02  0.1163428E+00
         21   -1    0    0  501  502  0.00000000000E+00  0.00000000000E+00  0.45142349759E+02  0.45142349759E+02  0.00000000000E+00 0.  1.
         21   -1    0    0  502  503 -0.00000000000E+00 -0.00000000000E+00 -0.10885671670E+04  0.10885671670E+04  0.00000000000E+00 0.  1.
         -6    2    1    2    0  503 -0.58730494157E+02  0.26563343887E+02 -0.83546413712E+03  0.85504600327E+03  0.17014247294E+03 0.  0.
        -24    2    3    3    0    0 -0.22323832125E+02  0.43119141014E+00 -0.18715772267E+03  0.20517553043E+03  0.81058285990E+02 0.  0.
          6    2    1    2  501    0  0.58730494157E+02 -0.26563343887E+02 -0.20796068013E+03  0.27866351351E+03  0.17392764903E+03 0.  0.
         24    2    5    5    0    0 -0.21521618295E+02 -0.18878173580E+01 -0.44819149082E+02  0.95124601242E+02  0.81075210321E+02 0.  0.
          5    1    5    5  501    0  0.80252112453E+02 -0.24675526529E+02 -0.16314153105E+03  0.18353891227E+03  0.47000000000E+01 0. -1.
        -11    1    6    6    0    0 -0.45014256343E+01  0.17796363397E+02  0.18869145064E+02  0.26325235391E+02  0.00000000000E+00 0.  1.
         12    1    6    6    0    0 -0.17020192661E+02 -0.19684180755E+02 -0.63688294146E+02  0.68799365851E+02  0.00000000000E+00 0. -1.
         -5    1    3    3    0  503 -0.36406662033E+02  0.26132152477E+02 -0.64830641446E+03  0.64987047284E+03  0.47000000000E+01 0.  1.
         11    1    4    4    0    0 -0.33937728286E+02  0.26913140902E+02 -0.15907534393E+03  0.16486676925E+03  0.00000000000E+00 0. -1.
        -12    1    4    4    0    0  0.11613896161E+02 -0.26481949492E+02 -0.28082378731E+02  0.40308761183E+02  0.00000000000E+00 0.  1.
</event>
<event>
12    1  0.8271773E-002  0.2238740E+03  0.7818608E-02  0.1131199E+00
         21   -1    0    0  501  502  0.00000000000E+00  0.00000000000E+00  0.60499787539E+03  0.60499787539E+03  0.00000000000E+00 0. -1.
         21   -1    0    0  502  503 -0.00000000000E+00 -0.00000000000E+00 -0.14458583069E+03  0.14458583069E+03  0.00000000000E+00 0.  1.
         -6    2    1    2    0  503  0.23502648451E+02  0.14186433444E+03 -0.15676847004E+02  0.22348466896E+03  0.17035777017E+03 0.  0.
        -24    2    3    3    0    0  0.91848131170E+01  0.41670563153E+02 -0.65397995274E+02  0.11062158908E+03  0.78354588633E+02 0.  0.
          6    2    1    2  501    0 -0.23502648451E+02 -0.14186433444E+03  0.47608889170E+03  0.52609903711E+03  0.17158583908E+03 0.  0.
         24    2    5    5    0    0  0.46633715725E+02 -0.72337032583E+02  0.32122420416E+03  0.34236467252E+03  0.81370940303E+02 0.  0.
          5    1    5    5  501    0 -0.70136364175E+02 -0.69527301862E+02  0.15486468755E+03  0.18373436459E+03  0.47000000000E+01 0. -1.
        -13    1    6    6    0    0  0.40623219372E+01 -0.48007918401E+02  0.61872305196E+02  0.78418396050E+02  0.00000000000E+00 0.  1.
         14    1    6    6    0    0  0.42571393787E+02 -0.24329114181E+02  0.25935189896E+03  0.26394627647E+03  0.00000000000E+00 0. -1.
         -5    1    3    3    0  503  0.14317835334E+02  0.10019377129E+03  0.49721148270E+02  0.11286307988E+03  0.47000000000E+01 0.  1.
         13    1    4    4    0    0  0.11497351473E+00 -0.35499139060E+01  0.16365825120E+02  0.16746800874E+02  0.00000000000E+00 0. -1.
        -14    1    4    4    0    0  0.90698396022E+01  0.45220477058E+02 -0.81763820394E+02  0.93874788209E+02  0.00000000000E+00 0.  1.
</event>
<event>
12    1  0.8271773E-002  0.1784423E+03  0.7818608E-02  0.1169957E+00
         21   -1    0    0  501  502  0.00000000000E+00  0.00000000000E+00  0.16591940656E+03  0.16591940656E+03  0.00000000000E+00 0. -1.
         21   -1    0    0  502  503 -0.00000000000E+00 -0.00000000000E+00 -0.20598010655E+03  0.20598010655E+03  0.00000000000E+00 0. -1.
         -6    2    1    2    0  503  0.16196609956E+02 -0.35449600484E+02 -0.73332568966E+02  0.19292310510E+03  0.17413401294E+03 0.  0.
        -24    2    3    3    0    0 -0.42796756357E+02 -0.35900914893E+02 -0.88332970518E+02  0.13186966129E+03  0.80414276372E+02 0.  0.
          6    2    1    2  501    0 -0.16196609956E+02  0.35449600484E+02  0.33271868977E+02  0.17897640802E+03  0.17148333159E+03 0.  0.
         24    2    5    5    0    0 -0.45722221638E+02  0.50301061757E+02  0.72031373859E+02  0.12782255317E+03  0.80804504289E+02 0.  0.
          5    1    5    5  501    0  0.29525611682E+02 -0.14851461273E+02 -0.38759504882E+02  0.51153854848E+02  0.47000000000E+01 0. -1.
        -13    1    6    6    0    0 -0.47055401671E+00  0.51792462347E+02  0.12952309239E+02  0.53389539159E+02  0.00000000000E+00 0.  1.
         14    1    6    6    0    0 -0.45251667621E+02 -0.14914005900E+01  0.59079064620E+02  0.74433014010E+02  0.00000000000E+00 0. -1.
         -5    1    3    3    0  503  0.58993366313E+02  0.45131440856E+00  0.15000401552E+02  0.61053443804E+02  0.47000000000E+01 0.  1.
         11    1    4    4    0    0 -0.43715974093E+02  0.14013585510E+02 -0.28878363006E+02  0.54234922510E+02  0.00000000000E+00 0. -1.
        -12    1    4    4    0    0  0.91921773594E+00 -0.49914500403E+02 -0.59454607512E+02  0.77634738784E+02  0.00000000000E+00 0.  1.
</event>
<event>
12    1  0.8271773E-002  0.2325151E+03  0.7818608E-02  0.1125424E+00
         21   -1    0    0  501  502  0.00000000000E+00  0.00000000000E+00  0.24262976893E+03  0.24262976893E+03  0.00000000000E+00 0.  1.
         21   -1    0    0  502  503 -0.00000000000E+00 -0.00000000000E+00 -0.22240219743E+03  0.22240219743E+03  0.00000000000E+00 0. -1.
         -6    2    1    2    0  503  0.12102181094E+03 -0.79598769679E+02  0.34901851649E+02  0.23205423524E+03  0.17790105673E+03 0.  0.
        -24    2    3    3    0    0  0.30710811487E+02 -0.38589665246E+02  0.78299465007E+02  0.12368788384E+03  0.82070519574E+02 0.  0.
          6    2    1    2  501    0 -0.12102181094E+03  0.79598769679E+02 -0.14674280141E+02  0.23297773112E+03  0.18188195579E+03 0.  0.
         24    2    5    5    0    0 -0.12432059031E+03  0.17584373582E+02 -0.59907938386E+02  0.15600474166E+03  0.70595318319E+02 0.  0.
          5    1    5    5  501    0  0.32987793688E+01  0.62014396097E+02  0.45233658245E+02  0.76972989462E+02  0.47000000000E+01 0. -1.
        -13    1    6    6    0    0 -0.37030027715E+02 -0.13412591604E+02  0.91884643264E+01  0.40441914431E+02  0.00000000000E+00 0.  1.
         14    1    6    6    0    0 -0.87290562598E+02  0.30996965186E+02 -0.69096402712E+02  0.11556282723E+03  0.00000000000E+00 0. -1.
         -5    1    3    3    0  503  0.90310999457E+02 -0.41009104433E+02 -0.43397613358E+02  0.10836635139E+03  0.47000000000E+01 0.  1.
         13    1    4    4    0    0 -0.16362767804E+02 -0.18006027186E+02 -0.59147496195E+01  0.25038798859E+02  0.00000000000E+00 0. -1.
        -14    1    4    4    0    0  0.47073579291E+02 -0.20583638060E+02  0.84214214626E+02  0.98649084984E+02  0.00000000000E+00 0.  1.
</event>
<event>
12    1  0.8271773E-002  0.2055426E+03  0.7818608E-02  0.1145388E+00
         21   -1    0    0  503  502  0.00000000000E+00  0.00000000000E+00  0.75465506748E+02  0.75465506748E+02  0.00000000000E+00 0.  1.
         21   -1    0    0  501  503 -0.00000000000E+00 -0.00000000000E+00 -0.58921473044E+03  0.58921473044E+03  0.00000000000E+00 0. -1.
          6    2    1    2  501    0 -0.27933171959E+02 -0.10936203398E+03 -0.33577307977E+03  0.39368938925E+03  0.17177734873E+03 0.  0.
         24    2    3    3    0    0  0.46836540020E+02 -0.39882421061E+02 -0.87004993090E+02  0.12475523859E+03  0.64882445558E+02 0.  0.
         -6    2    1    2    0  502  0.27933171959E+02  0.10936203398E+03 -0.17797614392E+03  0.27099084794E+03  0.17035320746E+03 0.  0.
        -24    2    5    5    0    0 -0.81762294388E+01  0.11130824027E+03 -0.18858702350E+03  0.23301246786E+03  0.79204606326E+02 0.  0.
          5    1    3    3  501    0 -0.74769711979E+02 -0.69479612917E+02 -0.24876808668E+03  0.26893415066E+03  0.47000000000E+01 0. -1.
        -13    1    4    4    0    0  0.52530340727E+01 -0.46771555459E+02 -0.41796103568E+02  0.62945111331E+02  0.00000000000E+00 0.  1.
         14    1    4    4    0    0  0.41583505947E+02  0.68891343973E+01 -0.45208889522E+02  0.61810127256E+02  0.00000000000E+00 0. -1.
         -5    1    5    5    0  502  0.36109401398E+02 -0.19462062928E+01  0.10610879581E+02  0.37978380083E+02  0.47000000000E+01 0.  1.
         13    1    6    6    0    0 -0.40373164510E+02  0.47612418241E+02 -0.63819826523E+02  0.89274324645E+02  0.00000000000E+00 0. -1.
        -14    1    6    6    0    0  0.32196935071E+02  0.63695822031E+02 -0.12476719698E+03  0.14373814321E+03  0.00000000000E+00 0.  1.
</event>
<event>
12    1  0.8271773E-002  0.1834101E+03  0.7818608E-02  0.1164746E+00
         21   -1    0    0  501  502  0.00000000000E+00  0.00000000000E+00  0.55931859170E+02  0.55931859170E+02  0.00000000000E+00 0.  1.
         21   -1    0    0  502  503 -0.00000000000E+00 -0.00000000000E+00 -0.80889942011E+03  0.80889942011E+03  0.00000000000E+00 0.  1.
         -6    2    1    2    0  503 -0.51962306778E+02  0.36116296789E+02 -0.59761113401E+03  0.62512265838E+03  0.17214761780E+03 0.  0.
        -24    2    3    3    0    0  0.78533532095E+01  0.19876824108E+02 -0.13315940258E+03  0.15652994133E+03  0.79457112599E+02 0.  0.
          6    2    1    2  501    0  0.51962306778E+02 -0.36116296789E+02 -0.15535642693E+03  0.23970862090E+03  0.17123123349E+03 0.  0.
         24    2    5    5    0    0 -0.10504001610E+02 -0.30794716795E+02 -0.13768739145E+02  0.84790829053E+02  0.77079555535E+02 0.  0.
          5    1    5    5  501    0  0.62466308387E+02 -0.53215799945E+01 -0.14158768779E+03  0.15491779185E+03  0.47000000000E+01 0. -1.
        -13    1    6    6    0    0  0.31463587834E+02 -0.26135039771E+02 -0.11574249888E+02  0.42508362985E+02  0.00000000000E+00 0.  1.
         14    1    6    6    0    0 -0.41967589443E+02 -0.46596770237E+01 -0.21944892573E+01  0.42282466068E+02  0.00000000000E+00 0. -1.
         -5    1    3    3    0  503 -0.59815659987E+02  0.16239472681E+02 -0.46445173143E+03  0.46859271706E+03  0.47000000000E+01 0.  1.
         13    1    4    4    0    0  0.25631468283E+02 -0.21089094027E+02 -0.32710187117E+02  0.46601270309E+02  0.00000000000E+00 0. -1.
        -14    1    4    4    0    0 -0.17778115073E+02  0.40965918135E+02 -0.10044921546E+03  0.10992867102E+03  0.00000000000E+00 0.  1.
</event>
<event>
12    1  0.8271773E-002  0.2342491E+03  0.7818608E-02  0.1124005E+00
         21   -1    0    0  503  502  0.00000000000E+00  0.00000000000E+00  0.81090296693E+03  0.81090296693E+03  0.00000000000E+00 0. -1.
         21   -1    0    0  501  503 -0.00000000000E+00 -0.00000000000E+00 -0.67273317580E+02  0.67273317580E+02  0.00000000000E+00 0.  1.
          6    2    1    2  501    0 -0.79655435986E+02  0.13647654022E+03  0.35321470252E+03  0.42383164754E+03  0.17292138349E+03 0.  0.
         24    2    3    3    0    0 -0.97496626824E+01  0.21365561820E+02  0.61169909495E+02  0.10219581990E+03  0.78426300582E+02 0.  0.
         -6    2    1    2    0  502  0.79655435986E+02 -0.13647654022E+03  0.39041494683E+03  0.45434463697E+03  0.17039478843E+03 0.  0.
        -24    2    5    5    0    0  0.48317107034E+02 -0.64720142933E+02  0.34583718722E+03  0.36412081493E+03  0.80357750495E+02 0.  0.
          5    1    3    3  501    0 -0.69905773303E+02  0.11511097840E+03  0.29204479303E+03  0.32163582764E+03  0.47000000000E+01 0. -1.
        -13    1    4    4    0    0 -0.19760318980E+02  0.47134607060E+02  0.25646722744E+02  0.57183002513E+02  0.00000000000E+00 0.  1.
         14    1    4    4    0    0  0.10010656298E+02 -0.25769045240E+02  0.35523186752E+02  0.45012817387E+02  0.00000000000E+00 0. -1.
         -5    1    5    5    0  502  0.31338328952E+02 -0.71756397283E+02  0.44577759610E+02  0.90223822045E+02  0.47000000000E+01 0.  1.
         13    1    6    6    0    0 -0.13731297346E+02 -0.21925923999E+02  0.30952434957E+02  0.40340400342E+02  0.00000000000E+00 0. -1.
        -14    1    6    6    0    0  0.62048404379E+02 -0.42794218934E+02  0.31488475226E+03  0.32378041458E+03  0.00000000000E+00 0.  1.
</event>
<event>
12    1  0.8271773E-002  0.3124078E+03  0.7818608E-02  0.1079266E+00
         21   -1    0    0  503  502  0.00000000000E+00  0.00000000000E+00  0.78358009522E+03  0.78358009522E+03  0.00000000000E+00 0. -1.
         21   -1    0    0  501  503 -0.00000000000E+00 -0.00000000000E+00 -0.14360227425E+03  0.14360227425E+03  0.00000000000E+00 0.  1.
          6    2    1    2  501    0  0.10145362094E+03  0.23958582674E+03  0.15039323272E+03  0.34672292677E+03  0.17292905459E+03 0.  0.
         24    2    3    3    0    0  0.76322254507E+02  0.15388657832E+03  0.17028468454E+03  0.25510575254E+03  0.81091958104E+02 0.  0.
         -6    2    1    2    0  502 -0.10145362094E+03 -0.23958582674E+03  0.48958458825E+03  0.58045944270E+03  0.17188917938E+03 0.  0.
        -24    2    5    5    0    0 -0.12153737816E+03 -0.12074251562E+03  0.31973225232E+03  0.37213518601E+03  0.83101107851E+02 0.  0.
          5    1    3    3  501    0  0.25131366429E+02  0.85699248422E+02 -0.19891451818E+02  0.91617174231E+02  0.47000000000E+01 0. -1.
        -13    1    4    4    0    0  0.87317504404E+02  0.10109708457E+03  0.10186957257E+03  0.16799516928E+03  0.00000000000E+00 0.  1.
         14    1    4    4    0    0 -0.10995249896E+02  0.52789493747E+02  0.68415111974E+02  0.87110583265E+02  0.00000000000E+00 0. -1.
         -5    1    5    5    0  502  0.20083757226E+02 -0.11884331112E+03  0.16985233593E+03  0.20832425669E+03  0.47000000000E+01 0.  1.
         13    1    6    6    0    0 -0.21724387925E+02 -0.77417128039E+02  0.15672172917E+03  0.17614500033E+03  0.00000000000E+00 0. -1.
        -14    1    6    6    0    0 -0.99812990238E+02 -0.43325387584E+02  0.16301052314E+03  0.19599018568E+03  0.00000000000E+00 0.  1.
</event>
<event>
12    1  0.8271773E-002  0.2012857E+03  0.7818608E-02  0.1148890E+00
         21   -1    0    0  503  502  0.00000000000E+00  0.00000000000E+00  0.20769304460E+03  0.20769304460E+03  0.00000000000E+00 0.  1.
         21   -1    0    0  501  503 -0.00000000000E+00 -0.00000000000E+00 -0.23425240519E+03  0.23425240519E+03  0.00000000000E+00 0.  1.
          6    2    1    2  501    0  0.62604485126E+02  0.77349509982E+02 -0.10489636587E+03  0.22697836442E+03  0.17496760297E+03 0.  0.
         24    2    3    3    0    0  0.57417480903E+02  0.10488709821E+03 -0.12632424567E+03  0.19139089737E+03  0.79841029980E+02 0.  0.
         -6    2    1    2    0  502 -0.62604485126E+02 -0.77349509982E+02  0.78337005284E+02  0.21496708538E+03  0.17370058476E+03 0.  0.
        -24    2    5    5    0    0 -0.73493875017E+02 -0.11655171265E+03  0.70916278159E+02  0.17334318963E+03  0.77672977913E+02 0.  0.
          5    1    3    3  501    0  0.51870042226E+01 -0.27537588233E+02  0.21427879793E+02  0.35587467048E+02  0.47000000000E+01 0. -1.
        -11    1    4    4    0    0  0.58453366479E+02  0.69936636047E+02 -0.42505996766E+02  0.10057180955E+03  0.00000000000E+00 0.  1.
         12    1    4    4    0    0 -0.10358855759E+01  0.34950462168E+02 -0.83818248901E+02  0.90819087826E+02  0.00000000000E+00 0. -1.
         -5    1    5    5    0  502  0.10889389891E+02  0.39202202664E+02  0.74207271255E+01  0.41623895745E+02  0.47000000000E+01 0.  1.
         11    1    6    6    0    0 -0.28791287696E+02 -0.39191128164E+02 -0.13452844451E+02  0.50456533747E+02  0.00000000000E+00 0. -1.
        -12    1    6    6    0    0 -0.44702587322E+02 -0.77360584482E+02  0.84369122609E+02  0.12288665588E+03  0.00000000000E+00 0.  1.
</event>
<event>
12    1  0.8271773E-002  0.2358845E+03  0.7818608E-02  0.1126097E+00
         21   -1    0    0  501  502  0.00000000000E+00  0.00000000000E+00  0.26722225123E+03  0.26722225123E+03  0.00000000000E+00 0. -1.
         21   -1    0    0  502  503 -0.00000000000E+00 -0.00000000000E+00 -0.26468626762E+03  0.26468626762E+03  0.00000000000E+00 0.  1.
         -6    2    1    2    0  503 -0.14471938397E+03  0.25234654354E+02 -0.13880668163E+03  0.27369471857E+03  0.18455626846E+03 0.  0.
        -24    2    3    3    0    0 -0.57665707935E+02  0.68827922607E+02 -0.12844348094E+03  0.17567328481E+03  0.79377316638E+02 0.  0.
          6    2    1    2  501    0  0.14471938397E+03 -0.25234654354E+02  0.14134266525E+03  0.25821380028E+03  0.15848069208E+03 0.  0.
         24    2    5    5    0    0  0.10410423962E+03 -0.75581909182E+02  0.97412243633E+02  0.17987857218E+03  0.79478536835E+02 0.  0.
          5    1    5    5  501    0  0.40615144349E+02  0.50347254829E+02  0.43930421614E+02  0.78335228107E+02  0.47000000000E+01 0. -1.
        -13    1    6    6    0    0  0.35549611477E+02 -0.18180435550E+02 -0.89574219020E+01  0.40921125596E+02  0.00000000000E+00 0.  1.
         14    1    6    6    0    0  0.68554628140E+02 -0.57401473632E+02  0.10636966553E+03  0.13895744658E+03  0.00000000000E+00 0. -1.
         -5    1    3    3    0  503 -0.87053676030E+02 -0.43593268254E+02 -0.10363200692E+02  0.98021433758E+02  0.47000000000E+01 0.  1.
         11    1    4    4    0    0  0.74810166988E+01  0.43662037009E+02 -0.25012905576E+02  0.50872237340E+02  0.00000000000E+00 0. -1.
        -12    1    4    4    0    0 -0.65146724634E+02  0.25165885598E+02 -0.10343057537E+03  0.12480104747E+03  0.00000000000E+00 0.  1.
</event>
<event>
12    1  0.8271773E-002  0.2511159E+03  0.7818608E-02  0.1112633E+00
         21   -1    0    0  501  502  0.00000000000E+00  0.00000000000E+00  0.20887372709E+03  0.20887372709E+03  0.00000000000E+00 0. -1.
         21   -1    0    0  502  503 -0.00000000000E+00 -0.00000000000E+00 -0.38850650724E+03  0.38850650724E+03  0.00000000000E+00 0. -1.
         -6    2    1    2    0  503  0.17147119300E+03  0.62803416312E+02  0.51377013811E+02  0.25631771757E+03  0.17237324520E+03 0.  0.
        -24    2    3    3    0    0  0.26855193609E+02  0.17735045103E+01  0.51323280334E+02  0.99281001154E+02  0.80611980151E+02 0.  0.
          6    2    1    2  501    0 -0.17147119300E+03 -0.62803416312E+02 -0.23100979396E+03  0.34106251676E+03  0.17207985445E+03 0.  0.
         24    2    5    5    0    0 -0.33052858503E+02  0.17080514944E+02 -0.14917874681E+03  0.16145325176E+03  0.49281016207E+02 0.  0.
          5    1    5    5  501    0 -0.13841833450E+03 -0.79883931255E+02 -0.81831047148E+02  0.17960926500E+03  0.47000000000E+01 0. -1.
        -13    1    6    6    0    0 -0.43774516722E+02  0.11203295575E+02 -0.86476423280E+02  0.97569943780E+02  0.00000000000E+00 0.  1.
         14    1    6    6    0    0  0.10721658219E+02  0.58772193683E+01 -0.62702323530E+02  0.63883307980E+02  0.00000000000E+00 0. -1.
         -5    1    3    3    0  503  0.14461599939E+03  0.61029911801E+02  0.53733476943E-01  0.15703671641E+03  0.47000000000E+01 0.  1.
         13    1    4    4    0    0  0.40632505390E+02  0.29185173570E+02  0.16065036642E+02  0.52543888825E+02  0.00000000000E+00 0. -1.
        -14    1    4    4    0    0 -0.13777311782E+02 -0.27411669059E+02  0.35258243692E+02  0.46737112329E+02  0.00000000000E+00 0.  1.
</event>
<event>
12    1  0.8271773E-002  0.1805472E+03  0.7818608E-02  0.1168108E+00
         21   -1    0    0  501  502  0.00000000000E+00  0.00000000000E+00  0.31532196111E+03  0.31532196111E+03  0.00000000000E+00 0. -1.
         21   -1    0    0  502  503 -0.00000000000E+00 -0.00000000000E+00 -0.10288369074E+03  0.10288369074E+03  0.00000000000E+00 0. -1.
         -6    2    1    2    0  503 -0.12805916868E+01  0.44817843201E+02  0.13010208527E+03  0.21977039093E+03  0.17135399952E+03 0.  0.
        -24    2    3    3    0    0  0.48369440269E+02  0.40832921838E+01  0.12609303278E+03  0.15525223983E+03  0.76469137748E+02 0.  0.
          6    2    1    2  501    0  0.12805916868E+01 -0.44817843201E+02  0.82336185103E+02  0.19843526093E+03  0.17489147040E+03 0.  0.
         24    2    5    5    0    0  0.64963280905E+02 -0.37618412392E+02  0.25949974831E+02  0.11294367410E+03  0.80296323128E+02 0.  0.
          5    1    5    5  501    0 -0.63682689218E+02 -0.71994308091E+01  0.56386210272E+02  0.85491586831E+02  0.47000000000E+01 0. -1.
        -11    1    6    6    0    0  0.91611705717E+01 -0.35677763326E+01 -0.27053785598E+02  0.28784777042E+02  0.00000000000E+00 0.  1.
         12    1    6    6    0    0  0.55802110333E+02 -0.34050636059E+02  0.53003760429E+02  0.84158897054E+02  0.00000000000E+00 0. -1.
         -5    1    3    3    0  503 -0.49650031956E+02  0.40734551017E+02  0.40090524889E+01  0.64518151102E+02  0.47000000000E+01 0.  1.
         11    1    4    4    0    0  0.47581960608E+02  0.34827409241E+02  0.72389293715E+02  0.93365953400E+02  0.00000000000E+00 0. -1.
        -12    1    4    4    0    0  0.78747966164E+00 -0.30744117058E+02  0.53703739067E+02  0.61886286426E+02  0.00000000000E+00 0.  1.
</event>
<event>
12    1  0.8271773E-002  0.3326462E+03  0.7818608E-02  0.1070245E+00
         21   -1    0    0  503  502  0.00000000000E+00  0.00000000000E+00  0.70796475502E+02  0.70796475502E+02  0.00000000000E+00 0.  1.
         21   -1    0    0  501  503 -0.00000000000E+00 -0.00000000000E+00 -0.22233847815E+04  0.22233847815E+04  0.00000000000E+00 0. -1.
          6    2    1    2  501    0  0.12928017977E+03  0.25123541514E+03 -0.17097456150E+04  0.17418046829E+04  0.17555878352E+03 0.  0.
         24    2    3    3    0    0 -0.38394157124E+01  0.79372641071E+02 -0.46758320891E+03  0.48075465493E+03  0.78588954153E+02 0.  0.
         -6    2    1    2    0  502 -0.12928017977E+03 -0.25123541514E+03 -0.44284269094E+03  0.55237657410E+03  0.17081461294E+03 0.  0.
        -24    2    5    5    0    0 -0.15968109778E+03 -0.22966463752E+03 -0.37213087007E+03  0.47230307115E+03  0.79654929862E+02 0.  0.
          5    1    3    3  501    0  0.13311959549E+03  0.17186277407E+03 -0.12421624061E+04  0.12610500280E+04  0.47000000000E+01 0. -1.
        -11    1    4    4    0    0  0.24232661424E+02  0.80081021286E+02 -0.34664949615E+03  0.35660351236E+03  0.00000000000E+00 0.  1.
         12    1    4    4    0    0 -0.28072077137E+02 -0.70838021498E+00 -0.12093371276E+03  0.12415114256E+03  0.00000000000E+00 0. -1.
         -5    1    5    5    0  502  0.30400918006E+02 -0.21570777623E+02 -0.70711820875E+02  0.80073502947E+02  0.47000000000E+01 0.  1.
         11    1    6    6    0    0 -0.12113292266E+03 -0.19949086864E+03 -0.34443217184E+03  0.41605686224E+03  0.00000000000E+00 0. -1.
        -12    1    6    6    0    0 -0.38548175123E+02 -0.30173768876E+02 -0.27698698233E+02  0.56246208915E+02  0.00000000000E+00 0.  1.
</event>
<event>
12    1  0.8271773E-002  0.2601550E+03  0.7818608E-02  0.1107074E+00
         21   -1    0    0  503  502  0.00000000000E+00  0.00000000000E+00  0.11915876184E+03  0.11915876184E+03  0.00000000000E+00 0. -1.
         21   -1    0    0  501  503 -0.00000000000E+00 -0.00000000000E+00 -0.71028209795E+03  0.71028209795E+03  0.00000000000E+00 0. -1.
          6    2    1    2  501    0 -0.10327580120E+03  0.16590798545E+03 -0.48148825003E+03  0.54727648945E+03  0.17172440199E+03 0.  0.
         24    2    3    3    0    0  0.14732751702E+02  0.75779917581E+02 -0.17816454351E+03  0.20952443821E+03  0.78728875033E+02 0.  0.
         -6    2    1    2    0  502  0.10327580120E+03 -0.16590798545E+03 -0.10963508608E+03  0.28216437034E+03  0.17148040426E+03 0.  0.
        -24    2    5    5    0    0  0.10342942463E+03 -0.49177246198E+02 -0.82714774553E+02  0.16227741418E+03  0.79850972452E+02 0.  0.
          5    1    3    3  501    0 -0.11800855290E+03  0.90128067866E+02 -0.30332370652E+03  0.33775205123E+03  0.47000000000E+01 0. -1.
        -13    1    4    4    0    0 -0.17198247050E+02  0.53980849107E+01 -0.92116154866E+02  0.93863225012E+02  0.00000000000E+00 0.  1.
         14    1    4    4    0    0  0.31930998752E+02  0.70381832671E+02 -0.86048388640E+02  0.11566121320E+03  0.00000000000E+00 0. -1.
         -5    1    5    5    0  502 -0.15362342679E+00 -0.11673073925E+03 -0.26920311523E+02  0.11988695616E+03  0.47000000000E+01 0.  1.
         13    1    6    6    0    0  0.94516661298E+02 -0.15630730806E+02 -0.32359331124E+02  0.10111797723E+03  0.00000000000E+00 0. -1.
        -14    1    6    6    0    0  0.89127633286E+01 -0.33546515392E+02 -0.50355443429E+02  0.61159436950E+02  0.00000000000E+00 0.  1.
</event>
<event>
12    1  0.8271773E-002  0.2166107E+03  0.7818608E-02  0.1136450E+00
         21   -1    0    0  503  502  0.00000000000E+00  0.00000000000E+00  0.11113596836E+04  0.11113596836E+04  0.00000000000E+00 0. -1.
         21   -1    0    0  501  503 -0.00000000000E+00 -0.00000000000E+00 -0.46877823048E+02  0.46877823048E+02  0.00000000000E+00 0. -1.
          6    2    1    2  501    0  0.41953160907E+02 -0.12381302788E+03  0.34929946202E+03  0.41097178021E+03  0.17262084571E+03 0.  0.
         24    2    3    3    0    0  0.94313531047E+02 -0.97669220012E+02  0.26282266444E+03  0.30644698137E+03  0.79998004810E+02 0.  0.
         -6    2    1    2    0  502 -0.41953160907E+02  0.12381302788E+03  0.71518239856E+03  0.74726572648E+03  0.17271499404E+03 0.  0.
        -24    2    5    5    0    0  0.30280963358E+02  0.26966516790E+02  0.21887647332E+03  0.23644415601E+03  0.79716990469E+02 0.  0.
          5    1    3    3  501    0 -0.52360370141E+02 -0.26143807867E+02  0.86476797582E+02  0.10452479883E+03  0.47000000000E+01 0. -1.
        -13    1    4    4    0    0  0.50001817336E+00  0.12702290945E+02  0.19858914368E+02  0.23579115617E+02  0.00000000000E+00 0.  1.
         14    1    4    4    0    0  0.93813512874E+02 -0.11037151096E+03  0.24296375007E+03  0.28286786576E+03  0.00000000000E+00 0. -1.
         -5    1    5    5    0  502 -0.72234124265E+02  0.96846511089E+02  0.49630592524E+03  0.51082157046E+03  0.47000000000E+01 0.  1.
         11    1    6    6    0    0 -0.30031650578E+01  0.41033194098E+02  0.17415457994E+03  0.17894848345E+03  0.00000000000E+00 0. -1.
        -12    1    6    6    0    0  0.33284128416E+02 -0.14066677308E+02  0.44721893384E+02  0.57495672557E+02  0.00000000000E+00 0.  1.
</event>
<event>
12    1  0.8271773E-002  0.1811397E+03  0.7818608E-02  0.1167167E+00
         21   -1    0    0  503  502  0.00000000000E+00  0.00000000000E+00  0.50525259263E+03  0.50525259263E+03  0.00000000000E+00 0.  1.
         21   -1    0    0  501  503 -0.00000000000E+00 -0.00000000000E+00 -0.12891567466E+03  0.12891567466E+03  0.00000000000E+00 0.  1.
          6    2    1    2  501    0 -0.51109469990E+02  0.19915699014E+01 -0.35895038336E+02  0.18466201806E+03  0.17376841733E+03 0.  0.
         24    2    3    3    0    0 -0.44715650158E+02  0.62797161497E+02  0.47085550690E+01  0.11111650359E+03  0.79885756038E+02 0.  0.
         -6    2    1    2    0  502  0.51109469990E+02 -0.19915699014E+01  0.41223195631E+03  0.44950624923E+03  0.17176885057E+03 0.  0.
        -24    2    5    5    0    0  0.22228224409E+02  0.21353500620E+02  0.40237589502E+03  0.41079771519E+03  0.76800624742E+02 0.  0.
          5    1    3    3  501    0 -0.63938198319E+01 -0.60805591596E+02 -0.40603593405E+02  0.73545514471E+02  0.47000000000E+01 0. -1.
        -13    1    4    4    0    0 -0.70779025858E+01  0.71934646229E+02  0.34944002737E+01  0.72366434667E+02  0.00000000000E+00 0.  1.
         14    1    4    4    0    0 -0.37637747572E+02 -0.91374847321E+01  0.12141547953E+01  0.38750068921E+02  0.00000000000E+00 0. -1.
         -5    1    5    5    0  502  0.28881245581E+02 -0.23345070521E+02  0.98560612854E+01  0.38708534046E+02  0.47000000000E+01 0.  1.
         13    1    6    6    0    0 -0.34328798125E+01  0.11750745824E+02  0.62863319089E+01  0.13761637261E+02  0.00000000000E+00 0. -1.
        -14    1    6    6    0    0  0.25661104221E+02  0.96027547957E+01  0.39608956311E+03  0.39703607793E+03  0.00000000000E+00 0.  1.
</event>
<event>
12    1  0.8271773E-002  0.2027957E+03  0.7818608E-02  0.1147981E+00
         21   -1    0    0  501  502  0.00000000000E+00  0.00000000000E+00  0.78203365784E+03  0.78203365784E+03  0.00000000000E+00 0.  1.
         21   -1    0    0  502  503 -0.00000000000E+00 -0.00000000000E+00 -0.23151424503E+03  0.23151424503E+03  0.00000000000E+00 0. -1.
         -6    2    1    2    0  503 -0.14674330184E+02  0.10392503486E+03 -0.17071977218E+03  0.26508738010E+03  0.17352328269E+03 0.  0.
        -24    2    3    3    0    0  0.21791634652E+02  0.89165914848E+02 -0.18605519824E+03  0.22260369491E+03  0.80687251039E+02 0.  0.
          6    2    1    2  501    0  0.14674330184E+02 -0.10392503486E+03  0.72123918500E+03  0.74846052277E+03  0.17026873857E+03 0.  0.
         24    2    5    5    0    0 -0.52598685100E+02 -0.83430845053E+02  0.52653334984E+03  0.54139019016E+03  0.78349485844E+02 0.  0.
          5    1    5    5  501    0  0.67273015284E+02 -0.20494189806E+02  0.19470583516E+03  0.20707033260E+03  0.47000000000E+01 0. -1.
        -11    1    6    6    0    0 -0.39769372532E+02 -0.82837078446E+02  0.28354486606E+03  0.29806253644E+03  0.00000000000E+00 0.  1.
         12    1    6    6    0    0 -0.12829312569E+02 -0.59376660682E+00  0.24298848378E+03  0.24332765373E+03  0.00000000000E+00 0. -1.
         -5    1    3    3    0  503 -0.36465964836E+02  0.14759120012E+02  0.15335426061E+02  0.42483685191E+02  0.47000000000E+01 0.  1.
         13    1    4    4    0    0 -0.55780904008E+01  0.85317660402E+02 -0.96730889266E+02  0.12910105812E+03  0.00000000000E+00 0. -1.
        -14    1    4    4    0    0  0.27369725053E+02  0.38482544461E+01 -0.89324308979E+02  0.93502636788E+02  0.00000000000E+00 0.  1.
</event>
<event>
12    1  0.8271773E-002  0.1891592E+03  0.7818608E-02  0.1159488E+00
         21   -1    0    0  503  502  0.00000000000E+00  0.00000000000E+00  0.82513682861E+03  0.82513682861E+03  0.00000000000E+00 0. -1.
         21   -1    0    0  501  503 -0.00000000000E+00 -0.00000000000E+00 -0.48039100139E+02  0.48039100139E+02  0.00000000000E+00 0.  1.
          6    2    1    2  501    0 -0.84453059023E+01 -0.78712011599E+02  0.24958303401E+03  0.31316591566E+03  0.17179725232E+03 0.  0.
         24    2    3    3    0    0 -0.12673359699E+02 -0.80806079135E+02  0.73166858843E+02  0.13662408374E+03  0.81378833569E+02 0.  0.
         -6    2    1    2    0  502  0.84453059023E+01  0.78712011599E+02  0.52751469445E+03  0.56001001308E+03  0.17050676798E+03 0.  0.
        -24    2    5    5    0    0 -0.35328880876E+01  0.68943477675E+01  0.43221866754E+03  0.43999052835E+03  0.81967524905E+02 0.  0.
          5    1    3    3  501    0  0.42280537965E+01  0.20940675354E+01  0.17641617517E+03  0.17654183192E+03  0.47000000000E+01 0. -1.
        -11    1    4    4    0    0  0.10983248115E+02 -0.88299036442E+02  0.66030746727E+02  0.11080347959E+03  0.00000000000E+00 0.  1.
         12    1    4    4    0    0 -0.23656607814E+02  0.74929573071E+01  0.71361121164E+01  0.25820604149E+02  0.00000000000E+00 0. -1.
         -5    1    5    5    0  502  0.11978193990E+02  0.71817663832E+02  0.95296026912E+02  0.12001948473E+03  0.47000000000E+01 0.  1.
         11    1    6    6    0    0 -0.21721132823E+01 -0.36626458250E+02  0.14938677912E+03  0.15382660789E+03  0.00000000000E+00 0. -1.
        -12    1    6    6    0    0 -0.13607748053E+01  0.43520806018E+02  0.28283188842E+03  0.28616392046E+03  0.00000000000E+00 0.  1.
</event>
<event>
12    1  0.8271773E-002  0.1859893E+03  0.7818608E-02  0.1162201E+00
         21   -1    0    0  503  502  0.00000000000E+00  0.00000000000E+00  0.28875901445E+03  0.28875901445E+03  0.00000000000E+00 0.  1.
         21   -1    0    0  501  503 -0.00000000000E+00 -0.00000000000E+00 -0.14844866084E+03  0.14844866084E+03  0.00000000000E+00 0. -1.
          6    2    1    2  501    0  0.32444190497E+02 -0.63713742725E+02 -0.26170394281E+02  0.18782147836E+03  0.17169726756E+03 0.  0.
         24    2    3    3    0    0  0.32536768879E+02 -0.42951335896E+01 -0.71943560292E+02  0.11266928339E+03  0.80258345674E+02 0.  0.
         -6    2    1    2    0  502 -0.32444190497E+02  0.63713742725E+02  0.16648074789E+03  0.24938619694E+03  0.17136385060E+03 0.  0.
        -24    2    5    5    0    0 -0.28531905761E+02  0.98358849094E+02  0.69874310570E+02  0.14657334220E+03  0.78184349611E+02 0.  0.
          5    1    3    3  501    0 -0.92578382370E-01 -0.59418609136E+02  0.45773166011E+02  0.75152194971E+02  0.47000000000E+01 0. -1.
        -13    1    4    4    0    0  0.18101743716E+02 -0.27796886229E+02  0.25150623861E+01  0.33266583059E+02  0.00000000000E+00 0.  1.
         14    1    4    4    0    0  0.14435025163E+02  0.23501752640E+02 -0.74458622678E+02  0.79402700330E+02  0.00000000000E+00 0. -1.
         -5    1    5    5    0  502 -0.39122847363E+01 -0.34645106368E+02  0.96606437323E+02  0.10281285474E+03  0.47000000000E+01 0.  1.
         13    1    6    6    0    0  0.13760787098E+02  0.64615916769E+02  0.11636655797E+02  0.67081947792E+02  0.00000000000E+00 0. -1.
        -14    1    6    6    0    0 -0.42292692859E+02  0.33742932325E+02  0.58237654772E+02  0.79491394406E+02  0.00000000000E+00 0.  1.
</event>
<event>
12    1  0.8271773E-002  0.1789053E+03  0.7818608E-02  0.1169102E+00
         21   -1    0    0  501  502  0.00000000000E+00  0.00000000000E+00  0.27618653367E+03  0.27618653367E+03  0.00000000000E+00 0.  1.
         21   -1    0    0  502  503 -0.00000000000E+00 -0.00000000000E+00 -0.11834604181E+03  0.11834604181E+03  0.00000000000E+00 0.  1.
         -6    2    1    2    0  503 -0.37293568013E+02  0.22245414685E+02  0.11095172098E+03  0.21051696685E+03  0.17355529452E+03 0.  0.
        -24    2    3    3    0    0  0.21491573405E+02  0.61963143055E+02  0.32429200071E+02  0.10458742853E+03  0.74736593215E+02 0.  0.
          6    2    1    2  501    0  0.37293568013E+02 -0.22245414685E+02  0.46888770882E+02  0.18401560863E+03  0.17256163738E+03 0.  0.
         24    2    5    5    0    0  0.80299863826E+02  0.34104295448E+01 -0.32370174844E+01  0.11300540879E+03  0.79372822631E+02 0.  0.
          5    1    5    5  501    0 -0.43006295813E+02 -0.25655844230E+02  0.50125788366E+02  0.71010199845E+02  0.47000000000E+01 0. -1.
        -13    1    6    6    0    0  0.55038439777E+02 -0.16860629133E+01 -0.40035753866E+02  0.68080351415E+02  0.00000000000E+00 0.  1.
         14    1    6    6    0    0  0.25261424049E+02  0.50964924581E+01  0.36798736382E+02  0.44925057370E+02  0.00000000000E+00 0. -1.
         -5    1    3    3    0  503 -0.58785141418E+02 -0.39717728370E+02  0.78522520907E+02  0.10592953832E+03  0.47000000000E+01 0.  1.
         13    1    4    4    0    0  0.21009335946E+02 -0.11612208103E+02 -0.42460815215E+00  0.24008662312E+02  0.00000000000E+00 0. -1.
        -14    1    4    4    0    0  0.48223745818E+00  0.73575351159E+02  0.32853808223E+02  0.80578766222E+02  0.00000000000E+00 0.  1.
</event>
<event>
12    1  0.8271773E-002  0.1942632E+03  0.7818608E-02  0.1154862E+00
         21   -1    0    0  503  502  0.00000000000E+00  0.00000000000E+00  0.37252822452E+03  0.37252822452E+03  0.00000000000E+00 0.  1.
         21   -1    0    0  501  503 -0.00000000000E+00 -0.00000000000E+00 -0.31321663534E+03  0.31321663534E+03  0.00000000000E+00 0.  1.
          6    2    1    2  501    0  0.69907642073E+02  0.56675109137E+02 -0.25264985127E+03  0.31870071337E+03  0.17215995744E+03 0.  0.
         24    2    3    3    0    0  0.39479025456E+02  0.10366302205E+03 -0.19441510774E+03  0.23778631402E+03  0.80252610087E+02 0.  0.
         -6    2    1    2    0  502 -0.69907642073E+02 -0.56675109137E+02  0.31196144045E+03  0.36704414648E+03  0.17117920061E+03 0.  0.
        -24    2    5    5    0    0 -0.10244799396E+03 -0.42492324822E+01  0.19328408049E+03  0.23320187808E+03  0.80689111573E+02 0.  0.
          5    1    3    3  501    0  0.30428616617E+02 -0.46987912915E+02 -0.58234743526E+02  0.80914399354E+02  0.47000000000E+01 0. -1.
        -11    1    4    4    0    0 -0.29374286761E+01  0.93133400570E+02 -0.13004026275E+03  0.15997790074E+03  0.00000000000E+00 0.  1.
         12    1    4    4    0    0  0.42416454132E+02  0.10529621482E+02 -0.64374844994E+02  0.77808413284E+02  0.00000000000E+00 0. -1.
         -5    1    5    5    0  502  0.32540351884E+02 -0.52425876655E+02  0.11867735996E+03  0.13384226840E+03  0.47000000000E+01 0.  1.
         11    1    6    6    0    0  0.15804478803E+01  0.14831944640E+02  0.66224835954E+02  0.67883822038E+02  0.00000000000E+00 0. -1.
        -12    1    6    6    0    0 -0.10402844184E+03 -0.19081177122E+02  0.12705924454E+03  0.16531805604E+03  0.00000000000E+00 0.  1.
</event>
<event>
12    1  0.8271773E-002  0.2878782E+03  0.7818608E-02  0.1091747E+00
         21   -1    0    0  501  502  0.00000000000E+00  0.00000000000E+00  0.14828136198E+04  0.14828136198E+04  0.00000000000E+00 0.  1.
         21   -1    0    0  502  503 -0.00000000000E+00 -0.00000000000E+00 -0.74698487309E+02  0.74698487309E+02  0.00000000000E+00 0. -1.
         -6    2    1    2    0  503 -0.18307881114E+03  0.13990840801E+03  0.30700913323E+03  0.41939599012E+03  0.16895613313E+03 0.  0.
        -24    2    3    3    0    0 -0.13167139287E+03  0.11643623360E+03  0.12817954750E+03  0.23179061611E+03  0.80013380918E+02 0.  0.
          6    2    1    2  501    0  0.18307881114E+03 -0.13990840801E+03  0.11011059993E+04  0.11381161170E+04  0.17257363767E+03 0.  0.
         24    2    5    5    0    0  0.43055767580E+02 -0.10724498404E+03  0.42360882256E+03  0.44551387441E+03  0.75384958794E+02 0.  0.
          5    1    5    5  501    0  0.14002304356E+03 -0.32663423963E+02  0.67749717672E+03  0.69260224260E+03  0.47000000000E+01 0. -1.
        -11    1    6    6    0    0  0.61150694191E+02 -0.81557543643E+02  0.36556378301E+03  0.37951010497E+03  0.00000000000E+00 0.  1.
         12    1    6    6    0    0 -0.18094926611E+02 -0.25687440401E+02  0.58045039551E+02  0.66003769437E+02  0.00000000000E+00 0. -1.
         -5    1    3    3    0  503 -0.51407418271E+02  0.23472174410E+02  0.17882958573E+03  0.18760537401E+03  0.47000000000E+01 0.  1.
         11    1    4    4    0    0 -0.12287849207E+03  0.66858813391E+02  0.11103687519E+03  0.17860126649E+03  0.00000000000E+00 0. -1.
        -12    1    4    4    0    0 -0.87929007970E+01  0.49577420206E+02  0.17142672312E+02  0.53189349618E+02  0.00000000000E+00 0.  1.
</event>
<event>
12    1  0.8271773E-002  0.2737192E+03  0.7818608E-02  0.1100393E+00
         21   -1    0    0  503  502  0.00000000000E+00  0.00000000000E+00  0.12093453796E+04  0.12093453796E+04  0.00000000000E+00 0.  1.
         21   -1    0    0  501  503 -0.00000000000E+00 -0.00000000000E+00 -0.60093330375E+02  0.60093330375E+02  0.00000000000E+00 0. -1.
          6    2    1    2  501    0  0.21444339662E+03 -0.13856467890E+02  0.60403092560E+03  0.66315574995E+03  0.16954119721E+03 0.  0.
         24    2    3    3    0    0  0.34742716225E+02  0.25366893673E+01  0.26692475974E+03  0.28076363810E+03  0.79786602858E+02 0.  0.
         -6    2    1    2    0  502 -0.21444339662E+03  0.13856467890E+02  0.54522112358E+03  0.60628295998E+03  0.15535437523E+03 0.  0.
        -24    2    5    5    0    0 -0.77098529307E+02  0.56227186849E+02  0.26724051828E+03  0.29330660731E+03  0.74199673328E+02 0.  0.
          5    1    3    3  501    0  0.17970068040E+03 -0.16393157257E+02  0.33710616586E+03  0.38239211184E+03  0.47000000000E+01 0. -1.
        -11    1    4    4    0    0  0.57224496478E+02 -0.52257213734E+01  0.13513459151E+03  0.14684450614E+03  0.00000000000E+00 0.  1.
         12    1    4    4    0    0 -0.22481780253E+02  0.77624107407E+01  0.13179016823E+03  0.13391913196E+03  0.00000000000E+00 0. -1.
         -5    1    5    5    0  502 -0.13734486732E+03 -0.42370718959E+02  0.27798060531E+03  0.31297635267E+03  0.47000000000E+01 0.  1.
         11    1    6    6    0    0 -0.86399063282E+02  0.37675389738E+02  0.17509336086E+03  0.19885149772E+03  0.00000000000E+00 0. -1.
        -12    1    6    6    0    0  0.93005339756E+01  0.18551797111E+02  0.92147157413E+02  0.94455109590E+02  0.00000000000E+00 0.  1.
</event>
<event>
12    1  0.8271773E-002  0.2237903E+03  0.7818608E-02  0.1131525E+00
         21   -1    0    0  501  502  0.00000000000E+00  0.00000000000E+00  0.12063438985E+03  0.12063438985E+03  0.00000000000E+00 0. -1.
         21   -1    0    0  502  503 -0.00000000000E+00 -0.00000000000E+00 -0.42694627076E+03  0.42694627076E+03  0.00000000000E+00 0.  1.
         -6    2    1    2    0  503 -0.71424043981E+02 -0.12276280932E+03 -0.20569210569E+03  0.30221069249E+03  0.16985275653E+03 0.  0.
        -24    2    3    3    0    0  0.22669261188E+02 -0.27796378204E+02 -0.74443533997E+02  0.11480618164E+03  0.79699972045E+02 0.  0.
          6    2    1    2  501    0  0.71424043981E+02  0.12276280932E+03 -0.10061977521E+03  0.24536996812E+03  0.17294502213E+03 0.  0.
         24    2    5    5    0    0  0.34761292200E+02  0.15206223134E+03 -0.10451893817E+03  0.19804231267E+03  0.62970465567E+02 0.  0.
          5    1    5    5  501    0  0.36662751781E+02 -0.29299422019E+02  0.38991629580E+01  0.47327655451E+02  0.47000000000E+01 0. -1.
        -11    1    6    6    0    0  0.44424702263E+02  0.59162777215E+02 -0.36498332080E+02  0.82497979512E+02  0.00000000000E+00 0.  1.
         12    1    6    6    0    0 -0.96634100624E+01  0.92899454126E+02 -0.68020606093E+02  0.11554433315E+03  0.00000000000E+00 0. -1.
         -5    1    3    3    0  503 -0.94093305169E+02 -0.94966431118E+02 -0.13124857169E+03  0.18740451085E+03  0.47000000000E+01 0.  1.
         11    1    4    4    0    0  0.31655670499E+02 -0.46879072701E+02 -0.26577372937E+02  0.62498685461E+02  0.00000000000E+00 0. -1.
        -12    1    4    4    0    0 -0.89864093109E+01  0.19082694497E+02 -0.47866161060E+02  0.52307496176E+02  0.00000000000E+00 0.  1.
</event>
<event>
12    1  0.8271773E-002  0.1912062E+03  0.7818608E-02  0.1157806E+00
         21   -1    0    0  501  502  0.00000000000E+00  0.00000000000E+00  0.30045264450E+03  0.30045264450E+03  0.00000000000E+00 0. -1.
         21   -1    0    0  502  503 -0.00000000000E+00 -0.00000000000E+00 -0.12686035240E+03  0.12686035240E+03  0.00000000000E+00 0. -1.
         -6    2    1    2    0  503 -0.26283002623E+00  0.84787369959E+02  0.13432277360E+03  0.23211585726E+03  0.16925187295E+03 0.  0.
        -24    2    3    3    0    0 -0.16873180070E+02  0.98454410042E+02  0.38738332126E+02  0.13402830878E+03  0.80529212819E+02 0.  0.
          6    2    1    2  501    0  0.26283002623E+00 -0.84787369959E+02  0.39269518495E+02  0.19519713964E+03  0.17137929005E+03 0.  0.
         24    2    5    5    0    0 -0.43949683153E+02 -0.67161402184E+02 -0.24189925847E+02  0.11573260581E+03  0.79791321216E+02 0.  0.
          5    1    5    5  501    0  0.44212513179E+02 -0.17625967776E+02  0.63459444342E+02  0.79464533837E+02  0.47000000000E+01 0. -1.
        -11    1    6    6    0    0 -0.39784556058E+02 -0.36584939544E+02 -0.51402698641E+02  0.74588914255E+02  0.00000000000E+00 0.  1.
         12    1    6    6    0    0 -0.41651270952E+01 -0.30576462640E+02  0.27212772794E+02  0.41143691551E+02  0.00000000000E+00 0. -1.
         -5    1    3    3    0  503  0.16610350044E+02 -0.13667040083E+02  0.95584441476E+02  0.98087548473E+02  0.47000000000E+01 0.  1.
         11    1    4    4    0    0 -0.65826891017E+01  0.14103006408E+02  0.46174385617E+02  0.48726794196E+02  0.00000000000E+00 0. -1.
        -12    1    4    4    0    0 -0.10290490968E+02  0.84351403635E+02 -0.74360534913E+01  0.85301514588E+02  0.00000000000E+00 0.  1.
</event>
<event>
12    1  0.8271773E-002  0.2767483E+03  0.7818608E-02  0.1097541E+00
         21   -1    0    0  503  502  0.00000000000E+00  0.00000000000E+00  0.89714025104E+03  0.89714025104E+03  0.00000000000E+00 0.  1.
         21   -1    0    0  501  503 -0.00000000000E+00 -0.00000000000E+00 -0.33815006824E+03  0.33815006824E+03  0.00000000000E+00 0. -1.
          6    2    1    2  501    0  0.48211059426E+02 -0.21083742154E+03 -0.25472673243E+03  0.37579929377E+03  0.17193800166E+03 0.  0.
         24    2    3    3    0    0  0.93442971943E+02 -0.10600823660E+03 -0.13883314451E+03  0.21304642085E+03  0.78388775909E+02 0.  0.
         -6    2    1    2    0  502 -0.48211059426E+02  0.21083742154E+03  0.81371691523E+03  0.85949102551E+03  0.17266406754E+03 0.  0.
        -24    2    5    5    0    0 -0.87006603672E+02  0.88017790936E+02  0.42803759247E+03  0.45284574283E+03  0.80844329613E+02 0.  0.
          5    1    3    3  501    0 -0.45231912517E+02 -0.10482918494E+03 -0.11589358791E+03  0.16275287293E+03  0.47000000000E+01 0. -1.
        -13    1    4    4    0    0  0.95855354650E+02 -0.10304317354E+03 -0.14732005717E+03  0.20373842022E+03  0.00000000000E+00 0.  1.
         14    1    4    4    0    0 -0.24123827072E+01 -0.29650630599E+01  0.84869126577E+01  0.93080006304E+01  0.00000000000E+00 0. -1.
         -5    1    5    5    0  502  0.38795544246E+02  0.12281963061E+03  0.38567932276E+03  0.40664528268E+03  0.47000000000E+01 0.  1.
         11    1    6    6    0    0 -0.14000715286E+02  0.98280097338E+01  0.70878165585E+01  0.18516126685E+02  0.00000000000E+00 0. -1.
        -12    1    6    6    0    0 -0.73005888387E+02  0.78189781202E+02  0.42094977591E+03  0.43432961615E+03  0.00000000000E+00 0.  1.
</event>
<event>
12    1  0.8271773E-002  0.1904748E+03  0.7818608E-02  0.1159205E+00
         21   -1    0    0  501  502  0.00000000000E+00  0.00000000000E+00  0.40857613925E+03  0.40857613925E+03  0.00000000000E+00 0.  1.
         21   -1    0    0  502  503 -0.00000000000E+00 -0.00000000000E+00 -0.10807296384E+03  0.10807296384E+03  0.00000000000E+00 0.  1.
         -6    2    1    2    0  503  0.36975145580E+02 -0.74317466347E+02  0.36274640060E+02  0.19389818297E+03  0.17143631077E+03 0.  0.
        -24    2    3    3    0    0 -0.11721730166E+02 -0.68313476556E+02  0.69923574449E+02  0.13421757987E+03  0.91219090352E+02 0.  0.
          6    2    1    2  501    0 -0.36975145580E+02  0.74317466347E+02  0.26422853535E+03  0.32275092012E+03  0.16571418271E+03 0.  0.
         24    2    5    5    0    0  0.42425646026E+02  0.46306355695E+02  0.14991613713E+03  0.18069979406E+03  0.78951588861E+02 0.  0.
          5    1    5    5  501    0 -0.79400791606E+02  0.28011110652E+02  0.11431239822E+03  0.14205112606E+03  0.47000000000E+01 0. -1.
        -11    1    6    6    0    0  0.16330661378E+02 -0.15628799620E+02  0.82364863561E+02  0.85410307504E+02  0.00000000000E+00 0.  1.
         12    1    6    6    0    0  0.26094984649E+02  0.61935155315E+02  0.67551273569E+02  0.95289486558E+02  0.00000000000E+00 0. -1.
         -5    1    3    3    0  503  0.48696875746E+02 -0.60039897908E+01 -0.33648934389E+02  0.59680603100E+02  0.47000000000E+01 0.  1.
         13    1    4    4    0    0 -0.40230121194E+02 -0.25123187773E+01  0.39118573016E+02  0.56169717390E+02  0.00000000000E+00 0. -1.
        -14    1    4    4    0    0  0.28508391028E+02 -0.65801157779E+02  0.30805001433E+02  0.78047862478E+02  0.00000000000E+00 0.  1.
</event>
<event>
12    1  0.8271773E-002  0.1742601E+03  0.7818608E-02  0.1173666E+00
         21   -1    0    0  501  502  0.00000000000E+00  0.00000000000E+00  0.61651752164E+03  0.61651752164E+03  0.00000000000E+00 0.  1.
         21   -1    0    0  502  503 -0.00000000000E+00 -0.00000000000E+00 -0.71720541317E+02  0.71720541317E+02  0.00000000000E+00 0.  1.
         -6    2    1    2    0  503  0.19153640405E+02  0.63645538235E+01  0.79300578829E+02  0.19145535305E+03  0.17308726389E+03 0.  0.
        -24    2    3    3    0    0  0.99615587653E+01 -0.29288762099E+02  0.11244879511E+03  0.14169043022E+03  0.80463546140E+02 0.  0.
          6    2    1    2  501    0 -0.19153640405E+02 -0.63645538235E+01  0.46549640150E+03  0.49678270992E+03  0.17233337337E+03 0.  0.
         24    2    5    5    0    0  0.54084411619E+02 -0.21389869839E+02  0.28746997458E+03  0.30363750271E+03  0.78575420171E+02 0.  0.
          5    1    5    5  501    0 -0.73238052024E+02  0.15025316016E+02  0.17802642692E+03  0.19314520721E+03  0.47000000000E+01 0. -1.
        -13    1    6    6    0    0 -0.20922598743E+01 -0.34212729587E+02  0.16174538690E+03  0.16533740835E+03  0.00000000000E+00 0.  1.
         14    1    6    6    0    0  0.56176671493E+02  0.12822859747E+02  0.12572458768E+03  0.13830009436E+03  0.00000000000E+00 0. -1.
         -5    1    3    3    0  503  0.91920816394E+01  0.35653315922E+02 -0.33148216278E+02  0.49764922822E+02  0.47000000000E+01 0.  1.
         11    1    4    4    0    0  0.43578037752E+02 -0.28806786099E+02  0.62116246654E+02  0.81162210407E+02  0.00000000000E+00 0. -1.
        -12    1    4    4    0    0 -0.33616478987E+02 -0.48197599916E+00  0.50332548453E+02  0.60528219816E+02  0.00000000000E+00 0.  1.
</event>
<event>
12    1  0.8271773E-002  0.1731071E+03  0.7818608E-02  0.1174785E+00
         21   -1    0    0  501  502  0.00000000000E+00  0.00000000000E+00  0.15859696861E+03  0.15859696861E+03  0.00000000000E+00 0.  1.
         21   -1    0    0  502  503 -0.00000000000E+00 -0.00000000000E+00 -0.41799062845E+03  0.41799062845E+03  0.00000000000E+00 0.  1.
         -6    2    1    2    0  503 -0.18907745463E+01 -0.11855292294E+02 -0.34347537940E+03  0.38463153585E+03  0.17269035623E+03 0.  0.
        -24    2    3    3    0    0 -0.12251095799E+02  0.39356208072E+02 -0.95436208809E+02  0.13110545401E+03  0.79884727313E+02 0.  0.
          6    2    1    2  501    0  0.18907745463E+01  0.11855292294E+02  0.84081719557E+02  0.19195606122E+03  0.17214316975E+03 0.  0.
         24    2    5    5    0    0  0.22362881680E+02  0.49616703395E+02  0.15754922400E+01  0.98819608177E+02  0.82467672767E+02 0.  0.
          5    1    5    5  501    0 -0.20472107133E+02 -0.37761411100E+02  0.82506227317E+02  0.93136453040E+02  0.47000000000E+01 0. -1.
        -11    1    6    6    0    0 -0.11788143630E+02  0.49066242859E+02  0.26060560242E+02  0.56794447956E+02  0.00000000000E+00 0.  1.
         12    1    6    6    0    0  0.34151025310E+02  0.55046053573E+00 -0.24485068002E+02  0.42025160221E+02  0.00000000000E+00 0. -1.
         -5    1    3    3    0  503  0.10360321253E+02 -0.51211500366E+02 -0.24803917059E+03  0.25352608184E+03  0.47000000000E+01 0.  1.
         11    1    4    4    0    0  0.18288792183E+02  0.49979113080E+02 -0.77835587722E+02  0.94290881743E+02  0.00000000000E+00 0. -1.
        -12    1    4    4    0    0 -0.30539887982E+02 -0.10622905008E+02 -0.17600621087E+02  0.36814572270E+02  0.00000000000E+00 0.  1.
</event>
<event>
12    1  0.8271773E-002  0.2155487E+03  0.7818608E-02  0.1137641E+00
         21   -1    0    0  501  502  0.00000000000E+00  0.00000000000E+00  0.19843009235E+03  0.19843009235E+03  0.00000000000E+00 0.  1.
         21   -1    0    0  502  503 -0.00000000000E+00 -0.00000000000E+00 -0.25765365634E+03  0.25765365634E+03  0.00000000000E+00 0.  1.
         -6    2    1    2    0  503  0.71874082931E+02  0.10528843449E+03 -0.10181157024E+03  0.23838378698E+03  0.17380936633E+03 0.  0.
        -24    2    3    3    0    0  0.70884085408E+01  0.12321803079E+03 -0.82585455970E+02  0.16830962983E+03  0.79213921180E+02 0.  0.
          6    2    1    2  501    0 -0.71874082931E+02 -0.10528843449E+03  0.42588006242E+02  0.21769996172E+03  0.17125418775E+03 0.  0.
         24    2    5    5    0    0 -0.89930427667E+02 -0.11478087070E+03 -0.44946369797E+01  0.16617323833E+03  0.79568921542E+02 0.  0.
          5    1    5    5  501    0  0.18056344736E+02  0.94924362108E+01  0.47082643221E+02  0.51526723389E+02  0.47000000000E+01 0. -1.
        -13    1    6    6    0    0 -0.33287002663E+02 -0.15154709865E+02  0.29110076659E+02  0.46744907108E+02  0.00000000000E+00 0.  1.
         14    1    6    6    0    0 -0.56643425004E+02 -0.99626160837E+02 -0.33604713639E+02  0.11942833122E+03  0.00000000000E+00 0. -1.
         -5    1    3    3    0  503  0.64785674390E+02 -0.17929596300E+02 -0.19226114269E+02  0.70074157145E+02  0.47000000000E+01 0.  1.
         13    1    4    4    0    0 -0.35764032158E+02  0.65878757941E+02 -0.45527511697E+02  0.87703084697E+02  0.00000000000E+00 0. -1.
        -14    1    4    4    0    0  0.42852440699E+02  0.57339272849E+02 -0.37057944273E+02  0.80606545134E+02  0.00000000000E+00 0.  1.
</event>
<event>
12    1  0.8271773E-002  0.1834018E+03  0.7818608E-02  0.1164582E+00
         21   -1    0    0  503  502  0.00000000000E+00  0.00000000000E+00  0.44902063981E+03  0.44902063981E+03  0.00000000000E+00 0. -1.
         21   -1    0    0  501  503 -0.00000000000E+00 -0.00000000000E+00 -0.75896145686E+02  0.75896145686E+02  0.00000000000E+00 0. -1.
          6    2    1    2  501    0 -0.64486210698E+02  0.23226052234E+01  0.21735809162E+03  0.28439543304E+03  0.17167514811E+03 0.  0.
         24    2    3    3    0    0 -0.55492994127E+01 -0.52858804556E+02  0.80913005051E+02  0.12578301503E+03  0.80309429968E+02 0.  0.
         -6    2    1    2    0  502  0.64486210698E+02 -0.23226052234E+01  0.15576640251E+03  0.24052135246E+03  0.17153274606E+03 0.  0.
        -24    2    5    5    0    0  0.22391936250E+02  0.19562131499E+02  0.61819969096E+01  0.83523091191E+02  0.77806258608E+02 0.  0.
          5    1    3    3  501    0 -0.58936911285E+02  0.55181409780E+02  0.13644508657E+03  0.15861241801E+03  0.47000000000E+01 0. -1.
        -13    1    4    4    0    0 -0.30377256368E+02 -0.23209507026E+00  0.60664895405E+01  0.30977957775E+02  0.00000000000E+00 0.  1.
         14    1    4    4    0    0  0.24827956956E+02 -0.52626709486E+02  0.74846515510E+02  0.94805057259E+02  0.00000000000E+00 0. -1.
         -5    1    5    5    0  502  0.42094274447E+02 -0.21884736722E+02  0.14958440560E+03  0.15699826126E+03  0.47000000000E+01 0.  1.
         11    1    6    6    0    0  0.31980860969E+02  0.42950107614E+02 -0.86085803137E+01  0.54236471745E+02  0.00000000000E+00 0. -1.
        -12    1    6    6    0    0 -0.95889247184E+01 -0.23387976115E+02  0.14790577223E+02  0.29286619446E+02  0.00000000000E+00 0.  1.
</event>
<event>
12    1  0.8271773E-002  0.2121579E+03  0.7818608E-02  0.1139974E+00
         21   -1    0    0  503  502  0.00000000000E+00  0.00000000000E+00  0.77584701908E+02  0.77584701908E+02  0.00000000000E+00 0.  1.
         21   -1    0    0  501  503 -0.00000000000E+00 -0.00000000000E+00 -0.62724688639E+03  0.62724688639E+03  0.00000000000E+00 0.  1.
          6    2    1    2  501    0  0.11853473225E+03 -0.40057513716E+02 -0.37257141121E+03  0.42847650069E+03  0.17066800531E+03 0.  0.
         24    2    3    3    0    0  0.10986188913E+02  0.13311975354E+02 -0.91156875531E+02  0.12248430727E+03  0.79968272066E+02 0.  0.
         -6    2    1    2    0  502 -0.11853473225E+03  0.40057513716E+02 -0.17709077327E+03  0.27635508761E+03  0.17133565103E+03 0.  0.
        -24    2    5    5    0    0 -0.87476123529E+02  0.84614812592E+01 -0.19613487642E+03  0.22790186989E+03  0.75807016164E+02 0.  0.
          5    1    3    3  501    0  0.10754854334E+03 -0.53369489070E+02 -0.28141453568E+03  0.30599219341E+03  0.47000000000E+01 0. -1.
        -11    1    4    4    0    0 -0.69189271066E+00  0.41305168019E+01 -0.10324646481E+03  0.10333137172E+03  0.00000000000E+00 0.  1.
         12    1    4    4    0    0  0.11678081623E+02  0.91814585521E+01  0.12089589281E+02  0.19152935559E+02  0.00000000000E+00 0. -1.
         -5    1    5    5    0  502 -0.31058608724E+02  0.31596032457E+02  0.19044103144E+02  0.48453217720E+02  0.47000000000E+01 0.  1.
         11    1    6    6    0    0 -0.74819289041E+02 -0.14760106922E+02 -0.87385268259E+02  0.11598263610E+03  0.00000000000E+00 0. -1.
        -12    1    6    6    0    0 -0.12656834488E+02  0.23221588181E+02 -0.10874960816E+03  0.11191923379E+03  0.00000000000E+00 0.  1.
</event>
<event>
12    1  0.8271773E-002  0.1759495E+03  0.7818608E-02  0.1172509E+00
         21   -1    0    0  501  502  0.00000000000E+00  0.00000000000E+00  0.86332387507E+03  0.86332387507E+03  0.00000000000E+00 0.  1.
         21   -1    0    0  502  503 -0.00000000000E+00 -0.00000000000E+00 -0.39557039881E+02  0.39557039881E+02  0.00000000000E+00 0.  1.
         -6    2    1    2    0  503 -0.12437569717E+02 -0.31850790506E+02  0.26635133091E+03  0.31921975774E+03  0.17259506441E+03 0.  0.
        -24    2    3    3    0    0 -0.32836940920E+02  0.36317316182E+02  0.13352499319E+03  0.16846183554E+03  0.90295371324E+02 0.  0.
          6    2    1    2  501    0  0.12437569717E+02  0.31850790506E+02  0.55741550427E+03  0.58366115720E+03  0.16964414529E+03 0.  0.
         24    2    5    5    0    0 -0.94662600118E+00  0.20811974287E+02  0.55973779104E+03  0.56553727312E+03  0.78051125498E+02 0.  0.
          5    1    5    5  501    0  0.13384195718E+02  0.11038816219E+02 -0.23222867703E+01  0.18123884086E+02  0.47000000000E+01 0. -1.
        -13    1    6    6    0    0  0.34715632576E+02 -0.45784258214E+01  0.31227234656E+03  0.31422946322E+03  0.00000000000E+00 0.  1.
         14    1    6    6    0    0 -0.35662258577E+02  0.25390400108E+02  0.24746544448E+03  0.25130780990E+03  0.00000000000E+00 0. -1.
         -5    1    3    3    0  503  0.20399371203E+02 -0.68168106688E+02  0.13282633772E+03  0.15075792220E+03  0.47000000000E+01 0.  1.
         13    1    4    4    0    0 -0.41675674732E+02 -0.54367787656E+01  0.11405287191E+03  0.12155031065E+03  0.00000000000E+00 0. -1.
        -14    1    4    4    0    0  0.88387338120E+01  0.41754094948E+02  0.19472121281E+02  0.46911524890E+02  0.00000000000E+00 0.  1.
</event>
<event>
12    1  0.8271773E-002  0.2976164E+03  0.7818608E-02  0.1087380E+00
         21   -1    0    0  501  502  0.00000000000E+00  0.00000000000E+00  0.31907860003E+03  0.31907860003E+03  0.00000000000E+00 0. -1.
         21   -1    0    0  502  503 -0.00000000000E+00 -0.00000000000E+00 -0.27346181390E+03  0.27346181390E+03  0.00000000000E+00 0.  1.
         -6    2    1    2    0  503  0.16673032228E+03  0.16709596380E+03  0.52463931940E+02  0.30220518819E+03  0.18126072419E+03 0.  0.
        -24    2    3    3    0    0  0.18022075885E+03  0.94922531992E+02  0.62177983529E+02  0.22799299960E+03  0.81393471677E+02 0.  0.
          6    2    1    2  501    0 -0.16673032228E+03 -0.16709596380E+03 -0.68471458106E+01  0.29033522574E+03  0.16890114983E+03 0.  0.
         24    2    5    5    0    0 -0.64591500959E+02 -0.13827566352E+03  0.33543547944E+02  0.17668467946E+03  0.82462629278E+02 0.  0.
          5    1    5    5  501    0 -0.10213882132E+03 -0.28820300275E+02 -0.40390693755E+02  0.11365054628E+03  0.47000000000E+01 0. -1.
        -13    1    6    6    0    0  0.14358872679E+02 -0.59119797250E+02  0.35944866688E+01  0.60944630493E+02  0.00000000000E+00 0.  1.
         14    1    6    6    0    0 -0.78950373638E+02 -0.79155866270E+02  0.29949061276E+02  0.11574004896E+03  0.00000000000E+00 0. -1.
         -5    1    3    3    0  503 -0.13490436573E+02  0.72173431804E+02 -0.97140515891E+01  0.74212188591E+02  0.47000000000E+01 0.  1.
         11    1    4    4    0    0  0.37725235576E+02  0.54800891457E+02  0.41771481514E+02  0.78556907854E+02  0.00000000000E+00 0. -1.
        -12    1    4    4    0    0  0.14249552328E+03  0.40121640535E+02  0.20406502015E+02  0.14943609175E+03  0.00000000000E+00 0.  1.
</event>
<event>
12    1  0.8271773E-002  0.2437519E+03  0.7818608E-02  0.1117335E+00
         21   -1    0    0  501  502  0.00000000000E+00  0.00000000000E+00  0.11734486743E+04  0.11734486743E+04  0.00000000000E+00 0. -1.
         21   -1    0    0  502  503 -0.00000000000E+00 -0.00000000000E+00 -0.12606685198E+03  0.12606685198E+03  0.00000000000E+00 0.  1.
         -6    2    1    2    0  503 -0.37218656822E+02 -0.17051960156E+03  0.20963391711E+02  0.24455117064E+03  0.17001073006E+03 0.  0.
        -24    2    3    3    0    0 -0.69089537346E+02 -0.86697348503E+02  0.56072817497E+02  0.14813185249E+03  0.80678934370E+02 0.  0.
          6    2    1    2  501    0  0.37218656822E+02  0.17051960156E+03  0.10264184306E+04  0.10549643556E+04  0.17015532328E+03 0.  0.
         24    2    5    5    0    0  0.64871308371E+02  0.40790311379E+02  0.49930884676E+03  0.51140114749E+03  0.79684835743E+02 0.  0.
          5    1    5    5  501    0 -0.27652651549E+02  0.12972929018E+03  0.52710958380E+03  0.54356320811E+03  0.47000000000E+01 0. -1.
        -11    1    6    6    0    0  0.75482512809E+02  0.36474452903E+02  0.48853376135E+03  0.49567452168E+03  0.00000000000E+00 0.  1.
         12    1    6    6    0    0 -0.10611204438E+02  0.43158584762E+01  0.10775085408E+02  0.15726625816E+02  0.00000000000E+00 0. -1.
         -5    1    3    3    0  503  0.31870880524E+02 -0.83822253060E+02 -0.35109425786E+02  0.96419318150E+02  0.47000000000E+01 0.  1.
         11    1    4    4    0    0 -0.80735974060E+02 -0.69242132310E+02  0.22773308778E+02  0.10877221147E+03  0.00000000000E+00 0. -1.
        -12    1    4    4    0    0  0.11646436714E+02 -0.17455216193E+02  0.33299508718E+02  0.39359641022E+02  0.00000000000E+00 0.  1.
</event>
<event>
12    1  0.8271773E-002  0.1858206E+03  0.7818608E-02  0.1162455E+00
         21   -1    0    0  503  502  0.00000000000E+00  0.00000000000E+00  0.66630149891E+03  0.66630149891E+03  0.00000000000E+00 0. -1.
         21   -1    0    0  501  503 -0.00000000000E+00 -0.00000000000E+00 -0.57260463163E+02  0.57260463163E+02  0.00000000000E+00 0. -1.
          6    2    1    2  501    0 -0.61927919817E+01  0.70199714125E+02  0.19150480775E+03  0.26683960737E+03  0.17193875111E+03 0.  0.
         24    2    3    3    0    0 -0.14309477665E+02  0.44226682292E+02  0.28238115676E+02  0.10125403520E+03  0.85406252058E+02 0.  0.
         -6    2    1    2    0  502  0.61927919817E+01 -0.70199714125E+02  0.41753622800E+03  0.45672235471E+03  0.17115039310E+03 0.  0.
        -24    2    5    5    0    0  0.34937898364E+01 -0.11327617591E+03  0.34786719170E+03  0.37463258195E+03  0.80587156554E+02 0.  0.
          5    1    3    3  501    0  0.81166856830E+01  0.25973031833E+02  0.16326669207E+03  0.16558557216E+03  0.47000000000E+01 0. -1.
        -11    1    4    4    0    0  0.90113186150E+01 -0.14812497971E+02 -0.16230483019E+02  0.23749579751E+02  0.00000000000E+00 0.  1.
         12    1    4    4    0    0 -0.23320796280E+02  0.59039180263E+02  0.44468598695E+02  0.77504455453E+02  0.00000000000E+00 0. -1.
         -5    1    5    5    0  502  0.26990021453E+01  0.43076461782E+02  0.69669036304E+02  0.82089772760E+02  0.47000000000E+01 0.  1.
         13    1    6    6    0    0  0.30395053810E+02 -0.41325858192E+02  0.21614094266E+03  0.22214543197E+03  0.00000000000E+00 0. -1.
        -14    1    6    6    0    0 -0.26901263974E+02 -0.71950317715E+02  0.13172624904E+03  0.15248714998E+03  0.00000000000E+00 0.  1.
</event>
<event>
12    1  0.8271773E-002  0.1956399E+03  0.7818608E-02  0.1154034E+00
         21   -1    0    0  503  502  0.00000000000E+00  0.00000000000E+00  0.38616689826E+03  0.38616689826E+03  0.00000000000E+00 0.  1.
         21   -1    0    0  501  503 -0.00000000000E+00 -0.00000000000E+00 -0.10846678382E+03  0.10846678382E+03  0.00000000000E+00 0.  1.
          6    2    1    2  501    0  0.88756149368E+02 -0.33320431026E+02  0.62174510903E+02  0.20528182801E+03  0.17113460764E+03 0.  0.
         24    2    3    3    0    0  0.12283852086E+02  0.53788689873E+01 -0.23439948816E+02  0.84048277433E+02  0.79591811672E+02 0.  0.
         -6    2    1    2    0  502 -0.88756149368E+02  0.33320431026E+02  0.21552560353E+03  0.28935185407E+03  0.16818235490E+03 0.  0.
        -24    2    5    5    0    0 -0.33698463151E+02 -0.35807003423E+02  0.15971968074E+03  0.18472708633E+03  0.78714624405E+02 0.  0.
          5    1    3    3  501    0  0.76472297282E+02 -0.38699300014E+02  0.85614459720E+02  0.12123355058E+03  0.47000000000E+01 0. -1.
        -11    1    4    4    0    0  0.35603553039E+02  0.27816161532E+02 -0.25024153652E+02  0.51648427831E+02  0.00000000000E+00 0.  1.
         12    1    4    4    0    0 -0.23319700953E+02 -0.22437292545E+02  0.15842048363E+01  0.32399849602E+02  0.00000000000E+00 0. -1.
         -5    1    5    5    0  502 -0.55057686217E+02  0.69127434449E+02  0.55805922791E+02  0.10462476774E+03  0.47000000000E+01 0.  1.
         13    1    6    6    0    0  0.13630581114E+02  0.16746998135E+02  0.45871362284E+02  0.50699473033E+02  0.00000000000E+00 0. -1.
        -14    1    6    6    0    0 -0.47329044265E+02 -0.52554001557E+02  0.11384831846E+03  0.13402761330E+03  0.00000000000E+00 0.  1.
</event>
<event>
12    1  0.8271773E-002  0.2005791E+03  0.7818608E-02  0.1149392E+00
         21   -1    0    0  501  502  0.00000000000E+00  0.00000000000E+00  0.10266025698E+03  0.10266025698E+03  0.00000000000E+00 0. -1.
         21   -1    0    0  502  503 -0.00000000000E+00 -0.00000000000E+00 -0.64682984081E+03  0.64682984081E+03  0.00000000000E+00 0. -1.
         -6    2    1    2    0  503 -0.97042727590E+02  0.30070085903E+02 -0.50767579869E+03  0.54561811719E+03  0.17217117119E+03 0.  0.
        -24    2    3    3    0    0 -0.97547627335E+02 -0.37205117820E+01 -0.49200802852E+03  0.50807309838E+03  0.80851662712E+02 0.  0.
          6    2    1    2  501    0  0.97042727590E+02 -0.30070085903E+02 -0.36493785136E+02  0.20387198060E+03  0.17294648616E+03 0.  0.
         24    2    5    5    0    0  0.76332634477E+02  0.45519991712E+02 -0.23083341740E+02  0.12421836936E+03  0.83657766466E+02 0.  0.
          5    1    5    5  501    0  0.20710093114E+02 -0.75590077616E+02 -0.13410443395E+02  0.79653611235E+02  0.47000000000E+01 0. -1.
        -13    1    6    6    0    0 -0.11378220468E+02 -0.12167317884E+02  0.31441891371E+00  0.16661524082E+02  0.00000000000E+00 0.  1.
         14    1    6    6    0    0  0.87710854944E+02  0.57687309596E+02 -0.23397760654E+02  0.10755684528E+03  0.00000000000E+00 0. -1.
         -5    1    3    3    0  503  0.50489974496E+00  0.33790597685E+02 -0.15667770176E+02  0.37545018817E+02  0.47000000000E+01 0.  1.
         13    1    4    4    0    0 -0.26183181756E+02  0.35694892258E+02 -0.20405471407E+03  0.20880136655E+03  0.00000000000E+00 0. -1.
        -14    1    4    4    0    0 -0.71364445579E+02 -0.39415404040E+02 -0.28795331445E+03  0.29927173183E+03  0.00000000000E+00 0.  1.
</event>
<event>
12    1  0.8271773E-002  0.2902225E+03  0.7818608E-02  0.1090267E+00
         21   -1    0    0  501  502  0.00000000000E+00  0.00000000000E+00  0.10043879608E+03  0.10043879608E+03  0.00000000000E+00 0. -1.
         21   -1    0    0  502  503 -0.00000000000E+00 -0.00000000000E+00 -0.99731783041E+03  0.99731783041E+03  0.00000000000E+00 0.  1.
         -6    2    1    2    0  503  0.14378804151E+03 -0.18406040044E+03 -0.66774489698E+03  0.72798432898E+03  0.17182754117E+03 0.  0.
        -24    2    3    3    0    0  0.34247486779E+02 -0.24905054838E+02 -0.14518561667E+03  0.17083098509E+03  0.79443124768E+02 0.  0.
          6    2    1    2  501    0 -0.14378804151E+03  0.18406040044E+03 -0.22913413735E+03  0.36977229752E+03  0.17226684887E+03 0.  0.
         24    2    5    5    0    0 -0.11362177481E+03  0.12394842219E+03 -0.23807421667E+03  0.30176149989E+03  0.78150822756E+02 0.  0.
          5    1    5    5  501    0 -0.30166266700E+02  0.60111978248E+02  0.89400793222E+01  0.68010797626E+02  0.47000000000E+01 0. -1.
        -11    1    6    6    0    0 -0.61720134465E+02  0.83020940815E+02 -0.20079262501E+03  0.22587503154E+03  0.00000000000E+00 0.  1.
         12    1    6    6    0    0 -0.51901640349E+02  0.40927481378E+02 -0.37281591658E+02  0.75886468355E+02  0.00000000000E+00 0. -1.
         -5    1    3    3    0  503  0.10954055473E+03 -0.15915534560E+03 -0.52255928031E+03  0.55715334389E+03  0.47000000000E+01 0.  1.
         13    1    4    4    0    0 -0.22784209107E+02 -0.23844639868E+02 -0.52568154333E+02  0.62057214610E+02  0.00000000000E+00 0. -1.
        -14    1    4    4    0    0  0.57031695886E+02 -0.10604149697E+01 -0.92617462334E+02  0.10877377048E+03  0.00000000000E+00 0.  1.
</event>
<event>
12    1  0.8271773E-002  0.2019456E+03  0.7818608E-02  0.1148335E+00
         21   -1    0    0  501  502  0.00000000000E+00  0.00000000000E+00  0.63496902334E+02  0.63496902334E+02  0.00000000000E+00 0.  1.
         21   -1    0    0  502  503 -0.00000000000E+00 -0.00000000000E+00 -0.64893990335E+03  0.64893990335E+03  0.00000000000E+00 0.  1.
         -6    2    1    2    0  503  0.71682412774E+02  0.75146291987E+02 -0.33644601055E+03  0.39184121683E+03  0.17192523866E+03 0.  0.
        -24    2    3    3    0    0  0.48284571563E+02  0.67402487398E+01 -0.65855364722E+02  0.11171939809E+03  0.75943821618E+02 0.  0.
          6    2    1    2  501    0 -0.71682412774E+02 -0.75146291987E+02 -0.24899699046E+03  0.32059558885E+03  0.17319554507E+03 0.  0.
         24    2    5    5    0    0 -0.70365878014E+02 -0.59377134250E+02 -0.68822327394E+02  0.13966632419E+03  0.79329493281E+02 0.  0.
          5    1    5    5  501    0 -0.13165347598E+01 -0.15769157737E+02 -0.18017466307E+03  0.18092926466E+03  0.47000000000E+01 0. -1.
        -11    1    6    6    0    0 -0.49086095095E+02 -0.78479108995E+01  0.17374341601E+01  0.49739854389E+02  0.00000000000E+00 0.  1.
         12    1    6    6    0    0 -0.21279782919E+02 -0.51529223351E+02 -0.70559761554E+02  0.89926469800E+02  0.00000000000E+00 0. -1.
         -5    1    3    3    0  503  0.23397841211E+02  0.68406043247E+02 -0.27059064583E+03  0.28012181874E+03  0.47000000000E+01 0.  1.
         13    1    4    4    0    0 -0.17909076550E+02  0.14783885881E+02 -0.21391934389E+02  0.31573931677E+02  0.00000000000E+00 0. -1.
        -14    1    4    4    0    0  0.66193648113E+02 -0.80436371409E+01 -0.44463430333E+02  0.80145466409E+02  0.00000000000E+00 0.  1.
</event>
<event>
12    1  0.8271773E-002  0.2358987E+03  0.7818608E-02  0.1122653E+00
         21   -1    0    0  503  502  0.00000000000E+00  0.00000000000E+00  0.26511463944E+03  0.26511463944E+03  0.00000000000E+00 0.  1.
         21   -1    0    0  501  503 -0.00000000000E+00 -0.00000000000E+00 -0.23392776274E+03  0.23392776274E+03  0.00000000000E+00 0. -1.
          6    2    1    2  501    0  0.13575810792E+03 -0.85753680185E+02  0.96419835942E+02  0.25484306484E+03  0.17281274665E+03 0.  0.
         24    2    3    3    0    0  0.43790160941E+02 -0.64635446850E+02  0.11179984102E+03  0.15912097958E+03  0.82005868729E+02 0.  0.
         -6    2    1    2    0  502 -0.13575810792E+03  0.85753680185E+02 -0.65232959243E+02  0.24419933733E+03  0.17202912500E+03 0.  0.
        -24    2    5    5    0    0 -0.60850921574E+02  0.10343807678E+03  0.16075533704E+01  0.14215244332E+03  0.76173896647E+02 0.  0.
          5    1    3    3  501    0  0.91967946979E+02 -0.21118233334E+02 -0.15380005078E+02  0.95722085262E+02  0.47000000000E+01 0. -1.
        -13    1    4    4    0    0  0.21180840526E+02 -0.71249196425E+02  0.41831032553E+02  0.85293090464E+02  0.00000000000E+00 0.  1.
         14    1    4    4    0    0  0.22609320415E+02  0.66137495744E+01  0.69968808468E+02  0.73827889117E+02  0.00000000000E+00 0. -1.
         -5    1    5    5    0  502 -0.74907186346E+02 -0.17684396598E+02 -0.66840512613E+02  0.10204689400E+03  0.47000000000E+01 0.  1.
         13    1    6    6    0    0 -0.41325150860E+02  0.96021948720E+02 -0.25819002085E+02  0.10767824106E+03  0.00000000000E+00 0. -1.
        -14    1    6    6    0    0 -0.19525770715E+02  0.74161280621E+01  0.27426555456E+02  0.34474202262E+02  0.00000000000E+00 0.  1.
</event>
<event>
12    1  0.8271773E-002  0.1842319E+03  0.7818608E-02  0.1163859E+00
         21   -1    0    0  503  502  0.00000000000E+00  0.00000000000E+00  0.28479009222E+03  0.28479009222E+03  0.00000000000E+00 0. -1.
         21   -1    0    0  501  503 -0.00000000000E+00 -0.00000000000E+00 -0.27034841618E+03  0.27034841618E+03  0.00000000000E+00 0.  1.
          6    2    1    2  501    0  0.21639019215E+02 -0.62956250499E+02 -0.20051091463E+03  0.27203781167E+03  0.17137154800E+03 0.  0.
         24    2    3    3    0    0  0.18840919104E+02 -0.10422572248E+03 -0.18590447013E+03  0.22791936992E+03  0.78541617714E+02 0.  0.
         -6    2    1    2    0  502 -0.21639019215E+02  0.62956250499E+02  0.21495259067E+03  0.28310069673E+03  0.17178373503E+03 0.  0.
        -24    2    5    5    0    0 -0.66742019785E+02  0.79785772211E+02  0.12348324182E+03  0.17962970930E+03  0.78730266088E+02 0.  0.
          5    1    3    3  501    0  0.27981001103E+01  0.41269471976E+02 -0.14606444494E+02  0.44118441747E+02  0.47000000000E+01 0. -1.
        -13    1    4    4    0    0 -0.10800602122E+02  0.39259705866E+01 -0.52026207479E+02  0.53280320156E+02  0.00000000000E+00 0.  1.
         14    1    4    4    0    0  0.29641521227E+02 -0.10815169306E+03 -0.13387826265E+03  0.17463904977E+03  0.00000000000E+00 0. -1.
         -5    1    5    5    0  502  0.45103000570E+02 -0.16829521712E+02  0.91469348849E+02  0.10347098743E+03  0.47000000000E+01 0.  1.
         13    1    6    6    0    0 -0.13227402845E+02 -0.14405412153E+02  0.33544311770E+02  0.38829124861E+02  0.00000000000E+00 0. -1.
        -14    1    6    6    0    0 -0.53514616940E+02  0.94191184364E+02  0.89938930054E+02  0.14080058444E+03  0.00000000000E+00 0.  1.
</event>
<event>
12    1  0.8271773E-002  0.2554306E+03  0.7818608E-02  0.1110421E+00
         21   -1    0    0  503  502  0.00000000000E+00  0.00000000000E+00  0.17557690706E+03  0.17557690706E+03  0.00000000000E+00 0. -1.
         21   -1    0    0  501  503 -0.00000000000E+00 -0.00000000000E+00 -0.36737512150E+03  0.36737512150E+03  0.00000000000E+00 0.  1.
          6    2    1    2  501    0 -0.18419412084E+03 -0.40210247718E+01 -0.85649287242E+02  0.26634328354E+03  0.17221876056E+03 0.  0.
         24    2    3    3    0    0 -0.14180031356E+03  0.61181455665E+02 -0.49679176585E+02  0.18052640168E+03  0.79191297977E+02 0.  0.
         -6    2    1    2    0  502  0.18419412084E+03  0.40210247718E+01 -0.10614892719E+03  0.27660874502E+03  0.17692133927E+03 0.  0.
        -24    2    5    5    0    0  0.18241826410E+03  0.22990298979E+02 -0.13834212995E+03  0.23890623403E+03  0.64285821269E+02 0.  0.
          5    1    3    3  501    0 -0.42393807282E+02 -0.65202480437E+02 -0.35970110657E+02  0.85816881857E+02  0.47000000000E+01 0. -1.
        -13    1    4    4    0    0 -0.91702040379E+02  0.49006509978E+02 -0.69747031492E+02  0.12520203925E+03  0.00000000000E+00 0.  1.
         14    1    4    4    0    0 -0.50098273177E+02  0.12174945687E+02  0.20067854908E+02  0.55324362431E+02  0.00000000000E+00 0. -1.
         -5    1    5    5    0  502  0.17758567410E+01 -0.18969274207E+02  0.32193202760E+02  0.37702510991E+02  0.47000000000E+01 0.  1.
         11    1    6    6    0    0  0.18713275725E+02  0.24463214607E+02 -0.17486283317E+02  0.35417589719E+02  0.00000000000E+00 0. -1.
        -12    1    6    6    0    0  0.16370498837E+03 -0.14729156282E+01 -0.12085584664E+03  0.20348864431E+03  0.00000000000E+00 0.  1.
</event>
<event>
12    1  0.8271773E-002  0.1905999E+03  0.7818608E-02  0.1158096E+00
         21   -1    0    0  501  502  0.00000000000E+00  0.00000000000E+00  0.10515092438E+03  0.10515092438E+03  0.00000000000E+00 0. -1.
         21   -1    0    0  502  503 -0.00000000000E+00 -0.00000000000E+00 -0.36428470011E+03  0.36428470011E+03  0.00000000000E+00 0.  1.
         -6    2    1    2    0  503  0.65227257032E+02  0.45151713635E+02 -0.18509132900E+03  0.26568239595E+03  0.17330626978E+03 0.  0.
        -24    2    3    3    0    0  0.33016062327E+02  0.96560650196E+02 -0.13578324604E+03  0.18736370809E+03  0.79082549712E+02 0.  0.
          6    2    1    2  501    0 -0.65227257032E+02 -0.45151713635E+02 -0.74042446741E+02  0.20375322854E+03  0.17245237579E+03 0.  0.
         24    2    5    5    0    0 -0.83730740418E+02 -0.70039902846E+02 -0.10120474165E+03  0.16226008303E+03  0.64571742504E+02 0.  0.
          5    1    5    5  501    0  0.18503483387E+02  0.24888189211E+02  0.27162294910E+02  0.41493145511E+02  0.47000000000E+01 0. -1.
        -11    1    6    6    0    0 -0.86704182096E+02 -0.38297040373E+02 -0.72095790050E+02  0.11908854453E+03  0.00000000000E+00 0.  1.
         12    1    6    6    0    0  0.29734416774E+01 -0.31742862473E+02 -0.29108951602E+02  0.43171538503E+02  0.00000000000E+00 0. -1.
         -5    1    3    3    0  503  0.32211194705E+02 -0.51408936561E+02 -0.49308082959E+02  0.78318687858E+02  0.47000000000E+01 0.  1.
         11    1    4    4    0    0  0.40898051190E+02  0.85774491648E+02 -0.64521343532E+02  0.11486042739E+03  0.00000000000E+00 0. -1.
        -12    1    4    4    0    0 -0.78819888632E+01  0.10786158548E+02 -0.71261902505E+02  0.72503280707E+02  0.00000000000E+00 0.  1.
</event>
<event>
12    1  0.8271773E-002  0.2518929E+03  0.7818608E-02  0.1112560E+00
         21   -1    0    0  501  502  0.00000000000E+00  0.00000000000E+00  0.71072508676E+02  0.71072508676E+02  0.00000000000E+00 0.  1.
         21   -1    0    0  502  503 -0.00000000000E+00 -0.00000000000E+00 -0.10169225912E+04  0.10169225912E+04  0.00000000000E+00 0. -1.
         -6    2    1    2    0  503  0.10398609838E+03  0.15173374388E+03 -0.27764547356E+03  0.37488267894E+03  0.17208653722E+03 0.  0.
        -24    2    3    3    0    0  0.12666761679E+02  0.47074116080E+02 -0.18526153515E+03  0.20800026218E+03  0.81029953750E+02 0.  0.
          6    2    1    2  501    0 -0.10398609838E+03 -0.15173374388E+03 -0.66820460897E+03  0.71311242094E+03  0.16791571624E+03 0.  0.
         24    2    5    5    0    0 -0.37497171232E+01 -0.23911481790E+02 -0.28171153121E+03  0.29384537958E+03  0.79986879826E+02 0.  0.
          5    1    5    5  501    0 -0.10023638126E+03 -0.12782226209E+03 -0.38649307776E+03  0.41926704136E+03  0.47000000000E+01 0. -1.
        -13    1    6    6    0    0 -0.20220421866E+02  0.20936087652E+02 -0.55777478960E+02  0.62915120486E+02  0.00000000000E+00 0.  1.
         14    1    6    6    0    0  0.16470704743E+02 -0.44847569442E+02 -0.22593405225E+03  0.23093025909E+03  0.00000000000E+00 0. -1.
         -5    1    3    3    0  503  0.91319336701E+02  0.10465962780E+03 -0.92383938411E+02  0.16688241676E+03  0.47000000000E+01 0.  1.
         13    1    4    4    0    0  0.26893625306E+02  0.64694018994E+02 -0.15590408007E+03  0.17092298078E+03  0.00000000000E+00 0. -1.
        -14    1    4    4    0    0 -0.14226863627E+02 -0.17619902915E+02 -0.29357455082E+02  0.37077281403E+02  0.00000000000E+00 0.  1.
</event>
<event>
12    1  0.8271773E-002  0.2615106E+03  0.7818608E-02  0.1106603E+00
         21   -1    0    0  501  502  0.00000000000E+00  0.00000000000E+00  0.11856211568E+03  0.11856211568E+03  0.00000000000E+00 0. -1.
         21   -1    0    0  502  503 -0.00000000000E+00 -0.00000000000E+00 -0.67158077453E+03  0.67158077453E+03  0.00000000000E+00 0.  1.
         -6    2    1    2    0  503  0.46599851450E+02  0.18847808689E+03 -0.42794686365E+03  0.50026228157E+03  0.17154677748E+03 0.  0.
        -24    2    3    3    0    0  0.52669488280E+02  0.37891154130E+02 -0.22337150537E+03  0.24612367367E+03  0.80450101150E+02 0.  0.
          6    2    1    2  501    0 -0.46599851450E+02 -0.18847808689E+03 -0.12507179520E+03  0.28988060863E+03  0.17519211715E+03 0.  0.
         24    2    5    5    0    0 -0.79852947927E+02 -0.18992296007E+03 -0.12859743391E+03  0.25608155225E+03  0.81198752093E+02 0.  0.
          5    1    5    5  501    0  0.33253096478E+02  0.14448731804E+01  0.35256387031E+01  0.33799056379E+02  0.47000000000E+01 0. -1.
        -11    1    6    6    0    0 -0.18477799656E+02 -0.15101022396E+01 -0.28700901977E+02  0.34167985940E+02  0.00000000000E+00 0.  1.
         12    1    6    6    0    0 -0.61375148271E+02 -0.18841285783E+03 -0.99896531930E+02  0.22191356631E+03  0.00000000000E+00 0. -1.
         -5    1    3    3    0  503 -0.60696368305E+01  0.15058693276E+03 -0.20457535828E+03  0.25413860790E+03  0.47000000000E+01 0.  1.
         13    1    4    4    0    0  0.30232689281E+02  0.43460428160E+02 -0.55624988615E+02  0.76791690146E+02  0.00000000000E+00 0. -1.
        -14    1    4    4    0    0  0.22436798999E+02 -0.55692740301E+01 -0.16774651675E+03  0.16933198353E+03  0.00000000000E+00 0.  1.
</event>
<event>
12    1  0.8271773E-002  0.1735497E+03  0.7818608E-02  0.1174312E+00
         21   -1    0    0  503  502  0.00000000000E+00  0.00000000000E+00  0.17516893651E+03  0.17516893651E+03  0.00000000000E+00 0.  1.
         21   -1    0    0  501  503 -0.00000000000E+00 -0.00000000000E+00 -0.19287260044E+03  0.19287260044E+03  0.00000000000E+00 0.  1.
          6    2    1    2  501    0  0.11743128984E+01  0.18478560675E+02 -0.70131555879E+02  0.18718424193E+03  0.17255917560E+03 0.  0.
         24    2    3    3    0    0  0.71378405806E+01  0.71258389358E+02 -0.11133053710E+02  0.10765948330E+03  0.79611008262E+02 0.  0.
         -6    2    1    2    0  502 -0.11743128984E+01 -0.18478560675E+02  0.52427891942E+02  0.18085729501E+03  0.17209834715E+03 0.  0.
        -24    2    5    5    0    0  0.63489364721E+02  0.68865719438E+01  0.38293961261E+02  0.10981759377E+03  0.80716492288E+02 0.  0.
          5    1    3    3  501    0 -0.59635276822E+01 -0.52779828683E+02 -0.58998502169E+02  0.79524758637E+02  0.47000000000E+01 0. -1.
        -11    1    4    4    0    0  0.30849242232E+02  0.25905439526E+02  0.22767632390E+02  0.46272374350E+02  0.00000000000E+00 0.  1.
         12    1    4    4    0    0 -0.23711401651E+02  0.45352949832E+02 -0.33900686100E+02  0.61387108946E+02  0.00000000000E+00 0. -1.
         -5    1    5    5    0  502 -0.64663677619E+02 -0.25365132619E+02  0.14133930681E+02  0.71039701242E+02  0.47000000000E+01 0.  1.
         13    1    6    6    0    0  0.43465322119E+02 -0.13781480441E+02  0.58853459488E+02  0.74450608620E+02  0.00000000000E+00 0. -1.
        -14    1    6    6    0    0  0.20024042602E+02  0.20668052384E+02 -0.20559498228E+02  0.35366985154E+02  0.00000000000E+00 0.  1.
</event>
<event>
12    1  0.8271773E-002  0.1816389E+03  0.7818608E-02  0.1166401E+00
         21   -1    0    0  501  502  0.00000000000E+00  0.00000000000E+00  0.12751619158E+03  0.12751619158E+03  0.00000000000E+00 0. -1.
         21   -1    0    0  502  503 -0.00000000000E+00 -0.00000000000E+00 -0.67324343208E+03  0.67324343208E+03  0.00000000000E+00 0. -1.
         -6    2    1    2    0  503 -0.16110643384E+02 -0.56798140459E+02 -0.58720798095E+03  0.61444442830E+03  0.17100631855E+03 0.  0.
        -24    2    3    3    0    0  0.30162618730E+02 -0.19633802450E+02 -0.51931475472E+03  0.52414502091E+03  0.61195740949E+02 0.  0.
          6    2    1    2  501    0  0.16110643384E+02  0.56798140459E+02  0.41480740456E+02  0.18631519536E+03  0.17177636218E+03 0.  0.
         24    2    5    5    0    0  0.76218268913E+02  0.52234382236E+02  0.22587130417E+02  0.12296842720E+03  0.77932024385E+02 0.  0.
          5    1    5    5  501    0 -0.60107625529E+02  0.45637582225E+01  0.18893610040E+02  0.63346768159E+02  0.47000000000E+01 0. -1.
        -13    1    6    6    0    0  0.38828315403E+02  0.12852561859E+02 -0.27343480131E+02  0.49198499256E+02  0.00000000000E+00 0.  1.
         14    1    6    6    0    0  0.37389953510E+02  0.39381820377E+02  0.49930610547E+02  0.73769927947E+02  0.00000000000E+00 0. -1.
         -5    1    3    3    0  503 -0.46273262114E+02 -0.37164338009E+02 -0.67893226236E+02  0.90299407390E+02  0.47000000000E+01 0.  1.
         11    1    4    4    0    0  0.42931838774E+02 -0.12768215861E+02 -0.22180279545E+03  0.22628002605E+03  0.00000000000E+00 0. -1.
        -12    1    4    4    0    0 -0.12769220045E+02 -0.68655865890E+01 -0.29751195927E+03  0.29786499487E+03  0.00000000000E+00 0.  1.
</event>
<event>
12    1  0.8271773E-002  0.2167009E+03  0.7818608E-02  0.1137139E+00
         21   -1    0    0  501  502  0.00000000000E+00  0.00000000000E+00  0.10048958747E+04  0.10048958747E+04  0.00000000000E+00 0.  1.
         21   -1    0    0  502  503 -0.00000000000E+00 -0.00000000000E+00 -0.12535834116E+03  0.12535834116E+03  0.00000000000E+00 0. -1.
         -6    2    1    2    0  503 -0.64056641686E+02 -0.11461325796E+03 -0.11746640868E+02  0.21300466510E+03  0.16731273573E+03 0.  0.
        -24    2    3    3    0    0 -0.94628957949E+01 -0.64790550527E+02  0.52687316073E+02  0.11483845872E+03  0.78259545698E+02 0.  0.
          6    2    1    2  501    0  0.64056641686E+02  0.11461325796E+03  0.89128417440E+03  0.91724955075E+03  0.17239433449E+03 0.  0.
         24    2    5    5    0    0  0.98167332883E+02  0.92003967898E+02  0.48275807985E+03  0.50665196286E+03  0.74426423087E+02 0.  0.
          5    1    5    5  501    0 -0.34110691197E+02  0.22609290063E+02  0.40852609455E+03  0.41059758789E+03  0.47000000000E+01 0. -1.
        -11    1    6    6    0    0  0.41883269534E+02  0.59635708566E+02  0.36477839273E+03  0.37198642691E+03  0.00000000000E+00 0.  1.
         12    1    6    6    0    0  0.56284063349E+02  0.32368259332E+02  0.11797968712E+03  0.13466553595E+03  0.00000000000E+00 0. -1.
         -5    1    3    3    0  503 -0.54593745891E+02 -0.49822707434E+02 -0.64433956941E+02  0.98166206372E+02  0.47000000000E+01 0.  1.
         13    1    4    4    0    0  0.20761392689E+00 -0.14414462908E+02 -0.20746176513E+02  0.25263089367E+02  0.00000000000E+00 0. -1.
        -14    1    4    4    0    0 -0.96705097217E+01 -0.50376087620E+02  0.73433492586E+02  0.89575369357E+02  0.00000000000E+00 0.  1.
</event>
<event>
12    1  0.8271773E-002  0.2382144E+03  0.7818608E-02  0.1122807E+00
         21   -1    0    0  501  502  0.00000000000E+00  0.00000000000E+00  0.41349407527E+03  0.41349407527E+03  0.00000000000E+00 0.  1.
         21   -1    0    0  502  503 -0.00000000000E+00 -0.00000000000E+00 -0.27822651398E+03  0.27822651398E+03  0.00000000000E+00 0.  1.
         -6    2    1    2    0  503  0.12752409874E+03  0.78701129793E+02 -0.18445995421E+03  0.29300794644E+03  0.17138237477E+03 0.  0.
        -24    2    3    3    0    0  0.10164065017E+03  0.10817993063E+03 -0.18124718082E+03  0.25336750596E+03  0.96492659642E+02 0.  0.
          6    2    1    2  501    0 -0.12752409874E+03 -0.78701129793E+02  0.31972751549E+03  0.39871264281E+03  0.18517511653E+03 0.  0.
         24    2    5    5    0    0 -0.25442087122E+02 -0.67142843487E+02  0.25597722522E+03  0.27771462387E+03  0.80284564202E+02 0.  0.
          5    1    5    5  501    0 -0.10208201162E+03 -0.11558286306E+02  0.63750290272E+02  0.12099801894E+03  0.47000000000E+01 0. -1.
        -11    1    6    6    0    0 -0.40353773266E+02 -0.48891019777E+01  0.69006527045E+02  0.80088895047E+02  0.00000000000E+00 0.  1.
         12    1    6    6    0    0  0.14911686144E+02 -0.62253741509E+02  0.18697069818E+03  0.19762572882E+03  0.00000000000E+00 0. -1.
         -5    1    3    3    0  503  0.25883448571E+02 -0.29478800832E+02 -0.32127733873E+01  0.39640440478E+02  0.47000000000E+01 0.  1.
         11    1    4    4    0    0  0.73112381272E+01 -0.17611170775E+02 -0.27459076597E+02  0.33430651005E+02  0.00000000000E+00 0. -1.
        -12    1    4    4    0    0  0.94329412040E+02  0.12579110140E+03 -0.15378810423E+03  0.21993685496E+03  0.00000000000E+00 0.  1.
</event>
<event>
12    1  0.8271773E-002  0.2142655E+03  0.7818608E-02  0.1140211E+00
         21   -1    0    0  503  502  0.00000000000E+00  0.00000000000E+00  0.38127983609E+02  0.38127983609E+02  0.00000000000E+00 0. -1.
         21   -1    0    0  501  503 -0.00000000000E+00 -0.00000000000E+00 -0.14813701443E+04  0.14813701443E+04  0.00000000000E+00 0. -1.
          6    2    1    2  501    0 -0.37867207585E+02 -0.10524081581E+03 -0.10950200294E+04  0.11157860678E+04  0.18275702310E+03 0.  0.
         24    2    3    3    0    0 -0.56156313404E+02 -0.31692236365E+02 -0.30328643718E+03  0.32041945042E+03  0.80796236592E+02 0.  0.
         -6    2    1    2    0  502  0.37867207585E+02  0.10524081581E+03 -0.34822213125E+03  0.40371206011E+03  0.17092460344E+03 0.  0.
        -24    2    5    5    0    0 -0.43460179529E+02  0.42437238032E+02 -0.18772372277E+03  0.21308083915E+03  0.80458321814E+02 0.  0.
          5    1    3    3  501    0  0.18289105819E+02 -0.73548579449E+02 -0.79173359227E+03  0.79536661739E+03  0.47000000000E+01 0. -1.
        -11    1    4    4    0    0 -0.48375433987E+02  0.52032339520E+01 -0.77505657286E+02  0.91511655915E+02  0.00000000000E+00 0.  1.
         12    1    4    4    0    0 -0.77808794176E+01 -0.36895470317E+02 -0.22578077989E+03  0.22890779450E+03  0.00000000000E+00 0. -1.
         -5    1    5    5    0  502  0.81327387114E+02  0.62803577783E+02 -0.16049840848E+03  0.19063122096E+03  0.47000000000E+01 0.  1.
         11    1    6    6    0    0  0.13789389818E+02  0.34551318574E+02 -0.40871645432E+02  0.55266918559E+02  0.00000000000E+00 0. -1.
        -12    1    6    6    0    0 -0.57249569347E+02  0.78859194577E+01 -0.14685207733E+03  0.15781392059E+03  0.00000000000E+00 0.  1.
</event>
<event>
12    1  0.8271773E-002  0.1792341E+03  0.7818608E-02  0.1168915E+00
         21   -1    0    0  503  502  0.00000000000E+00  0.00000000000E+00  0.21406811933E+03  0.21406811933E+03  0.00000000000E+00 0. -1.
         21   -1    0    0  501  503 -0.00000000000E+00 -0.00000000000E+00 -0.17711934044E+03  0.17711934044E+03  0.00000000000E+00 0. -1.
          6    2    1    2  501    0  0.56261637415E+01 -0.44553335923E+02 -0.59658321382E+02  0.18890201599E+03  0.17351715441E+03 0.  0.
         24    2    3    3    0    0  0.41201313464E+02 -0.59370483481E+02 -0.91307731542E+02  0.13881295228E+03  0.75561440843E+02 0.  0.
         -6    2    1    2    0  502 -0.56261637415E+01  0.44553335923E+02  0.96607100278E+02  0.20228544378E+03  0.17195876099E+03 0.  0.
        -24    2    5    5    0    0 -0.33107023477E+02  0.31527027005E+02 -0.92078550599E+01  0.92086636396E+02  0.79404883808E+02 0.  0.
          5    1    3    3  501    0 -0.35575149723E+02  0.14817147558E+02  0.31649410160E+02  0.50089063707E+02  0.47000000000E+01 0. -1.
        -11    1    4    4    0    0  0.59362806381E+01  0.16444042038E+02 -0.40207582880E+01  0.17939131628E+02  0.00000000000E+00 0.  1.
         12    1    4    4    0    0  0.35265032826E+02 -0.75814525519E+02 -0.87286973254E+02  0.12087382065E+03  0.00000000000E+00 0. -1.
         -5    1    5    5    0  502  0.27480859735E+02  0.13026308918E+02  0.10581495534E+03  0.11019880738E+03  0.47000000000E+01 0.  1.
         11    1    6    6    0    0 -0.37830771033E+02 -0.14818127771E+02  0.97643820957E+01  0.41786209511E+02  0.00000000000E+00 0. -1.
        -12    1    6    6    0    0  0.47237475557E+01  0.46345154776E+02 -0.18972237156E+02  0.50300426885E+02  0.00000000000E+00 0.  1.
</event>
<event>
12    1  0.8271773E-002  0.1799019E+03  0.7818608E-02  0.1168096E+00
         21   -1    0    0  503  502  0.00000000000E+00  0.00000000000E+00  0.25384936205E+03  0.25384936205E+03  0.00000000000E+00 0.  1.
         21   -1    0    0  501  503 -0.00000000000E+00 -0.00000000000E+00 -0.43532864912E+03  0.43532864912E+03  0.00000000000E+00 0.  1.
          6    2    1    2  501    0  0.42031528643E+02 -0.28666600008E+02 -0.38071879410E+03  0.42073607550E+03  0.17170795465E+03 0.  0.
         24    2    3    3    0    0 -0.31599737297E+01 -0.23143215245E+02 -0.36408344308E+03  0.37203695262E+03  0.72863891891E+02 0.  0.
         -6    2    1    2    0  502 -0.42031528643E+02  0.28666600008E+02  0.19923950703E+03  0.26844193568E+03  0.17255801433E+03 0.  0.
        -24    2    5    5    0    0 -0.53522207297E+02  0.68249866042E+02  0.19297439596E+03  0.22648705202E+03  0.80836850191E+02 0.  0.
          5    1    3    3  501    0  0.45191502372E+02 -0.55233847636E+01 -0.16635351021E+02  0.48699122882E+02  0.47000000000E+01 0. -1.
        -11    1    4    4    0    0  0.23068707993E+02 -0.39354053447E+02 -0.22472253027E+03  0.22930574006E+03  0.00000000000E+00 0.  1.
         12    1    4    4    0    0 -0.26228681723E+02  0.16210838202E+02 -0.13936091281E+03  0.14273121256E+03  0.00000000000E+00 0. -1.
         -5    1    5    5    0  502  0.11490678655E+02 -0.39583266034E+02  0.62651110775E+01  0.41954883657E+02  0.47000000000E+01 0.  1.
         11    1    6    6    0    0  0.10930473121E+01  0.37838575865E+01 -0.77564684401E+01  0.86991455513E+01  0.00000000000E+00 0. -1.
        -12    1    6    6    0    0 -0.54615254609E+02  0.64466008456E+02  0.20073086440E+03  0.21778790647E+03  0.00000000000E+00 0.  1.
</event>
<event>
12    1  0.8271773E-002  0.1775721E+03  0.7818608E-02  0.1170409E+00
         21   -1    0    0  501  502  0.00000000000E+00  0.00000000000E+00  0.40464816449E+03  0.40464816449E+03  0.00000000000E+00 0. -1.
         21   -1    0    0  502  503 -0.00000000000E+00 -0.00000000000E+00 -0.17904935703E+03  0.17904935703E+03  0.00000000000E+00 0. -1.
         -6    2    1    2    0  503  0.36608557224E+02 -0.14114163499E+02 -0.10711429620E+03  0.20656379925E+03  0.17220840467E+03 0.  0.
        -24    2    3    3    0    0 -0.94178153732E+01 -0.45622098626E+02 -0.86354905430E+01  0.93288285070E+02  0.80362063842E+02 0.  0.
          6    2    1    2  501    0 -0.36608557224E+02  0.14114163499E+02  0.33271310365E+03  0.37713372227E+03  0.17318325282E+03 0.  0.
         24    2    5    5    0    0  0.39117773512E+00 -0.29461267346E+02  0.29698835797E+03  0.30956045822E+03  0.82203851668E+02 0.  0.
          5    1    5    5  501    0 -0.36999734959E+02  0.43575430845E+02  0.35724745682E+02  0.67573264050E+02  0.47000000000E+01 0. -1.
        -13    1    6    6    0    0  0.80709326446E+01 -0.40702166486E+02  0.64631920394E+02  0.76805543057E+02  0.00000000000E+00 0.  1.
         14    1    6    6    0    0 -0.76797549094E+01  0.11240899140E+02  0.23235643758E+03  0.23275491516E+03  0.00000000000E+00 0. -1.
         -5    1    3    3    0  503  0.46026372597E+02  0.31507935127E+02 -0.98478805655E+02  0.11327551418E+03  0.47000000000E+01 0.  1.
         13    1    4    4    0    0  0.58947522855E+01 -0.38654732371E+02 -0.41096940651E+02  0.56726492665E+02  0.00000000000E+00 0. -1.
        -14    1    4    4    0    0 -0.15312567659E+02 -0.69673662549E+01  0.32461450108E+02  0.36561792406E+02  0.00000000000E+00 0.  1.
</event>
<event>
12    1  0.8271773E-002  0.1765982E+03  0.7818608E-02  0.1171171E+00
         21   -1    0    0  503  502  0.00000000000E+00  0.00000000000E+00  0.11802836053E+04  0.11802836053E+04  0.00000000000E+00 0. -1.
         21   -1    0    0  501  503 -0.00000000000E+00 -0.00000000000E+00 -0.86449277576E+02  0.86449277576E+02  0.00000000000E+00 0. -1.
          6    2    1    2  501    0  0.84020674846E+01 -0.39406825352E+02  0.19121992560E+02  0.17763043315E+03  0.17194018600E+03 0.  0.
         24    2    3    3    0    0 -0.13211768656E+02 -0.46899381051E+02  0.72970734215E+02  0.11893568653E+03  0.80292382603E+02 0.  0.
         -6    2    1    2    0  502 -0.84020674846E+01  0.39406825352E+02  0.10747123352E+04  0.10891024497E+04  0.17179653668E+03 0.  0.
        -24    2    5    5    0    0 -0.29690621473E+02  0.85005993457E+02  0.62363681879E+03  0.63520411515E+03  0.80335759256E+02 0.  0.
          5    1    3    3  501    0  0.21613836140E+02  0.74925556990E+01 -0.53848741655E+02  0.58694746626E+02  0.47000000000E+01 0. -1.
        -13    1    4    4    0    0 -0.26937469136E+02  0.74546799917E+01  0.52086331887E+02  0.59111635629E+02  0.00000000000E+00 0.  1.
         14    1    4    4    0    0  0.13725700480E+02 -0.54354061043E+02  0.20884402328E+02  0.59824050900E+02  0.00000000000E+00 0. -1.
         -5    1    5    5    0  502  0.21288553989E+02 -0.45599168105E+02  0.45107551636E+03  0.45389833457E+03  0.47000000000E+01 0.  1.
         13    1    6    6    0    0 -0.19820475419E+02 -0.14728435574E+01  0.28038593372E+03  0.28108947391E+03  0.00000000000E+00 0. -1.
        -14    1    6    6    0    0 -0.98701460537E+01  0.86478837014E+02  0.34325088507E+03  0.35411464123E+03  0.00000000000E+00 0.  1.
</event>
<event>
12    1  0.8271773E-002  0.2610236E+03  0.7818608E-02  0.1106582E+00
         21   -1    0    0  503  502  0.00000000000E+00  0.00000000000E+00  0.40240090974E+03  0.40240090974E+03  0.00000000000E+00 0.  1.
         21   -1    0    0  501  503 -0.00000000000E+00 -0.00000000000E+00 -0.29699986948E+03  0.29699986948E+03  0.00000000000E+00 0.  1.
          6    2    1    2  501    0 -0.17261610426E+03  0.93674336994E+02 -0.17677105171E+03  0.31524801163E+03  0.17193633490E+03 0.  0.
         24    2    3    3    0    0 -0.14728025896E+03  0.84108970470E+01 -0.91137156357E+02  0.19168825572E+03  0.81707944800E+02 0.  0.
         -6    2    1    2    0  502  0.17261610426E+03 -0.93674336994E+02  0.28217209197E+03  0.38415276759E+03  0.17140903856E+03 0.  0.
        -24    2    5    5    0    0 -0.59002694665E+01 -0.10723026399E+02  0.10907682557E+03  0.12198282869E+03  0.53218982907E+02 0.  0.
          5    1    3    3  501    0 -0.25335845294E+02  0.85263439947E+02 -0.85633895350E+02  0.12355975591E+03  0.47000000000E+01 0. -1.
        -11    1    4    4    0    0 -0.83066957105E+02  0.14475904462E+02 -0.95063433768E+02  0.12706977458E+03  0.00000000000E+00 0.  1.
         12    1    4    4    0    0 -0.64213301858E+02 -0.60650074145E+01  0.39262774109E+01  0.64618481139E+02  0.00000000000E+00 0. -1.
         -5    1    5    5    0  502  0.17851637372E+03 -0.82951310595E+02  0.17309526639E+03  0.26216993890E+03  0.47000000000E+01 0.  1.
         11    1    6    6    0    0  0.75241649699E+01  0.84691610523E+01  0.92733860611E+02  0.93423276817E+02  0.00000000000E+00 0. -1.
        -12    1    6    6    0    0 -0.13424434436E+02 -0.19192187451E+02  0.16342964964E+02  0.28559551868E+02  0.00000000000E+00 0.  1.
</event>
<event>
12    1  0.8271773E-002  0.1798931E+03  0.7818608E-02  0.1168161E+00
         21   -1    0    0  503  502  0.00000000000E+00  0.00000000000E+00  0.25441695602E+03  0.25441695602E+03  0.00000000000E+00 0. -1.
         21   -1    0    0  501  503 -0.00000000000E+00 -0.00000000000E+00 -0.27285048511E+03  0.27285048511E+03  0.00000000000E+00 0. -1.
          6    2    1    2  501    0 -0.44239252420E+02  0.48634118529E+01 -0.20230929867E+03  0.27002857935E+03  0.17322129519E+03 0.  0.
         24    2    3    3    0    0 -0.86515809080E+02  0.22062976771E+02 -0.93987311803E+02  0.15238983099E+03  0.80107962436E+02 0.  0.
         -6    2    1    2    0  502  0.44239252420E+02 -0.48634118529E+01  0.18387576958E+03  0.25723886178E+03  0.17430080075E+03 0.  0.
        -24    2    5    5    0    0  0.20729980172E+02 -0.62995044227E+02  0.15806247238E+03  0.18926541935E+03  0.80246782562E+02 0.  0.
          5    1    3    3  501    0  0.42276556659E+02 -0.17199564918E+02 -0.10832198687E+03  0.11763874836E+03  0.47000000000E+01 0. -1.
        -13    1    4    4    0    0 -0.60252372600E+02 -0.66721039201E+01 -0.12236493062E+02  0.61843327345E+02  0.00000000000E+00 0.  1.
         14    1    4    4    0    0 -0.26263436479E+02  0.28735080691E+02 -0.81750818742E+02  0.90546503649E+02  0.00000000000E+00 0. -1.
         -5    1    5    5    0  502  0.23509272248E+02  0.58131632374E+02  0.25813297202E+02  0.67973442436E+02  0.47000000000E+01 0.  1.
         11    1    6    6    0    0  0.10539304759E+02  0.18648210780E+02  0.39793888737E+02  0.45192768127E+02  0.00000000000E+00 0. -1.
        -12    1    6    6    0    0  0.10190675413E+02 -0.81643255008E+02  0.11826858364E+03  0.14407265122E+03  0.00000000000E+00 0.  1.
</event>
<event>
12    1  0.8271773E-002  0.2779570E+03  0.7818608E-02  0.1098125E+00
         21   -1    0    0  501  502  0.00000000000E+00  0.00000000000E+00  0.21034317654E+03  0.21034317654E+03  0.00000000000E+00 0.  1.
         21   -1    0    0  502  503 -0.00000000000E+00 -0.00000000000E+00 -0.20873648359E+04  0.20873648359E+04  0.00000000000E+00 0.  1.
         -6    2    1    2    0  503  0.51826531470E+02  0.21102675283E+03 -0.19823502857E+04  0.20004636140E+04  0.15787253100E+03 0.  0.
        -24    2    3    3    0    0  0.23194037580E+02  0.58604909305E+02 -0.51039971424E+03  0.52035793776E+03  0.79322230923E+02 0.  0.
          6    2    1    2  501    0 -0.51826531470E+02 -0.21102675283E+03  0.10532862631E+03  0.29724439844E+03  0.17332580048E+03 0.  0.
         24    2    5    5    0    0  0.96032563666E+01 -0.39978324229E+02  0.10765181876E+02  0.92316316463E+02  0.81950742544E+02 0.  0.
          5    1    5    5  501    0 -0.61429787837E+02 -0.17104842860E+03  0.94563444438E+02  0.20492808198E+03  0.47000000000E+01 0. -1.
        -13    1    6    6    0    0 -0.15557188580E+02 -0.56132617223E+02  0.19058961757E+02  0.61287362940E+02  0.00000000000E+00 0.  1.
         14    1    6    6    0    0  0.25160444947E+02  0.16154292994E+02 -0.82937798815E+01  0.31028953524E+02  0.00000000000E+00 0. -1.
         -5    1    3    3    0  503  0.28632493890E+02  0.15242184352E+03 -0.14719505714E+04  0.14801056762E+04  0.47000000000E+01 0.  1.
         13    1    4    4    0    0  0.43073472699E+02  0.11209354192E+02 -0.32246587815E+03  0.32552298881E+03  0.00000000000E+00 0. -1.
        -14    1    4    4    0    0 -0.19879435118E+02  0.47395555114E+02 -0.18793383610E+03  0.19483494896E+03  0.00000000000E+00 0.  1.
</event>
<event>
12    1  0.8271773E-002  0.2801196E+03  0.7818608E-02  0.1095740E+00
         21   -1    0    0  503  502  0.00000000000E+00  0.00000000000E+00  0.10189422274E+04  0.10189422274E+04  0.00000000000E+00 0.  1.
         21   -1    0    0  501  503 -0.00000000000E+00 -0.00000000000E+00 -0.89316688988E+02  0.89316688988E+02  0.00000000000E+00 0.  1.
          6    2    1    2  501    0  0.63552517752E+02  0.20941919182E+03  0.25655474017E+03  0.37922443182E+03  0.17348058846E+03 0.  0.
         24    2    3    3    0    0  0.89007309829E+02  0.21959330570E+03  0.23953547627E+03  0.34661761694E+03  0.81381858357E+02 0.  0.
         -6    2    1    2    0  502 -0.63552517752E+02 -0.20941919182E+03  0.67307079823E+03  0.72903448455E+03  0.17484753307E+03 0.  0.
        -24    2    5    5    0    0  0.59571973260E+00 -0.12255347887E+03  0.22667413057E+03  0.26973858499E+03  0.79737272940E+02 0.  0.
          5    1    3    3  501    0 -0.25454792077E+02 -0.10174113883E+02  0.17019263901E+02  0.32606814881E+02  0.47000000000E+01 0. -1.
        -11    1    4    4    0    0  0.94259257632E+02  0.13553653376E+03  0.14206442349E+03  0.21780096431E+03  0.00000000000E+00 0.  1.
         12    1    4    4    0    0 -0.52519478027E+01  0.84056771944E+02  0.97471052774E+02  0.12881665263E+03  0.00000000000E+00 0. -1.
         -5    1    5    5    0  502 -0.64148237485E+02 -0.86865712946E+02  0.44639666766E+03  0.45929589957E+03  0.47000000000E+01 0.  1.
         11    1    6    6    0    0 -0.32010930007E+02 -0.19050607593E+02  0.67421679621E+02  0.77027970066E+02  0.00000000000E+00 0. -1.
        -12    1    6    6    0    0  0.32606649740E+02 -0.10350287128E+03  0.15925245095E+03  0.19271061492E+03  0.00000000000E+00 0.  1.
</event>
<event>
12    1  0.8271773E-002  0.1759254E+03  0.7818608E-02  0.1172292E+00
         21   -1    0    0  501  502  0.00000000000E+00  0.00000000000E+00  0.83285061790E+03  0.83285061790E+03  0.00000000000E+00 0. -1.
         21   -1    0    0  502  503 -0.00000000000E+00 -0.00000000000E+00 -0.40994096884E+02  0.40994096884E+02  0.00000000000E+00 0. -1.
         -6    2    1    2    0  503  0.95812521880E+01  0.36016067829E+02  0.25735504798E+03  0.31173924770E+03  0.17193248763E+03 0.  0.
        -24    2    3    3    0    0  0.24706814737E+02  0.70320407079E+02  0.25023460317E+03  0.27328978648E+03  0.80712851688E+02 0.  0.
          6    2    1    2  501    0 -0.95812521880E+01 -0.36016067829E+02  0.53450147304E+03  0.56210546708E+03  0.16994638539E+03 0.  0.
         24    2    5    5    0    0 -0.37812400255E+02  0.42477301803E+02  0.29580306993E+03  0.30920781101E+03  0.69827755449E+02 0.  0.
          5    1    5    5  501    0  0.28231148067E+02 -0.78493369632E+02  0.23869840311E+03  0.25289765607E+03  0.47000000000E+01 0. -1.
        -13    1    6    6    0    0  0.10434391527E+02  0.30687538889E+02  0.18450957137E+03  0.18733495001E+03  0.00000000000E+00 0.  1.
         14    1    6    6    0    0 -0.48246791782E+02  0.11789762913E+02  0.11129349856E+03  0.12187286100E+03  0.00000000000E+00 0. -1.
         -5    1    3    3    0  503 -0.15125562549E+02 -0.34304339250E+02  0.71204448106E+01  0.38449461220E+02  0.47000000000E+01 0.  1.
         11    1    4    4    0    0  0.36038996793E+02  0.26334827140E+02  0.20264602549E+03  0.20750360010E+03  0.00000000000E+00 0. -1.
        -12    1    4    4    0    0 -0.11332182056E+02  0.43985579939E+02  0.47588577681E+02  0.65786186380E+02  0.00000000000E+00 0.  1.
</event>
<event>
12    1  0.8271773E-002  0.2241440E+03  0.7818608E-02  0.1133195E+00
         21   -1    0    0  503  502  0.00000000000E+00  0.00000000000E+00  0.97352073761E+03  0.97352073761E+03  0.00000000000E+00 0.  1.
         21   -1    0    0  501  503 -0.00000000000E+00 -0.00000000000E+00 -0.48749151501E+02  0.48749151501E+02  0.00000000000E+00 0. -1.
          6    2    1    2  501    0 -0.12081637030E+03 -0.69904005006E+02  0.47254923125E+03  0.52301368003E+03  0.17537778736E+03 0.  0.
         24    2    3    3    0    0 -0.13924711326E+03 -0.99394376157E+02  0.40114371410E+03  0.44345104963E+03  0.80396228119E+02 0.  0.
         -6    2    1    2    0  502  0.12081637030E+03  0.69904005006E+02  0.45222235486E+03  0.49925620908E+03  0.15896080908E+03 0.  0.
        -24    2    5    5    0    0  0.70454435997E+02 -0.15193662254E+02  0.17928782821E+03  0.20892315338E+03  0.79436035567E+02 0.  0.
          5    1    3    3  501    0  0.18430742960E+02  0.29490371151E+02  0.71405517151E+02  0.79562630400E+02  0.47000000000E+01 0. -1.
        -13    1    4    4    0    0 -0.14134623273E+03 -0.98847677779E+02  0.40433827470E+03  0.43958965104E+03  0.00000000000E+00 0.  1.
         14    1    4    4    0    0  0.20991194788E+01 -0.54669837755E+00 -0.31945605988E+01  0.38613985966E+01  0.00000000000E+00 0. -1.
         -5    1    5    5    0  502  0.50361934299E+02  0.85097667260E+02  0.27293452664E+03  0.29033305570E+03  0.47000000000E+01 0.  1.
         11    1    6    6    0    0 -0.14875278763E+01 -0.32908153723E+02  0.61608122277E+02  0.69862150347E+02  0.00000000000E+00 0. -1.
        -12    1    6    6    0    0  0.71941963874E+02  0.17714491469E+02  0.11767970594E+03  0.13906100303E+03  0.00000000000E+00 0.  1.
</event>
<event>
12    1  0.8271773E-002  0.1771069E+03  0.7818608E-02  0.1171075E+00
         21   -1    0    0  503  502  0.00000000000E+00  0.00000000000E+00  0.14142326956E+03  0.14142326956E+03  0.00000000000E+00 0. -1.
         21   -1    0    0  501  503 -0.00000000000E+00 -0.00000000000E+00 -0.40735978857E+03  0.40735978857E+03  0.00000000000E+00 0.  1.
          6    2    1    2  501    0 -0.23043577166E+02  0.30352324365E+02 -0.31962991143E+03  0.36541776106E+03  0.17295834692E+03 0.  0.
         24    2    3    3    0    0  0.27223781272E+01  0.81880664723E+02 -0.18696066961E+03  0.22070331106E+03  0.83927378929E+02 0.  0.
         -6    2    1    2    0  502  0.23043577166E+02 -0.30352324365E+02  0.53693392429E+02  0.18336529707E+03  0.17113614971E+03 0.  0.
        -24    2    5    5    0    0  0.16919951347E+02 -0.50800093944E+02 -0.27544189514E+02  0.99238935008E+02  0.78884406236E+02 0.  0.
          5    1    3    3  501    0 -0.25765955293E+02 -0.51528340358E+02 -0.13266924182E+03  0.14471445000E+03  0.47000000000E+01 0. -1.
        -13    1    4    4    0    0 -0.19209920063E+02  0.64795065830E+02 -0.58861774409E+02  0.89622151678E+02  0.00000000000E+00 0.  1.
         14    1    4    4    0    0  0.21932298190E+02  0.17085598893E+02 -0.12809889520E+03  0.13108115938E+03  0.00000000000E+00 0. -1.
         -5    1    5    5    0  502  0.61236258183E+01  0.20447769579E+02  0.81237581943E+02  0.84126362063E+02  0.47000000000E+01 0.  1.
         11    1    6    6    0    0  0.21688765889E+02 -0.65469429788E+02 -0.15180592858E+01  0.68985167294E+02  0.00000000000E+00 0. -1.
        -12    1    6    6    0    0 -0.47688145415E+01  0.14669335844E+02 -0.26026130228E+02  0.30253767714E+02  0.00000000000E+00 0.  1.
</event>
<event>
12    1  0.8271773E-002  0.2962017E+03  0.7818608E-02  0.1087204E+00
         21   -1    0    0  503  502  0.00000000000E+00  0.00000000000E+00  0.32271396184E+03  0.32271396184E+03  0.00000000000E+00 0. -1.
         21   -1    0    0  501  503 -0.00000000000E+00 -0.00000000000E+00 -0.32536898477E+03  0.32536898477E+03  0.00000000000E+00 0.  1.
          6    2    1    2  501    0  0.83716517497E+02 -0.22557692497E+03 -0.13315826251E+03  0.32440633596E+03  0.17208992868E+03 0.  0.
         24    2    3    3    0    0 -0.13761915551E+02 -0.14715053190E+03 -0.10516014301E+03  0.19611475894E+03  0.74563219056E+02 0.  0.
         -6    2    1    2    0  502 -0.83716517497E+02  0.22557692497E+03  0.13050323958E+03  0.32367661065E+03  0.17274851189E+03 0.  0.
        -24    2    5    5    0    0 -0.10226043609E+03  0.87310798425E+02  0.56711968744E+02  0.16578854803E+03  0.78671614621E+02 0.  0.
          5    1    3    3  501    0  0.97478433048E+02 -0.78426393071E+02 -0.27998119499E+02  0.12829157702E+03  0.47000000000E+01 0. -1.
        -13    1    4    4    0    0  0.16415543659E+02 -0.79922201200E+02 -0.88872323996E+02  0.12064542383E+03  0.00000000000E+00 0.  1.
         14    1    4    4    0    0 -0.30177459210E+02 -0.67228330702E+02 -0.16287819014E+02  0.75469335107E+02  0.00000000000E+00 0. -1.
         -5    1    5    5    0  502  0.18543918595E+02  0.13826612655E+03  0.73791270839E+02  0.15788806262E+03  0.47000000000E+01 0.  1.
         11    1    6    6    0    0 -0.49898975980E+02  0.84344587725E+02  0.15782514917E+02  0.99262304323E+02  0.00000000000E+00 0. -1.
        -12    1    6    6    0    0 -0.52361460112E+02  0.29662107004E+01  0.40929453827E+02  0.66526243706E+02  0.00000000000E+00 0.  1.
</event>
<event>
12    1  0.8271773E-002  0.1807704E+03  0.7818608E-02  0.1167624E+00
         21   -1    0    0  501  502  0.00000000000E+00  0.00000000000E+00  0.16553754862E+04  0.16553754862E+04  0.00000000000E+00 0.  1.
         21   -1    0    0  502  503 -0.00000000000E+00 -0.00000000000E+00 -0.28983814108E+02  0.28983814108E+02  0.00000000000E+00 0.  1.
         -6    2    1    2    0  503 -0.59660040395E+01  0.48406749301E+02  0.32756885783E+03  0.37301699294E+03  0.17164356620E+03 0.  0.
        -24    2    3    3    0    0  0.25943322410E+02  0.58090574675E+02  0.10204328104E+03  0.14499099141E+03  0.81006083351E+02 0.  0.
          6    2    1    2  501    0  0.59660040395E+01 -0.48406749301E+02  0.12988228143E+04  0.13113423074E+04  0.17406647486E+03 0.  0.
         24    2    5    5    0    0 -0.28595417549E+02 -0.74153230195E+02  0.11686736693E+04  0.11741626330E+04  0.80890937943E+02 0.  0.
          5    1    5    5  501    0  0.34561421589E+02  0.25746480894E+02  0.13014914498E+03  0.13717967444E+03  0.47000000000E+01 0. -1.
        -11    1    6    6    0    0 -0.14730593029E+02 -0.10519520500E+02  0.76935582781E+03  0.76956873667E+03  0.00000000000E+00 0.  1.
         12    1    6    6    0    0 -0.13864824521E+02 -0.63633709695E+02  0.39931784150E+03  0.40459389629E+03  0.00000000000E+00 0. -1.
         -5    1    3    3    0  503 -0.31909326450E+02 -0.96838253743E+01  0.22552557678E+03  0.22802600153E+03  0.47000000000E+01 0.  1.
         11    1    4    4    0    0  0.70282812401E+01 -0.94179482911E+00  0.78284738628E+02  0.78605241662E+02  0.00000000000E+00 0. -1.
        -12    1    4    4    0    0  0.18915041170E+02  0.59032369505E+02  0.23758542416E+02  0.66385749747E+02  0.00000000000E+00 0.  1.
</event>
<event>
12    1  0.8271773E-002  0.1866494E+03  0.7818608E-02  0.1161541E+00
         21   -1    0    0  503  502  0.00000000000E+00  0.00000000000E+00  0.50927041648E+02  0.50927041648E+02  0.00000000000E+00 0.  1.
         21   -1    0    0  501  503 -0.00000000000E+00 -0.00000000000E+00 -0.72161071251E+03  0.72161071251E+03  0.00000000000E+00 0. -1.
          6    2    1    2  501    0  0.34387636402E+02  0.65246223554E+02 -0.24674250738E+03  0.30932709665E+03  0.17135287727E+03 0.  0.
         24    2    3    3    0    0  0.79023173333E+01  0.66402588312E+02 -0.25937734319E+03  0.27958590666E+03  0.80124420072E+02 0.  0.
         -6    2    1    2    0  502 -0.34387636402E+02 -0.65246223554E+02 -0.42394116348E+03  0.46321065750E+03  0.17145968595E+03 0.  0.
        -24    2    5    5    0    0  0.13130213903E+02 -0.98575729042E+02 -0.24749816007E+03  0.27740692911E+03  0.76221310699E+02 0.  0.
          5    1    3    3  501    0  0.26485319069E+02 -0.11563647579E+01  0.12634835814E+02  0.29741189984E+02  0.47000000000E+01 0. -1.
        -11    1    4    4    0    0 -0.26893710772E+02  0.41947951506E+02 -0.72781356536E+02  0.88204467993E+02  0.00000000000E+00 0.  1.
         12    1    4    4    0    0  0.34796028105E+02  0.24454636806E+02 -0.18659598665E+03  0.19138143867E+03  0.00000000000E+00 0. -1.
         -5    1    5    5    0  502 -0.47517850305E+02  0.33329505488E+02 -0.17644300341E+03  0.18580372840E+03  0.47000000000E+01 0.  1.
         13    1    6    6    0    0  0.39198203496E+02 -0.76817352355E+02 -0.20888584190E+03  0.22598827343E+03  0.00000000000E+00 0. -1.
        -14    1    6    6    0    0 -0.26067989592E+02 -0.21758376687E+02 -0.38612318172E+02  0.51418655681E+02  0.00000000000E+00 0.  1.
</event>
<event>
12    1  0.8271773E-002  0.2272173E+03  0.7818608E-02  0.1128614E+00
         21   -1    0    0  501  502  0.00000000000E+00  0.00000000000E+00  0.21701161828E+03  0.21701161828E+03  0.00000000000E+00 0. -1.
         21   -1    0    0  502  503 -0.00000000000E+00 -0.00000000000E+00 -0.26211527735E+03  0.26211527735E+03  0.00000000000E+00 0.  1.
         -6    2    1    2    0  503  0.14845562888E+03  0.10756187825E+01 -0.95363653944E+02  0.24641726973E+03  0.17200876031E+03 0.  0.
        -24    2    3    3    0    0  0.13981757434E+03  0.20704381375E+01 -0.11573065079E+02  0.16204571982E+03  0.81065644189E+02 0.  0.
          6    2    1    2  501    0 -0.14845562888E+03 -0.10756187825E+01  0.50259994873E+02  0.23270962591E+03  0.17201009332E+03 0.  0.
         24    2    5    5    0    0 -0.14125745432E+03 -0.34568865605E+02  0.82563761480E+02  0.18538907396E+03  0.80022866505E+02 0.  0.
          5    1    5    5  501    0 -0.71981745533E+01  0.33493246822E+02 -0.32303766606E+02  0.47320551947E+02  0.47000000000E+01 0. -1.
        -13    1    6    6    0    0 -0.88967401351E+02 -0.31667208669E+02  0.86886112035E+01  0.94834079173E+02  0.00000000000E+00 0.  1.
         14    1    6    6    0    0 -0.52290052974E+02 -0.29016569355E+01  0.73875150276E+02  0.90554994789E+02  0.00000000000E+00 0. -1.
         -5    1    3    3    0  503  0.86380545396E+01 -0.99481935508E+00 -0.83790588865E+02  0.84371549910E+02  0.47000000000E+01 0.  1.
         13    1    4    4    0    0  0.11531654111E+03  0.21233805338E+02 -0.35822299555E+02  0.12260512341E+03  0.00000000000E+00 0. -1.
        -14    1    4    4    0    0  0.24501033231E+02 -0.19163367201E+02  0.24249234477E+02  0.39440596402E+02  0.00000000000E+00 0.  1.
</event>
<event>
12    1  0.8271773E-002  0.1985509E+03  0.7818608E-02  0.1151647E+00
         21   -1    0    0  503  502  0.00000000000E+00  0.00000000000E+00  0.12968961124E+03  0.12968961124E+03  0.00000000000E+00 0. -1.
         21   -1    0    0  501  503 -0.00000000000E+00 -0.00000000000E+00 -0.10257940352E+04  0.10257940352E+04  0.00000000000E+00 0. -1.
          6    2    1    2  501    0  0.84463865860E+02  0.40842513781E+02 -0.93535146869E+03  0.95619287780E+03  0.17498626806E+03 0.  0.
         24    2    3    3    0    0  0.27836526745E+02 -0.85486094656E+01 -0.76912798375E+03  0.77371417895E+03  0.78916565863E+02 0.  0.
         -6    2    1    2    0  502 -0.84463865860E+02 -0.40842513781E+02  0.39247044745E+02  0.19929076861E+03  0.17138910224E+03 0.  0.
        -24    2    5    5    0    0 -0.34297016612E+02 -0.33112839156E+02 -0.41096868697E+02  0.10413986184E+03  0.82966334987E+02 0.  0.
          5    1    3    3  501    0  0.56627339115E+02  0.49391123247E+02 -0.16622348493E+03  0.18247869885E+03  0.47000000000E+01 0. -1.
        -11    1    4    4    0    0  0.17063774103E+02 -0.25584902038E+02 -0.10837691442E+03  0.11265573744E+03  0.00000000000E+00 0.  1.
         12    1    4    4    0    0  0.10772752642E+02  0.17036292572E+02 -0.66075106933E+03  0.66105844151E+03  0.00000000000E+00 0. -1.
         -5    1    5    5    0  502 -0.50166849248E+02 -0.77296746253E+01  0.80343913443E+02  0.95150906778E+02  0.47000000000E+01 0.  1.
         11    1    6    6    0    0 -0.55281504249E+02  0.36888579838E+00 -0.16911390001E+02  0.57811555078E+02  0.00000000000E+00 0. -1.
        -12    1    6    6    0    0  0.20984487638E+02 -0.33481724954E+02 -0.24185478697E+02  0.46328306759E+02  0.00000000000E+00 0.  1.
</event>
<event>
12    1  0.8271773E-002  0.4875857E+03  0.7818608E-02  0.1017074E+00
         21   -1    0    0  501  502  0.00000000000E+00  0.00000000000E+00  0.14551195763E+03  0.14551195763E+03  0.00000000000E+00 0.  1.
         21   -1    0    0  502  503 -0.00000000000E+00 -0.00000000000E+00 -0.16360161414E+04  0.16360161414E+04  0.00000000000E+00 0. -1.
         -6    2    1    2    0  503 -0.33685654131E+03 -0.30753438789E+03 -0.71145303051E+03  0.86249939411E+03  0.17230804122E+03 0.  0.
        -24    2    3    3    0    0 -0.71465067699E+02 -0.11322053263E+03 -0.27617942986E+03  0.31690274270E+03  0.78905804247E+02 0.  0.
          6    2    1    2  501    0  0.33685654131E+03  0.30753438789E+03 -0.77905115326E+03  0.91902870491E+03  0.17217239003E+03 0.  0.
         24    2    5    5    0    0  0.23149860796E+03  0.19701549564E+03 -0.63905007972E+03  0.71181598750E+03  0.76748189938E+02 0.  0.
          5    1    5    5  501    0  0.10535793335E+03  0.11051889225E+03 -0.14000107354E+03  0.20721271741E+03  0.47000000000E+01 0. -1.
        -13    1    6    6    0    0  0.19119868924E+03  0.11765400588E+03 -0.46103413211E+03  0.51278833337E+03  0.00000000000E+00 0.  1.
         14    1    6    6    0    0  0.40299918721E+02  0.79361489761E+02 -0.17801594761E+03  0.19902765414E+03  0.00000000000E+00 0. -1.
         -5    1    3    3    0  503 -0.26539147361E+03 -0.19431385526E+03 -0.43527360065E+03  0.54559665141E+03  0.47000000000E+01 0.  1.
         13    1    4    4    0    0 -0.15541338747E+02 -0.87392132539E+02 -0.12200683808E+03  0.15087937758E+03  0.00000000000E+00 0. -1.
        -14    1    4    4    0    0 -0.55923728951E+02 -0.25828400088E+02 -0.15417259177E+03  0.16602336512E+03  0.00000000000E+00 0.  1.
</event>
<event>
12    1  0.8271773E-002  0.1787505E+03  0.7818608E-02  0.1169330E+00
         21   -1    0    0  503  502  0.00000000000E+00  0.00000000000E+00  0.39544926580E+02  0.39544926580E+02  0.00000000000E+00 0.  1.
         21   -1    0    0  501  503 -0.00000000000E+00 -0.00000000000E+00 -0.93764760820E+03  0.93764760820E+03  0.00000000000E+00 0.  1.
          6    2    1    2  501    0 -0.47487520422E+02 -0.11544494298E+02 -0.63335486994E+03  0.65775062719E+03  0.17061405674E+03 0.  0.
         24    2    3    3    0    0  0.18624991986E+02  0.29890883010E+02 -0.21562267382E+03  0.23276823643E+03  0.80296694891E+02 0.  0.
         -6    2    1    2    0  502  0.47487520422E+02  0.11544494298E+02 -0.26474781168E+03  0.31944190758E+03  0.17194007266E+03 0.  0.
        -24    2    5    5    0    0  0.35999410233E+02  0.57409993889E+02 -0.24630131410E+03  0.26847148477E+03  0.82587746501E+02 0.  0.
          5    1    3    3  501    0 -0.66112512409E+02 -0.41435377308E+02 -0.41773219611E+03  0.42498239077E+03  0.47000000000E+01 0. -1.
        -11    1    4    4    0    0 -0.16164159569E+01 -0.17693170613E+02 -0.14020037130E+03  0.14132163741E+03  0.00000000000E+00 0.  1.
         12    1    4    4    0    0  0.20241407943E+02  0.47584053623E+02 -0.75422302518E+02  0.91446599018E+02  0.00000000000E+00 0. -1.
         -5    1    5    5    0  502  0.11488110189E+02 -0.45865499591E+02 -0.18446497577E+02  0.50970422809E+02  0.47000000000E+01 0.  1.
         11    1    6    6    0    0 -0.59257960188E+01 -0.18864818522E+02 -0.43688427340E+02  0.47954928003E+02  0.00000000000E+00 0. -1.
        -12    1    6    6    0    0  0.41925206252E+02  0.76274812411E+02 -0.20261288676E+03  0.22051655677E+03  0.00000000000E+00 0.  1.
</event>
<event>
12    1  0.8271773E-002  0.2441866E+03  0.7818608E-02  0.1117084E+00
         21   -1    0    0  503  502  0.00000000000E+00  0.00000000000E+00  0.21234675953E+04  0.21234675953E+04  0.00000000000E+00 0. -1.
         21   -1    0    0  501  503 -0.00000000000E+00 -0.00000000000E+00 -0.29901202538E+02  0.29901202538E+02  0.00000000000E+00 0.  1.
          6    2    1    2  501    0  0.57154446386E+02  0.16317898235E+03  0.77913855100E+03  0.81650717485E+03  0.17243280979E+03 0.  0.
         24    2    3    3    0    0 -0.31371863073E+02  0.90627300945E+02  0.49091212454E+03  0.50635041310E+03  0.78730714222E+02 0.  0.
         -6    2    1    2    0  502 -0.57154446386E+02 -0.16317898235E+03  0.13144278417E+04  0.13368616230E+04  0.17200126981E+03 0.  0.
        -24    2    5    5    0    0  0.16571224896E+02 -0.81709208897E+02  0.92623127787E+03  0.93338738489E+03  0.79728475860E+02 0.  0.
          5    1    3    3  501    0  0.88526309459E+02  0.72551681408E+02  0.28822642647E+03  0.31015676174E+03  0.47000000000E+01 0. -1.
        -13    1    4    4    0    0 -0.52959928313E+02  0.37050671579E+02  0.21735020637E+03  0.22675673856E+03  0.00000000000E+00 0.  1.
         14    1    4    4    0    0  0.21588065240E+02  0.53576629366E+02  0.27356191817E+03  0.27959367455E+03  0.00000000000E+00 0. -1.
         -5    1    5    5    0  502 -0.73725671282E+02 -0.81469773456E+02  0.38819656387E+03  0.40347423808E+03  0.47000000000E+01 0.  1.
         13    1    6    6    0    0 -0.18732401771E+02 -0.45435248230E+02  0.69231408995E+03  0.69405623966E+03  0.00000000000E+00 0. -1.
        -14    1    6    6    0    0  0.35303626667E+02 -0.36273960667E+02  0.23391718791E+03  0.23933114523E+03  0.00000000000E+00 0.  1.
</event>
<event>
12    1  0.8271773E-002  0.1934001E+03  0.7818608E-02  0.1155499E+00
         21   -1    0    0  501  502  0.00000000000E+00  0.00000000000E+00  0.15416790981E+03  0.15416790981E+03  0.00000000000E+00 0. -1.
         21   -1    0    0  502  503 -0.00000000000E+00 -0.00000000000E+00 -0.32612465938E+03  0.32612465938E+03  0.00000000000E+00 0. -1.
         -6    2    1    2    0  503 -0.26565160534E+02  0.84757257157E+02 -0.20773386741E+03  0.28361106589E+03  0.17144205036E+03 0.  0.
        -24    2    3    3    0    0 -0.71067814749E+02  0.88949312781E+02 -0.18971887915E+03  0.23518907332E+03  0.79737272116E+02 0.  0.
          6    2    1    2  501    0  0.26565160534E+02 -0.84757257157E+02  0.35777117837E+02  0.19668150330E+03  0.17179671470E+03 0.  0.
         24    2    5    5    0    0  0.49523945647E+02 -0.11801677421E+03  0.18399174485E+02  0.15243916832E+03  0.80737786881E+02 0.  0.
          5    1    5    5  501    0 -0.22958785114E+02  0.33259517053E+02  0.17377943352E+02  0.44242334971E+02  0.47000000000E+01 0. -1.
        -11    1    6    6    0    0  0.44754392572E+01 -0.10147806820E+03  0.15812920543E+01  0.10158901696E+03  0.00000000000E+00 0.  1.
         12    1    6    6    0    0  0.45048506390E+02 -0.16538706010E+02  0.16817882431E+02  0.50850151366E+02  0.00000000000E+00 0. -1.
         -5    1    3    3    0  503  0.44502654216E+02 -0.41920556244E+01 -0.18014988261E+02  0.48421992572E+02  0.47000000000E+01 0.  1.
         11    1    4    4    0    0 -0.17432284145E+02 -0.57493973796E+01 -0.74369235145E+02  0.76601065507E+02  0.00000000000E+00 0. -1.
        -12    1    4    4    0    0 -0.53635530604E+02  0.94698710161E+02 -0.11534964401E+03  0.15858800781E+03  0.00000000000E+00 0.  1.
</event>
<event>
12    1  0.8271773E-002  0.2495441E+03  0.7818608E-02  0.1114261E+00
         21   -1    0    0  501  502  0.00000000000E+00  0.00000000000E+00  0.10007815062E+03  0.10007815062E+03  0.00000000000E+00 0.  1.
         21   -1    0    0  502  503 -0.00000000000E+00 -0.00000000000E+00 -0.67381202116E+03  0.67381202116E+03  0.00000000000E+00 0. -1.
         -6    2    1    2    0  503 -0.10262036792E+03  0.14421003092E+03 -0.16733708498E+03  0.29699332230E+03  0.16992898679E+03 0.  0.
        -24    2    3    3    0    0 -0.59181901179E+02  0.61417885666E+02 -0.16541474518E+03  0.20335986088E+03  0.81966706573E+02 0.  0.
          6    2    1    2  501    0  0.10262036792E+03 -0.14421003092E+03 -0.40639678556E+03  0.47689684949E+03  0.17591129813E+03 0.  0.
         24    2    5    5    0    0  0.13410733852E+02 -0.33823117699E+01 -0.18342536009E+03  0.19845627797E+03  0.74489890092E+02 0.  0.
          5    1    5    5  501    0  0.89209634066E+02 -0.14082771915E+03 -0.22297142546E+03  0.27844057151E+03  0.47000000000E+01 0. -1.
        -11    1    6    6    0    0  0.43834195879E+02  0.13005388164E+01 -0.90499349677E+02  0.10056470763E+03  0.00000000000E+00 0.  1.
         12    1    6    6    0    0 -0.30423462028E+02 -0.46828505862E+01 -0.92926010418E+02  0.97891570340E+02  0.00000000000E+00 0. -1.
         -5    1    3    3    0  503 -0.43438466738E+02  0.82792145252E+02 -0.19223398076E+01  0.93633461425E+02  0.47000000000E+01 0.  1.
         13    1    4    4    0    0 -0.16597376307E+02  0.66978721957E+02 -0.67910072430E+02  0.96816321108E+02  0.00000000000E+00 0. -1.
        -14    1    4    4    0    0 -0.42584524872E+02 -0.55608362913E+01 -0.97504672746E+02  0.10654353977E+03  0.00000000000E+00 0.  1.
</event>
<event>
12    1  0.8271773E-002  0.2125299E+03  0.7818608E-02  0.1142250E+00
         21   -1    0    0  503  502  0.00000000000E+00  0.00000000000E+00  0.83791137133E+02  0.83791137133E+02  0.00000000000E+00 0. -1.
         21   -1    0    0  501  503 -0.00000000000E+00 -0.00000000000E+00 -0.61697170832E+03  0.61697170832E+03  0.00000000000E+00 0. -1.
          6    2    1    2  501    0  0.67986894308E+02  0.83263722843E+02 -0.40809705533E+03  0.45415619664E+03  0.16780816140E+03 0.  0.
         24    2    3    3    0    0  0.32087785316E+02  0.87402410373E+02 -0.14725004000E+03  0.19077599584E+03  0.77743803644E+02 0.  0.
         -6    2    1    2    0  502 -0.67986894308E+02 -0.83263722843E+02 -0.12508351585E+03  0.24660664881E+03  0.18334090641E+03 0.  0.
        -24    2    5    5    0    0 -0.74309866469E+02 -0.10730741149E+03 -0.14754474764E+03  0.21277358992E+03  0.80413376963E+02 0.  0.
          5    1    3    3  501    0  0.35899108992E+02 -0.41386875300E+01 -0.26084701534E+03  0.26338020079E+03  0.47000000000E+01 0. -1.
        -11    1    4    4    0    0 -0.14219860094E+02  0.37092866407E+02 -0.16084980350E+02  0.42858041862E+02  0.00000000000E+00 0.  1.
         12    1    4    4    0    0  0.46307645410E+02  0.50309543966E+02 -0.13116505965E+03  0.14791795398E+03  0.00000000000E+00 0. -1.
         -5    1    5    5    0  502  0.63229721607E+01  0.24043688648E+02  0.22461231790E+02  0.33833058896E+02  0.47000000000E+01 0.  1.
         11    1    6    6    0    0 -0.48660937941E+02 -0.44474257517E+02 -0.21014157492E+02  0.69191338172E+02  0.00000000000E+00 0. -1.
        -12    1    6    6    0    0 -0.25648928528E+02 -0.62833153974E+02 -0.12653059015E+03  0.14358225174E+03  0.00000000000E+00 0.  1.
</event>
<event>
12    1  0.8271773E-002  0.2727628E+03  0.7818608E-02  0.1099947E+00
         21   -1    0    0  501  502  0.00000000000E+00  0.00000000000E+00  0.35209964954E+03  0.35209964954E+03  0.00000000000E+00 0.  1.
         21   -1    0    0  502  503 -0.00000000000E+00 -0.00000000000E+00 -0.21068682152E+03  0.21068682152E+03  0.00000000000E+00 0. -1.
         -6    2    1    2    0  503  0.22525000827E+02  0.21028342058E+03  0.54416220356E+02  0.27648603568E+03  0.16957862558E+03 0.  0.
        -24    2    3    3    0    0  0.53998538079E+02  0.21746096712E+03  0.53643501177E+02  0.24385494902E+03  0.79890528895E+02 0.  0.
          6    2    1    2  501    0 -0.22525000827E+02 -0.21028342058E+03  0.86996607663E+02  0.28630043538E+03  0.17225863381E+03 0.  0.
         24    2    5    5    0    0 -0.74381769880E+02 -0.19027655714E+03  0.86576487837E+02  0.23051813011E+03  0.62492432945E+02 0.  0.
          5    1    5    5  501    0  0.51856769052E+02 -0.20006863441E+02  0.42011982579E+00  0.55782305277E+02  0.47000000000E+01 0. -1.
        -11    1    6    6    0    0 -0.55473996044E+02 -0.11046929936E+03  0.82067957492E+02  0.14837782848E+03  0.00000000000E+00 0.  1.
         12    1    6    6    0    0 -0.18907773836E+02 -0.79807257773E+02  0.45085303457E+01  0.82140301622E+02  0.00000000000E+00 0. -1.
         -5    1    3    3    0  503 -0.31473537251E+02 -0.71775465432E+01  0.77271917861E+00  0.32631086657E+02  0.47000000000E+01 0.  1.
         11    1    4    4    0    0  0.51952494198E+02  0.64831166320E+02  0.33764859662E+01  0.83147714565E+02  0.00000000000E+00 0. -1.
        -12    1    4    4    0    0  0.20460438808E+01  0.15262980080E+03  0.50267015211E+02  0.16070723445E+03  0.00000000000E+00 0.  1.
</event>
<event>
12    1  0.8271773E-002  0.2000935E+03  0.7818608E-02  0.1150233E+00
         21   -1    0    0  501  502  0.00000000000E+00  0.00000000000E+00  0.32046454748E+03  0.32046454748E+03  0.00000000000E+00 0.  1.
         21   -1    0    0  502  503 -0.00000000000E+00 -0.00000000000E+00 -0.18661111309E+03  0.18661111309E+03  0.00000000000E+00 0.  1.
         -6    2    1    2    0  503 -0.97878041349E+02  0.97041637781E+01 -0.81098875381E+02  0.21340597456E+03  0.17114555389E+03 0.  0.
        -24    2    3    3    0    0 -0.77369321556E+02  0.14623450410E+02  0.16798416663E+02  0.11315241224E+03  0.79507385653E+02 0.  0.
          6    2    1    2  501    0  0.97878041349E+02 -0.97041637781E+01  0.21495230977E+03  0.29366968600E+03  0.17425012835E+03 0.  0.
         24    2    5    5    0    0  0.24699170646E+02  0.42983654705E+02  0.52063611132E+02  0.10742798423E+03  0.79827993775E+02 0.  0.
          5    1    5    5  501    0  0.73178870703E+02 -0.52687818483E+02  0.16288869864E+03  0.18624170177E+03  0.47000000000E+01 0. -1.
        -11    1    6    6    0    0  0.86301100041E+01  0.26929512141E+01  0.62223750906E+02  0.62877070238E+02  0.00000000000E+00 0.  1.
         12    1    6    6    0    0  0.16069060642E+02  0.40290703491E+02 -0.10160139774E+02  0.44550913997E+02  0.00000000000E+00 0. -1.
         -5    1    3    3    0  503 -0.20508719793E+02 -0.49192866316E+01 -0.97897292044E+02  0.10025356232E+03  0.47000000000E+01 0.  1.
         11    1    4    4    0    0 -0.12338181761E+02 -0.12148539603E+02  0.36260686052E+02  0.40182771141E+02  0.00000000000E+00 0. -1.
        -12    1    4    4    0    0 -0.65031139795E+02  0.26771990013E+02 -0.19462269389E+02  0.72969641098E+02  0.00000000000E+00 0.  1.
</event>
<event>
12    1  0.8271773E-002  0.2618762E+03  0.7818608E-02  0.1106152E+00
         21   -1    0    0  501  502  0.00000000000E+00  0.00000000000E+00  0.46463280512E+03  0.46463280512E+03  0.00000000000E+00 0.  1.
         21   -1    0    0  502  503 -0.00000000000E+00 -0.00000000000E+00 -0.14841555833E+03  0.14841555833E+03  0.00000000000E+00 0.  1.
         -6    2    1    2    0  503 -0.34038898931E+02  0.19290425074E+03  0.18716716822E+03  0.32188612205E+03  0.17380572520E+03 0.  0.
        -24    2    3    3    0    0 -0.81825044498E+02  0.87617879667E+02  0.91909812069E+02  0.17200353619E+03  0.82253098193E+02 0.  0.
          6    2    1    2  501    0  0.34038898931E+02 -0.19290425074E+03  0.12905007856E+03  0.29116224140E+03  0.17248429332E+03 0.  0.
         24    2    5    5    0    0  0.66568990970E+02 -0.18488690819E+03  0.14198100412E+03  0.25494368945E+03  0.78886499988E+02 0.  0.
          5    1    5    5  501    0 -0.32530092039E+02 -0.80173425568E+01 -0.12930925556E+02  0.36218551952E+02  0.47000000000E+01 0. -1.
        -11    1    6    6    0    0 -0.15266422878E+02 -0.57513061678E+02  0.50568140778E+02  0.78089389758E+02  0.00000000000E+00 0.  1.
         12    1    6    6    0    0  0.81835413848E+02 -0.12737384651E+03  0.91412863343E+02  0.17685429969E+03  0.00000000000E+00 0. -1.
         -5    1    3    3    0  503  0.47786145567E+02  0.10528637108E+03  0.95257356155E+02  0.14988258586E+03  0.47000000000E+01 0.  1.
         13    1    4    4    0    0 -0.61073364384E+02  0.36021588091E+02  0.80241226776E+01  0.71357530721E+02  0.00000000000E+00 0. -1.
        -14    1    4    4    0    0 -0.20751680114E+02  0.51596291577E+02  0.83885689392E+02  0.10064600547E+03  0.00000000000E+00 0.  1.
</event>
<event>
12    1  0.8271773E-002  0.2518092E+03  0.7818608E-02  0.1113119E+00
         21   -1    0    0  501  502  0.00000000000E+00  0.00000000000E+00  0.35827356062E+03  0.35827356062E+03  0.00000000000E+00 0. -1.
         21   -1    0    0  502  503 -0.00000000000E+00 -0.00000000000E+00 -0.18171571761E+03  0.18171571761E+03  0.00000000000E+00 0. -1.
         -6    2    1    2    0  503 -0.10917359140E+03 -0.14315817330E+03  0.29438322861E+02  0.25352413263E+03  0.17605321732E+03 0.  0.
        -24    2    3    3    0    0 -0.47841172076E+02 -0.23049495617E+02  0.61065927532E+02  0.11492342739E+03  0.81598343510E+02 0.  0.
          6    2    1    2  501    0  0.10917359140E+03  0.14315817330E+03  0.14711952015E+03  0.28646514560E+03  0.16734691748E+03 0.  0.
         24    2    5    5    0    0  0.87595364963E+01  0.15456447011E+02  0.28630423625E+02  0.85337153225E+02  0.78403426773E+02 0.  0.
          5    1    5    5  501    0  0.10041405490E+03  0.12770172629E+03  0.11848909653E+03  0.20112799237E+03  0.47000000000E+01 0. -1.
        -13    1    6    6    0    0 -0.23778775011E+01 -0.31576379242E+02  0.15477685835E+02  0.35246003834E+02  0.00000000000E+00 0.  1.
         14    1    6    6    0    0  0.11137413997E+02  0.47032826253E+02  0.13152737790E+02  0.50091149391E+02  0.00000000000E+00 0. -1.
         -5    1    3    3    0  503 -0.61332419320E+02 -0.12010867769E+03 -0.31627604671E+02  0.13860070524E+03  0.47000000000E+01 0.  1.
         13    1    4    4    0    0 -0.11284638190E+02 -0.32260834059E+02  0.68449701646E+02  0.76507948140E+02  0.00000000000E+00 0. -1.
        -14    1    4    4    0    0 -0.36556533886E+02  0.92113384424E+01 -0.73837741137E+01  0.38415479248E+02  0.00000000000E+00 0.  1.
</event>
<event>
12    1  0.8271773E-002  0.2287268E+03  0.7818608E-02  0.1127611E+00
         21   -1    0    0  503  502  0.00000000000E+00  0.00000000000E+00  0.11344055959E+03  0.11344055959E+03  0.00000000000E+00 0. -1.
         21   -1    0    0  501  503 -0.00000000000E+00 -0.00000000000E+00 -0.53239786909E+03  0.53239786909E+03  0.00000000000E+00 0.  1.
          6    2    1    2  501    0 -0.14559784846E+03 -0.36192260744E+02 -0.32842215359E+03  0.40022126722E+03  0.17264801924E+03 0.  0.
         24    2    3    3    0    0 -0.10759451406E+03  0.31998769176E+02 -0.13722448523E+03  0.19364704720E+03  0.77898131294E+02 0.  0.
         -6    2    1    2    0  502  0.14559784846E+03  0.36192260744E+02 -0.90535155913E+02  0.24561716146E+03  0.17211206330E+03 0.  0.
        -24    2    5    5    0    0  0.22631294254E+02  0.81705201315E+01  0.10242183718E+02  0.84111268122E+02  0.79942918504E+02 0.  0.
          5    1    3    3  501    0 -0.38003334401E+02 -0.68191029921E+02 -0.19119766836E+03  0.20657422001E+03  0.47000000000E+01 0. -1.
        -13    1    4    4    0    0 -0.59835862259E+02 -0.15274150624E+02 -0.98011562520E+02  0.11584427684E+03  0.00000000000E+00 0.  1.
         14    1    4    4    0    0 -0.47758651801E+02  0.47272919800E+02 -0.39212922711E+02  0.77802770361E+02  0.00000000000E+00 0. -1.
         -5    1    5    5    0  502  0.12296655421E+03  0.28021740613E+02 -0.10077733963E+03  0.16150589334E+03  0.47000000000E+01 0.  1.
         11    1    6    6    0    0 -0.11393609745E+02 -0.29836733104E+02 -0.66919413076E+00  0.31945153093E+02  0.00000000000E+00 0. -1.
        -12    1    6    6    0    0  0.34024903999E+02  0.38007253236E+02  0.10911377849E+02  0.52166115029E+02  0.00000000000E+00 0.  1.
</event>
<event>
12    1  0.8271773E-002  0.1867064E+03  0.7818608E-02  0.1162073E+00
         21   -1    0    0  503  502  0.00000000000E+00  0.00000000000E+00  0.23488060441E+03  0.23488060441E+03  0.00000000000E+00 0.  1.
         21   -1    0    0  501  503 -0.00000000000E+00 -0.00000000000E+00 -0.14635630210E+03  0.14635630210E+03  0.00000000000E+00 0.  1.
          6    2    1    2  501    0  0.52375967773E+02  0.40164087798E+02  0.45585601196E+02  0.18965662949E+03  0.17185806389E+03 0.  0.
         24    2    3    3    0    0  0.41746367014E+02  0.50761094436E+02  0.92777197779E+02  0.13991306961E+03  0.81539013678E+02 0.  0.
         -6    2    1    2    0  502 -0.52375967773E+02 -0.40164087798E+02  0.42938701106E+02  0.19158027702E+03  0.17465072156E+03 0.  0.
        -24    2    5    5    0    0 -0.63956426307E+02 -0.64020175753E+02  0.80496700427E+02  0.14536433534E+03  0.80386963119E+02 0.  0.
          5    1    3    3  501    0  0.10629600759E+02 -0.10597006638E+02 -0.47191596583E+02  0.49743559885E+02  0.47000000000E+01 0. -1.
        -13    1    4    4    0    0 -0.37729604175E+01  0.37209737336E+02  0.19899253087E+01  0.37453432228E+02  0.00000000000E+00 0.  1.
         14    1    4    4    0    0  0.45519327431E+02  0.13551357101E+02  0.90787272470E+02  0.10245963738E+03  0.00000000000E+00 0. -1.
         -5    1    5    5    0  502  0.11580458534E+02  0.23856087955E+02 -0.37557999321E+02  0.46215941680E+02  0.47000000000E+01 0.  1.
         13    1    6    6    0    0 -0.29895536099E+01  0.16435824925E+02  0.75607111426E+00  0.16722601929E+02  0.00000000000E+00 0. -1.
        -14    1    6    6    0    0 -0.60966872697E+02 -0.80456000678E+02  0.79740629312E+02  0.12864173341E+03  0.00000000000E+00 0.  1.
</event>
<event>
12    1  0.8271773E-002  0.1815063E+03  0.7818608E-02  0.1166830E+00
         21   -1    0    0  503  502  0.00000000000E+00  0.00000000000E+00  0.42473804309E+03  0.42473804309E+03  0.00000000000E+00 0.  1.
         21   -1    0    0  501  503 -0.00000000000E+00 -0.00000000000E+00 -0.81993328563E+02  0.81993328563E+02  0.00000000000E+00 0.  1.
          6    2    1    2  501    0  0.53814471421E+02 -0.13705719885E+02  0.10800144466E+03  0.21120804931E+03  0.17280244198E+03 0.  0.
         24    2    3    3    0    0  0.67612587315E+02 -0.22106938429E+02  0.59747478504E+01  0.10780347815E+03  0.80781889055E+02 0.  0.
         -6    2    1    2    0  502 -0.53814471421E+02  0.13705719885E+02  0.23474326986E+03  0.29552332234E+03  0.17072137302E+03 0.  0.
        -24    2    5    5    0    0 -0.84428151723E+02 -0.15889375671E+02  0.92278924590E+02  0.14675757770E+03  0.75111927329E+02 0.  0.
          5    1    3    3  501    0 -0.13798115894E+02  0.84012185442E+01  0.10202669681E+03  0.10340457116E+03  0.47000000000E+01 0. -1.
        -13    1    4    4    0    0  0.43010401125E+02 -0.30613614644E+02 -0.32021685426E+02  0.61745253616E+02  0.00000000000E+00 0.  1.
         14    1    4    4    0    0  0.24602186191E+02  0.85066762150E+01  0.37996433277E+02  0.46058224535E+02  0.00000000000E+00 0. -1.
         -5    1    5    5    0  502  0.30613680301E+02  0.29595095556E+02  0.14246434527E+03  0.14876574463E+03  0.47000000000E+01 0.  1.
         13    1    6    6    0    0 -0.45035949385E+02  0.36151271969E+01  0.71185246300E+00  0.45186420699E+02  0.00000000000E+00 0. -1.
        -14    1    6    6    0    0 -0.39392202338E+02 -0.19504502868E+02  0.91567072127E+02  0.10157115700E+03  0.00000000000E+00 0.  1.
</event>
<event>
12    1  0.8271773E-002  0.2387093E+03  0.7818608E-02  0.1120661E+00
         21   -1    0    0  503  502  0.00000000000E+00  0.00000000000E+00  0.11200273862E+03  0.11200273862E+03  0.00000000000E+00 0.  1.
         21   -1    0    0  501  503 -0.00000000000E+00 -0.00000000000E+00 -0.67460427206E+03  0.67460427206E+03  0.00000000000E+00 0.  1.
          6    2    1    2  501    0 -0.14043098643E+03  0.85828257531E+02 -0.86265096306E+02  0.25381844301E+03  0.17290107991E+03 0.  0.
         24    2    3    3    0    0 -0.82563694481E+02  0.10916793654E+03 -0.84576052862E+02  0.19122206164E+03  0.10333618013E+03 0.  0.
         -6    2    1    2    0  502  0.14043098643E+03 -0.85828257531E+02 -0.47633643714E+03  0.53278856766E+03  0.17285804796E+03 0.  0.
        -24    2    5    5    0    0  0.92499659048E+02 -0.10184023822E+03 -0.21628327376E+03  0.26782907368E+03  0.77629486365E+02 0.  0.
          5    1    3    3  501    0 -0.57867291947E+02 -0.23339679012E+02 -0.16890434446E+01  0.62596381377E+02  0.47000000000E+01 0. -1.
        -13    1    4    4    0    0 -0.49202771690E+02  0.33024395784E+01  0.36271329432E+01  0.49446687883E+02  0.00000000000E+00 0.  1.
         14    1    4    4    0    0 -0.33360922791E+02  0.10586549697E+03 -0.88203185805E+02  0.14177537375E+03  0.00000000000E+00 0. -1.
         -5    1    5    5    0  502  0.47931327381E+02  0.16011980689E+02 -0.26005316338E+03  0.26495949398E+03  0.47000000000E+01 0.  1.
         13    1    6    6    0    0  0.21611167779E+02 -0.75657195800E+02 -0.13909133604E+03  0.15980442300E+03  0.00000000000E+00 0. -1.
        -14    1    6    6    0    0  0.70888491270E+02 -0.26183042421E+02 -0.77191937722E+02  0.10802465068E+03  0.00000000000E+00 0.  1.
</event>
<event>
12    1  0.8271773E-002  0.1895229E+03  0.7818608E-02  0.1158944E+00
         21   -1    0    0  503  502  0.00000000000E+00  0.00000000000E+00  0.45315867689E+02  0.45315867689E+02  0.00000000000E+00 0.  1.
         21   -1    0    0  501  503 -0.00000000000E+00 -0.00000000000E+00 -0.81802536653E+03  0.81802536653E+03  0.00000000000E+00 0. -1.
          6    2    1    2  501    0 -0.77099140836E+02 -0.19977196924E+02 -0.46404758354E+03  0.50125749992E+03  0.17197545034E+03 0.  0.
         24    2    3    3    0    0  0.14808865279E+02 -0.86017410789E+01 -0.31639141720E+03  0.32689891526E+03  0.80411936196E+02 0.  0.
         -6    2    1    2    0  502  0.77099140836E+02  0.19977196924E+02 -0.30866191530E+03  0.36208373430E+03  0.17172386781E+03 0.  0.
        -24    2    5    5    0    0  0.58495711536E+02 -0.47574569034E+02 -0.11984195053E+03  0.16062803753E+03  0.75856347439E+02 0.  0.
          5    1    3    3  501    0 -0.91908006116E+02 -0.11375455845E+02 -0.14765616634E+03  0.17435858466E+03  0.47000000000E+01 0. -1.
        -11    1    4    4    0    0 -0.16395525726E+02 -0.16620189468E+00 -0.10869965333E+02  0.19672240169E+02  0.00000000000E+00 0.  1.
         12    1    4    4    0    0  0.31204391006E+02 -0.84355391842E+01 -0.30552145187E+03  0.30722667509E+03  0.00000000000E+00 0. -1.
         -5    1    5    5    0  502  0.18603429301E+02  0.67551765958E+02 -0.18881996477E+03  0.20145569677E+03  0.47000000000E+01 0.  1.
         13    1    6    6    0    0  0.67711329796E+01 -0.39579784952E+02 -0.94083230401E+02  0.10229399719E+03  0.00000000000E+00 0. -1.
        -14    1    6    6    0    0  0.51724578556E+02 -0.79947840823E+01 -0.25758720125E+02  0.58334040335E+02  0.00000000000E+00 0.  1.
</event>
<event>
12    1  0.8271773E-002  0.2571153E+03  0.7818608E-02  0.1108891E+00
         21   -1    0    0  501  502  0.00000000000E+00  0.00000000000E+00  0.10899654681E+04  0.10899654681E+04  0.00000000000E+00 0. -1.
         21   -1    0    0  502  503 -0.00000000000E+00 -0.00000000000E+00 -0.64150278954E+02  0.64150278954E+02  0.00000000000E+00 0.  1.
         -6    2    1    2    0  503 -0.71639627268E+02 -0.17645346501E+03  0.37810603512E+03  0.45724441680E+03  0.17274322386E+03 0.  0.
        -24    2    3    3    0    0  0.12559823169E+02 -0.14366501046E+03  0.22814410119E+03  0.28210075624E+03  0.82059255271E+02 0.  0.
          6    2    1    2  501    0  0.71639627268E+02  0.17645346501E+03  0.64770915400E+03  0.69687133022E+03  0.17272649249E+03 0.  0.
         24    2    5    5    0    0  0.56837939916E+02  0.60822302826E+02  0.47431860682E+03  0.48788322658E+03  0.78243198176E+02 0.  0.
          5    1    5    5  501    0  0.14801687352E+02  0.11563116219E+03  0.17339054717E+03  0.20898810365E+03  0.47000000000E+01 0. -1.
        -13    1    6    6    0    0  0.52478042836E+02  0.35527514673E+01  0.16192339330E+03  0.17025202590E+03  0.00000000000E+00 0.  1.
         14    1    6    6    0    0  0.43598970798E+01  0.57269551359E+02  0.31239521352E+03  0.31763120068E+03  0.00000000000E+00 0. -1.
         -5    1    3    3    0  503 -0.84199450437E+02 -0.32788454554E+02  0.14996193393E+03  0.17514366056E+03  0.47000000000E+01 0.  1.
         11    1    4    4    0    0  0.18116317232E+02 -0.11266300557E+02  0.39863898071E+01  0.21703036239E+02  0.00000000000E+00 0. -1.
        -12    1    4    4    0    0 -0.55564940623E+01 -0.13239870990E+03  0.22415771138E+03  0.26039772000E+03  0.00000000000E+00 0.  1.
</event>
<event>
12    1  0.8271773E-002  0.1764146E+03  0.7818608E-02  0.1171435E+00
         21   -1    0    0  501  502  0.00000000000E+00  0.00000000000E+00  0.73767390990E+02  0.73767390990E+02  0.00000000000E+00 0.  1.
         21   -1    0    0  502  503 -0.00000000000E+00 -0.00000000000E+00 -0.76482612437E+03  0.76482612437E+03  0.00000000000E+00 0.  1.
         -6    2    1    2    0  503 -0.30655867164E+02 -0.21223075178E+02 -0.62649871663E+03  0.65073690597E+03  0.17195254503E+03 0.  0.
        -24    2    3    3    0    0  0.27880947420E+02 -0.34585807049E+02 -0.19376686784E+03  0.21383409730E+03  0.78777514674E+02 0.  0.
          6    2    1    2  501    0  0.30655867164E+02  0.21223075178E+02 -0.64560016744E+02  0.18785660938E+03  0.17242943141E+03 0.  0.
         24    2    5    5    0    0  0.31563039498E+02 -0.16511378689E+02 -0.10170199684E+03  0.13469338285E+03  0.80809406229E+02 0.  0.
          5    1    5    5  501    0 -0.90717233383E+00  0.37734453867E+02  0.37141980091E+02  0.53163226533E+02  0.47000000000E+01 0. -1.
        -11    1    6    6    0    0  0.42051313684E+02 -0.40261106589E+02 -0.49601941984E+02  0.76482823790E+02  0.00000000000E+00 0.  1.
         12    1    6    6    0    0 -0.10488274186E+02  0.23749727900E+02 -0.52100054851E+02  0.58210559062E+02  0.00000000000E+00 0. -1.
         -5    1    3    3    0  503 -0.58536814585E+02  0.13362731871E+02 -0.43273184880E+03  0.43690280867E+03  0.47000000000E+01 0.  1.
         13    1    4    4    0    0 -0.64536148454E+01 -0.12644098548E+02  0.15793923560E+01  0.14283446813E+02  0.00000000000E+00 0. -1.
        -14    1    4    4    0    0  0.34334562266E+02 -0.21941708501E+02 -0.19534626019E+03  0.19955065049E+03  0.00000000000E+00 0.  1.
</event>
<event>
12    1  0.8271773E-002  0.1796416E+03  0.7818608E-02  0.1168624E+00
         21   -1    0    0  503  502  0.00000000000E+00  0.00000000000E+00  0.24031791178E+03  0.24031791178E+03  0.00000000000E+00 0. -1.
         21   -1    0    0  501  503 -0.00000000000E+00 -0.00000000000E+00 -0.15882110295E+03  0.15882110295E+03  0.00000000000E+00 0. -1.
          6    2    1    2  501    0  0.13823540586E+02  0.48273060054E+02 -0.39786231182E+02  0.18399469324E+03  0.17248108402E+03 0.  0.
         24    2    3    3    0    0 -0.48834437908E+02  0.36544882376E+02  0.14249564054E+02  0.10029565150E+03  0.78331582906E+02 0.  0.
         -6    2    1    2    0  502 -0.13823540586E+02 -0.48273060054E+02  0.12128304001E+03  0.21514432149E+03  0.17045857172E+03 0.  0.
        -24    2    5    5    0    0  0.55913873267E+02 -0.41049236329E+02  0.56919469718E+02  0.11985397727E+03  0.79459101476E+02 0.  0.
          5    1    3    3  501    0  0.62657978495E+02  0.11728177678E+02 -0.54035795236E+02  0.83699041735E+02  0.47000000000E+01 0. -1.
        -11    1    4    4    0    0 -0.38196930404E+02 -0.11823914080E+02  0.28099020921E+02  0.48870905590E+02  0.00000000000E+00 0.  1.
         12    1    4    4    0    0 -0.10637507504E+02  0.48368796456E+02 -0.13849456867E+02  0.51424745911E+02  0.00000000000E+00 0. -1.
         -5    1    5    5    0  502 -0.69737413853E+02 -0.72238237245E+01  0.64363570292E+02  0.95290344216E+02  0.47000000000E+01 0.  1.
         11    1    6    6    0    0  0.20614669473E+02 -0.53700938270E+02  0.58867849978E+02  0.82305401582E+02  0.00000000000E+00 0. -1.
        -12    1    6    6    0    0  0.35299203794E+02  0.12651701941E+02 -0.19483802594E+01  0.37548575687E+02  0.00000000000E+00 0.  1.
</event>
<event>
12    1  0.8271773E-002  0.1921431E+03  0.7818608E-02  0.1156753E+00
         21   -1    0    0  503  502  0.00000000000E+00  0.00000000000E+00  0.16888066610E+04  0.16888066610E+04  0.00000000000E+00 0. -1.
         21   -1    0    0  501  503 -0.00000000000E+00 -0.00000000000E+00 -0.66149804076E+02  0.66149804076E+02  0.00000000000E+00 0. -1.
          6    2    1    2  501    0 -0.75905641315E+02 -0.41999815254E+02  0.91812077710E+02  0.21210043627E+03  0.17038628638E+03 0.  0.
         24    2    3    3    0    0 -0.85695256019E+01 -0.76736245276E+01  0.10764187066E+03  0.13473692941E+03  0.80218118562E+02 0.  0.
         -6    2    1    2    0  502  0.75905641315E+02  0.41999815254E+02  0.15308447792E+04  0.15428560288E+04  0.17144485034E+03 0.  0.
        -24    2    5    5    0    0  0.45777243700E+02 -0.41690098985E+02  0.81132196412E+03  0.81784092998E+03  0.82382260760E+02 0.  0.
          5    1    3    3  501    0 -0.67336115713E+02 -0.34326190726E+02 -0.15829792947E+02  0.77363506861E+02  0.47000000000E+01 0. -1.
        -13    1    4    4    0    0  0.27607688407E+02 -0.27338350168E+02  0.41703070518E+02  0.56997508189E+02  0.00000000000E+00 0.  1.
         14    1    4    4    0    0 -0.36177214009E+02  0.19664725641E+02  0.65938800138E+02  0.77739421220E+02  0.00000000000E+00 0. -1.
         -5    1    5    5    0  502  0.30128397616E+02  0.83689914239E+02  0.71952281508E+03  0.72501509881E+03  0.47000000000E+01 0.  1.
         11    1    6    6    0    0  0.48437965353E+01 -0.65924812393E+01  0.58960004764E+03  0.58965679794E+03  0.00000000000E+00 0. -1.
        -12    1    6    6    0    0  0.40933447165E+02 -0.35097617746E+02  0.22172191648E+03  0.22818413204E+03  0.00000000000E+00 0.  1.
</event>
<event>
12    1  0.8271773E-002  0.2042355E+03  0.7818608E-02  0.1147540E+00
         21   -1    0    0  501  502  0.00000000000E+00  0.00000000000E+00  0.10241976317E+04  0.10241976317E+04  0.00000000000E+00 0. -1.
         21   -1    0    0  502  503 -0.00000000000E+00 -0.00000000000E+00 -0.47208789128E+02  0.47208789128E+02  0.00000000000E+00 0. -1.
         -6    2    1    2    0  503  0.92486409998E+02  0.24121826880E+02  0.69891761281E+03  0.72639083630E+03  0.17326920959E+03 0.  0.
        -24    2    3    3    0    0  0.52985507461E+02  0.52758741022E+02  0.22701386273E+03  0.25194839143E+03  0.79697862681E+02 0.  0.
          6    2    1    2  501    0 -0.92486409998E+02 -0.24121826880E+02  0.27807122979E+03  0.34501558456E+03  0.18048973984E+03 0.  0.
         24    2    5    5    0    0 -0.59607012575E+02 -0.80860141317E+02  0.22459956181E+03  0.26027126100E+03  0.84881138851E+02 0.  0.
          5    1    5    5  501    0 -0.32879397423E+02  0.56738314437E+02  0.53471667981E+02  0.84744323567E+02  0.47000000000E+01 0. -1.
        -13    1    6    6    0    0  0.13208040142E+02 -0.17552080417E+02  0.10157106467E+03  0.10391924282E+03  0.00000000000E+00 0.  1.
         14    1    6    6    0    0 -0.72815052717E+02 -0.63308060900E+02  0.12302849714E+03  0.15635201817E+03  0.00000000000E+00 0. -1.
         -5    1    3    3    0  503  0.39500902537E+02 -0.28636914142E+02  0.47190375008E+03  0.47444244487E+03  0.47000000000E+01 0.  1.
         13    1    4    4    0    0  0.30699227743E+02  0.72048482081E+02  0.18209881717E+03  0.19822564307E+03  0.00000000000E+00 0. -1.
        -14    1    4    4    0    0  0.22286279719E+02 -0.19289741058E+02  0.44915045558E+02  0.53722748359E+02  0.00000000000E+00 0.  1.
</event>
<event>
12    1  0.8271773E-002  0.1824699E+03  0.7818608E-02  0.1165984E+00
         21   -1    0    0  501  502  0.00000000000E+00  0.00000000000E+00  0.21060036487E+03  0.21060036487E+03  0.00000000000E+00 0. -1.
         21   -1    0    0  502  503 -0.00000000000E+00 -0.00000000000E+00 -0.23788354262E+03  0.23788354262E+03  0.00000000000E+00 0. -1.
         -6    2    1    2    0  503  0.51654023527E+02  0.36726785738E+02 -0.14505528133E+03  0.23130762235E+03  0.16865700868E+03 0.  0.
        -24    2    3    3    0    0  0.39450141610E+01  0.75081920663E+02 -0.52406501925E+02  0.12016288664E+03  0.77716278440E+02 0.  0.
          6    2    1    2  501    0 -0.51654023527E+02 -0.36726785738E+02  0.11777210358E+03  0.21717628514E+03  0.17110895801E+03 0.  0.
         24    2    5    5    0    0 -0.22853104075E+02  0.17783122165E+02 -0.19422460422E+02  0.66692859439E+02  0.56852455809E+02 0.  0.
          5    1    5    5  501    0 -0.28800919451E+02 -0.54509907904E+02  0.13719456400E+03  0.15048342570E+03  0.47000000000E+01 0. -1.
        -11    1    6    6    0    0 -0.26432011036E+02  0.33546060769E+02 -0.25127142704E+02  0.49551616532E+02  0.00000000000E+00 0.  1.
         12    1    6    6    0    0  0.35789069605E+01 -0.15762938603E+02  0.57046822826E+01  0.17141242907E+02  0.00000000000E+00 0. -1.
         -5    1    3    3    0  503  0.47709009366E+02 -0.38355134925E+02 -0.92648779405E+02  0.11114473571E+03  0.47000000000E+01 0.  1.
         11    1    4    4    0    0  0.28933045995E+01 -0.74479547629E+00 -0.43732482228E+02  0.43834414946E+02  0.00000000000E+00 0. -1.
        -12    1    4    4    0    0  0.10517095615E+01  0.75826716139E+02 -0.86740196963E+01  0.76328471694E+02  0.00000000000E+00 0.  1.
</event>
<event>
12    1  0.8271773E-002  0.1730174E+03  0.7818608E-02  0.1175019E+00
         21   -1    0    0  501  502  0.00000000000E+00  0.00000000000E+00  0.31486654892E+03  0.31486654892E+03  0.00000000000E+00 0.  1.
         21   -1    0    0  502  503 -0.00000000000E+00 -0.00000000000E+00 -0.10208949703E+03  0.10208949703E+03  0.00000000000E+00 0.  1.
         -6    2    1    2    0  503 -0.45350751317E+01  0.69948365948E+00  0.49108677419E+02  0.17879146009E+03  0.17185362324E+03 0.  0.
        -24    2    3    3    0    0 -0.18086871669E+02 -0.58219000168E+01  0.10260153357E+03  0.12302628016E+03  0.65171784329E+02 0.  0.
          6    2    1    2  501    0  0.45350751317E+01 -0.69948365948E+00  0.16366837447E+03  0.23816458585E+03  0.17295657538E+03 0.  0.
         24    2    5    5    0    0 -0.73905010342E+01 -0.41090911287E+02  0.17281363652E+03  0.19481239317E+03  0.79650694092E+02 0.  0.
          5    1    5    5  501    0  0.11925576166E+02  0.40391427628E+02 -0.91452620456E+01  0.43352192685E+02  0.47000000000E+01 0. -1.
        -13    1    6    6    0    0  0.36053721014E+02 -0.15574571034E+02  0.68249219804E+02  0.78742581020E+02  0.00000000000E+00 0.  1.
         14    1    6    6    0    0 -0.43444222048E+02 -0.25516340253E+02  0.10456441672E+03  0.11606981215E+03  0.00000000000E+00 0. -1.
         -5    1    3    3    0  503  0.13551796537E+02  0.65213836763E+01 -0.53492856147E+02  0.55765179935E+02  0.47000000000E+01 0.  1.
         11    1    4    4    0    0  0.16324327752E+02 -0.71095867817E+01  0.79714685357E+02  0.81679011761E+02  0.00000000000E+00 0. -1.
        -12    1    4    4    0    0 -0.34411199421E+02  0.12876867649E+01  0.22886848209E+02  0.41347268395E+02  0.00000000000E+00 0.  1.
</event>
<event>
12    1  0.8271773E-002  0.2028960E+03  0.7818608E-02  0.1147824E+00
         21   -1    0    0  503  502  0.00000000000E+00  0.00000000000E+00  0.30368126827E+03  0.30368126827E+03  0.00000000000E+00 0.  1.
         21   -1    0    0  501  503 -0.00000000000E+00 -0.00000000000E+00 -0.31184107863E+03  0.31184107863E+03  0.00000000000E+00 0.  1.
          6    2    1    2  501    0  0.74290602978E+02  0.70519869219E+02 -0.23651933424E+03  0.31004752139E+03  0.17232505449E+03 0.  0.
         24    2    3    3    0    0  0.31350076979E+02  0.59518995404E+02 -0.24342685439E+03  0.26493974121E+03  0.80069313057E+02 0.  0.
         -6    2    1    2    0  502 -0.74290602978E+02 -0.70519869219E+02  0.22835952387E+03  0.30547482552E+03  0.17514180322E+03 0.  0.
        -24    2    5    5    0    0 -0.22030848756E+02  0.27182360249E+02  0.14139983839E+03  0.16454617530E+03  0.76532937363E+02 0.  0.
          5    1    3    3  501    0  0.42940525999E+02  0.11000873815E+02  0.69075201537E+01  0.45107780176E+02  0.47000000000E+01 0. -1.
        -11    1    4    4    0    0  0.57693405818E+02  0.50643229703E+02 -0.18042940347E+03  0.19608170600E+03  0.00000000000E+00 0.  1.
         12    1    4    4    0    0 -0.26343328839E+02  0.88757657008E+01 -0.62997450919E+02  0.68858035213E+02  0.00000000000E+00 0. -1.
         -5    1    5    5    0  502 -0.52259754222E+02 -0.97702229468E+02  0.86959685481E+02  0.14092865022E+03  0.47000000000E+01 0.  1.
         11    1    6    6    0    0 -0.88560865820E+01  0.50293975268E+02  0.59376558068E+02  0.78316600193E+02  0.00000000000E+00 0. -1.
        -12    1    6    6    0    0 -0.13174762174E+02 -0.23111615020E+02  0.82023280324E+02  0.86229575102E+02  0.00000000000E+00 0.  1.
</event>
<event>
12    1  0.8271773E-002  0.2296352E+03  0.7818608E-02  0.1127122E+00
         21   -1    0    0  503  502  0.00000000000E+00  0.00000000000E+00  0.18368524937E+03  0.18368524937E+03  0.00000000000E+00 0.  1.
         21   -1    0    0  501  503 -0.00000000000E+00 -0.00000000000E+00 -0.31674411879E+03  0.31674411879E+03  0.00000000000E+00 0.  1.
          6    2    1    2  501    0 -0.14039405866E+03  0.58468637391E+02 -0.14529665703E+03  0.27174147781E+03  0.17205591810E+03 0.  0.
         24    2    3    3    0    0 -0.10340122978E+03  0.11438949393E+02 -0.22751801646E+02  0.13528785008E+03  0.83441560485E+02 0.  0.
         -6    2    1    2    0  502  0.14039405866E+03 -0.58468637391E+02  0.12237787609E+02  0.22868789035E+03  0.17035056349E+03 0.  0.
        -24    2    5    5    0    0  0.30959510059E+02  0.11942913531E+02 -0.31999355076E+02  0.91164358823E+02  0.78650220265E+02 0.  0.
          5    1    3    3  501    0 -0.36992828874E+02  0.47029687999E+02 -0.12254485538E+03  0.13645362774E+03  0.47000000000E+01 0. -1.
        -11    1    4    4    0    0  0.32233973363E+01  0.25586917415E+02 -0.36647709094E+01  0.26048247139E+02  0.00000000000E+00 0.  1.
         12    1    4    4    0    0 -0.10662462712E+03 -0.14147968022E+02 -0.19087030737E+02  0.10923960294E+03  0.00000000000E+00 0. -1.
         -5    1    5    5    0  502  0.10943454860E+03 -0.70411550923E+02  0.44237142685E+02  0.13752353153E+03  0.47000000000E+01 0.  1.
         11    1    6    6    0    0  0.10004297360E+02  0.19984775303E+02  0.22812010907E+02  0.31935326070E+02  0.00000000000E+00 0. -1.
        -12    1    6    6    0    0  0.20955212699E+02 -0.80418617715E+01 -0.54811365983E+02  0.59229032753E+02  0.00000000000E+00 0.  1.
</event>
<event>
12    1  0.8271773E-002  0.1773027E+03  0.7818608E-02  0.1170478E+00
         21   -1    0    0  503  502  0.00000000000E+00  0.00000000000E+00  0.54062404167E+02  0.54062404167E+02  0.00000000000E+00 0. -1.
         21   -1    0    0  501  503 -0.00000000000E+00 -0.00000000000E+00 -0.13380212951E+04  0.13380212951E+04  0.00000000000E+00 0. -1.
          6    2    1    2  501    0 -0.36531574668E+01  0.43747468056E+02 -0.11654173389E+04  0.11788036936E+04  0.17161989246E+03 0.  0.
         24    2    3    3    0    0 -0.65903375594E+02  0.41972132216E+02 -0.63205475442E+03  0.64179719634E+03  0.79407265691E+02 0.  0.
         -6    2    1    2    0  502  0.36531574668E+01 -0.43747468056E+02 -0.11854155201E+03  0.21328000574E+03  0.17178205603E+03 0.  0.
        -24    2    5    5    0    0  0.40959548031E+02  0.97737395274E+01 -0.11748069021E+03  0.14786210402E+03  0.79298667538E+02 0.  0.
          5    1    3    3  501    0  0.62250218128E+02  0.17753358397E+01 -0.53336258453E+03  0.53700649721E+03  0.47000000000E+01 0. -1.
        -13    1    4    4    0    0  0.18431876456E+02  0.59730530525E+01 -0.13022737412E+03  0.13166085372E+03  0.00000000000E+00 0.  1.
         14    1    4    4    0    0 -0.84335252051E+02  0.35999079164E+02 -0.50182738030E+03  0.51013634262E+03  0.00000000000E+00 0. -1.
         -5    1    5    5    0  502 -0.37306390565E+02 -0.53521207583E+02 -0.10608618016E+01  0.65417901724E+02  0.47000000000E+01 0.  1.
         11    1    6    6    0    0  0.30533479774E+02  0.12011238682E+02 -0.30686489527E+01  0.32954208353E+02  0.00000000000E+00 0. -1.
        -12    1    6    6    0    0  0.10426068257E+02 -0.22374991541E+01 -0.11441204125E+03  0.11490789566E+03  0.00000000000E+00 0.  1.
</event>
<event>
12    1  0.8271773E-002  0.2422710E+03  0.7818608E-02  0.1118420E+00
         21   -1    0    0  501  502  0.00000000000E+00  0.00000000000E+00  0.18034080621E+03  0.18034080621E+03  0.00000000000E+00 0.  1.
         21   -1    0    0  502  503 -0.00000000000E+00 -0.00000000000E+00 -0.33597707238E+03  0.33597707238E+03  0.00000000000E+00 0. -1.
         -6    2    1    2    0  503 -0.15737579805E+02  0.16985076571E+03 -0.12585988874E+03  0.27301268836E+03  0.17204145541E+03 0.  0.
        -24    2    3    3    0    0 -0.68012053604E+01  0.85127473773E+02 -0.14490363409E+03  0.18559044164E+03  0.78446196009E+02 0.  0.
          6    2    1    2  501    0  0.15737579805E+02 -0.16985076571E+03 -0.29776377432E+02  0.24330519023E+03  0.17092053390E+03 0.  0.
         24    2    5    5    0    0  0.37020455310E+02 -0.12875564081E+03  0.38063953340E+02  0.16104845458E+03  0.80865388318E+02 0.  0.
          5    1    5    5  501    0 -0.21282875505E+02 -0.41095124905E+02 -0.67840330772E+02  0.82256735651E+02  0.47000000000E+01 0. -1.
        -11    1    6    6    0    0  0.35138838839E+02 -0.12945965256E+03  0.11749373151E+02  0.13465729614E+03  0.00000000000E+00 0.  1.
         12    1    6    6    0    0  0.18816164712E+01  0.70401175145E+00  0.26314580188E+02  0.26391158436E+02  0.00000000000E+00 0. -1.
         -5    1    3    3    0  503 -0.89363744445E+01  0.84723291938E+02  0.19043745348E+02  0.87422246722E+02  0.47000000000E+01 0.  1.
         13    1    4    4    0    0  0.33665334023E+02  0.41315522379E+02 -0.47566136868E+02  0.71434336848E+02  0.00000000000E+00 0. -1.
        -14    1    4    4    0    0 -0.40466539383E+02  0.43811951394E+02 -0.97337497223E+02  0.11415610479E+03  0.00000000000E+00 0.  1.
</event>
<event>
12    1  0.8271773E-002  0.1882923E+03  0.7818608E-02  0.1160143E+00
         21   -1    0    0  503  502  0.00000000000E+00  0.00000000000E+00  0.22649102228E+04  0.22649102228E+04  0.00000000000E+00 0. -1.
         21   -1    0    0  501  503 -0.00000000000E+00 -0.00000000000E+00 -0.17946630453E+02  0.17946630453E+02  0.00000000000E+00 0. -1.
          6    2    1    2  501    0  0.69302282200E+02 -0.26259362071E+02  0.71272949409E+03  0.73718200551E+03  0.17309424340E+03 0.  0.
         24    2    3    3    0    0  0.77862631588E+02  0.41435427877E+02  0.41471693772E+03  0.43142157982E+03  0.79717984305E+02 0.  0.
         -6    2    1    2    0  502 -0.69302282200E+02  0.26259362071E+02  0.15342340982E+04  0.15456748477E+04  0.17246479714E+03 0.  0.
        -24    2    5    5    0    0 -0.53971009890E+02  0.87098323419E+02  0.87908342222E+03  0.88751003142E+03  0.66237487812E+02 0.  0.
          5    1    3    3  501    0 -0.85603493879E+01 -0.67694789948E+02  0.29801255637E+03  0.30576042570E+03  0.47000000000E+01 0. -1.
        -13    1    4    4    0    0  0.36788374660E+02  0.50412582760E+02  0.13706241092E+03  0.15060185091E+03  0.00000000000E+00 0.  1.
         14    1    4    4    0    0  0.41074256928E+02 -0.89771548834E+01  0.27765452680E+03  0.28081972891E+03  0.00000000000E+00 0. -1.
         -5    1    5    5    0  502 -0.15331272310E+02 -0.60838961348E+02  0.65515067600E+03  0.65816481628E+03  0.47000000000E+01 0.  1.
         13    1    6    6    0    0 -0.51681376871E+02  0.69493867674E+02  0.84149935917E+03  0.84594416709E+03  0.00000000000E+00 0. -1.
        -14    1    6    6    0    0 -0.22896330191E+01  0.17604455744E+02  0.37584063056E+02  0.41565864326E+02  0.00000000000E+00 0.  1.
</event>
<event>
12    1  0.8271773E-002  0.2638762E+03  0.7818608E-02  0.1106932E+00
         21   -1    0    0  501  502  0.00000000000E+00  0.00000000000E+00  0.14262128279E+03  0.14262128279E+03  0.00000000000E+00 0. -1.
         21   -1    0    0  502  503 -0.00000000000E+00 -0.00000000000E+00 -0.56537752317E+03  0.56537752317E+03  0.00000000000E+00 0. -1.
         -6    2    1    2    0  503 -0.17887793333E+03 -0.33081676184E+02 -0.56123377234E+02  0.25627954133E+03  0.17157405835E+03 0.  0.
        -24    2    3    3    0    0 -0.10337302728E+03 -0.31090977287E+02  0.34119747637E+02  0.13850490354E+03  0.79792352310E+02 0.  0.
          6    2    1    2  501    0  0.17887793333E+03  0.33081676184E+02 -0.36663286314E+03  0.45171926463E+03  0.19115157694E+03 0.  0.
         24    2    5    5    0    0  0.55358857411E+02  0.49927092758E+02 -0.69944750011E+02  0.12987045439E+03  0.80104614006E+02 0.  0.
          5    1    5    5  501    0  0.12351907592E+03 -0.16845416574E+02 -0.29668811313E+03  0.32184881024E+03  0.47000000000E+01 0. -1.
        -11    1    6    6    0    0 -0.14932968186E+01  0.10911742400E+02 -0.59043786152E+02  0.60062173959E+02  0.00000000000E+00 0.  1.
         12    1    6    6    0    0  0.56852154229E+02  0.39015350358E+02 -0.10900963859E+02  0.69808280434E+02  0.00000000000E+00 0. -1.
         -5    1    3    3    0  503 -0.75504906055E+02 -0.19906988963E+01 -0.90243124871E+02  0.11777463779E+03  0.47000000000E+01 0.  1.
         13    1    4    4    0    0 -0.10896840140E+03 -0.19545823407E+02  0.99658767238E+01  0.11115516369E+03  0.00000000000E+00 0. -1.
        -14    1    4    4    0    0  0.55953741183E+01 -0.11545153880E+02  0.24153870913E+02  0.27349739848E+02  0.00000000000E+00 0.  1.
</event>
<event>
12    1  0.8271773E-002  0.1992678E+03  0.7818608E-02  0.1150360E+00
         21   -1    0    0  503  502  0.00000000000E+00  0.00000000000E+00  0.62095830746E+03  0.62095830746E+03  0.00000000000E+00 0.  1.
         21   -1    0    0  501  503 -0.00000000000E+00 -0.00000000000E+00 -0.83395161253E+02  0.83395161253E+02  0.00000000000E+00 0.  1.
          6    2    1    2  501    0 -0.27621439277E+01  0.10125473088E+03  0.98696332109E+02  0.22237048700E+03  0.17160279004E+03 0.  0.
         24    2    3    3    0    0 -0.18479785881E+02  0.81828605396E+02 -0.51360458383E+01  0.11547020014E+03  0.79180584781E+02 0.  0.
         -6    2    1    2    0  502  0.27621439277E+01 -0.10125473088E+03  0.43886681409E+03  0.48198298171E+03  0.17159068793E+03 0.  0.
        -24    2    5    5    0    0 -0.55173709639E+02 -0.10200794376E+03  0.29808167618E+03  0.32966858477E+03  0.79868211977E+02 0.  0.
          5    1    3    3  501    0  0.15717641953E+02  0.19426125481E+02  0.10383237795E+03  0.10690028686E+03  0.47000000000E+01 0. -1.
        -13    1    4    4    0    0 -0.21336095331E+02 -0.33208272192E+01 -0.19470949438E+02  0.29075328535E+02  0.00000000000E+00 0.  1.
         14    1    4    4    0    0  0.28563094502E+01  0.85149432615E+02  0.14334903600E+02  0.86394871604E+02  0.00000000000E+00 0. -1.
         -5    1    5    5    0  502  0.57935853567E+02  0.75321288832E+00  0.14078513792E+03  0.15231439694E+03  0.47000000000E+01 0.  1.
         11    1    6    6    0    0  0.18702376008E+02 -0.40625592136E+02  0.91016211541E+02  0.10141088880E+03  0.00000000000E+00 0. -1.
        -12    1    6    6    0    0 -0.73876085647E+02 -0.61382351628E+02  0.20706546464E+03  0.22825769597E+03  0.00000000000E+00 0.  1.
</event>
<event>
12    1  0.8271773E-002  0.2322964E+03  0.7818608E-02  0.1125035E+00
         21   -1    0    0  501  502  0.00000000000E+00  0.00000000000E+00  0.29797529808E+04  0.29797529808E+04  0.00000000000E+00 0.  1.
         21   -1    0    0  502  503 -0.00000000000E+00 -0.00000000000E+00 -0.18801819879E+02  0.18801819879E+02  0.00000000000E+00 0. -1.
         -6    2    1    2    0  503 -0.15649199732E+03 -0.13612413345E+02  0.17682951387E+04  0.17834879678E+04  0.17113325420E+03 0.  0.
        -24    2    3    3    0    0 -0.56264863842E+02  0.45571712758E+02  0.10945019172E+04  0.10996987938E+04  0.78488690443E+02 0.  0.
          6    2    1    2  501    0  0.15649199732E+03  0.13612413345E+02  0.11926560222E+04  0.12150668328E+04  0.17112562056E+03 0.  0.
         24    2    5    5    0    0  0.48350598917E+02  0.61864973888E+02  0.52690090221E+03  0.53884583242E+03  0.81026014078E+02 0.  0.
          5    1    5    5  501    0  0.10814139840E+03 -0.48252560543E+02  0.66575511997E+03  0.67622100042E+03  0.47000000000E+01 0. -1.
        -11    1    6    6    0    0  0.12035626531E+02  0.20756353384E+02  0.39847367523E+03  0.39919538119E+03  0.00000000000E+00 0.  1.
         12    1    6    6    0    0  0.36314972386E+02  0.41108620504E+02  0.12842722698E+03  0.13965045123E+03  0.00000000000E+00 0. -1.
         -5    1    3    3    0  503 -0.10022713348E+03 -0.59184126103E+02  0.67379322157E+03  0.68378917401E+03  0.47000000000E+01 0.  1.
         11    1    4    4    0    0 -0.10030230061E+02  0.98041031131E+01  0.25524419975E+02  0.29124250514E+02  0.00000000000E+00 0. -1.
        -12    1    4    4    0    0 -0.46234633782E+02  0.35767609645E+02  0.10689774972E+04  0.10705745433E+04  0.00000000000E+00 0.  1.
</event>
<event>
12    1  0.8271773E-002  0.1832226E+03  0.7818608E-02  0.1164791E+00
         21   -1    0    0  503  502  0.00000000000E+00  0.00000000000E+00  0.17525198182E+03  0.17525198182E+03  0.00000000000E+00 0.  1.
         21   -1    0    0  501  503 -0.00000000000E+00 -0.00000000000E+00 -0.19125254377E+03  0.19125254377E+03  0.00000000000E+00 0.  1.
          6    2    1    2  501    0  0.59469178227E+02 -0.17707399211E+02 -0.94040711864E+01  0.18346373664E+03  0.17239597142E+03 0.  0.
         24    2    3    3    0    0  0.41658562155E+02  0.56793153800E+02 -0.76826596150E+01  0.10670044006E+03  0.79781342000E+02 0.  0.
         -6    2    1    2    0  502 -0.59469178227E+02  0.17707399211E+02 -0.65964907600E+01  0.18304078894E+03  0.17207638298E+03 0.  0.
        -24    2    5    5    0    0 -0.29733821516E+02  0.67577272689E+02 -0.48156885390E+02  0.11148275570E+03  0.68253434219E+02 0.  0.
          5    1    3    3  501    0  0.17810616072E+02 -0.74500553011E+02 -0.17214115714E+01  0.76763296579E+02  0.47000000000E+01 0. -1.
        -11    1    4    4    0    0  0.38756408970E+02 -0.89822124860E+01  0.34244475216E+01  0.39930767814E+02  0.00000000000E+00 0.  1.
         12    1    4    4    0    0  0.29021531852E+01  0.65775366286E+02 -0.11107107137E+02  0.66769672248E+02  0.00000000000E+00 0. -1.
         -5    1    5    5    0  502 -0.29735356711E+02 -0.49869873478E+02  0.41560394630E+02  0.71558033241E+02  0.47000000000E+01 0.  1.
         11    1    6    6    0    0 -0.32020724475E+01  0.49146325759E+02  0.47643234259E+01  0.49480434328E+02  0.00000000000E+00 0. -1.
        -12    1    6    6    0    0 -0.26531749069E+02  0.18430946930E+02 -0.52921208816E+02  0.62002321375E+02  0.00000000000E+00 0.  1.
</event>
<event>
12    1  0.8271773E-002  0.1846170E+03  0.7818608E-02  0.1167427E+00
         21   -1    0    0  501  502  0.00000000000E+00  0.00000000000E+00  0.96811766446E+03  0.96811766446E+03  0.00000000000E+00 0.  1.
         21   -1    0    0  502  503 -0.00000000000E+00 -0.00000000000E+00 -0.45233606811E+02  0.45233606811E+02  0.00000000000E+00 0.  1.
         -6    2    1    2    0  503 -0.36437669445E+02  0.17234626541E+02  0.20443408826E+03  0.27545732444E+03  0.18016299576E+03 0.  0.
        -24    2    3    3    0    0 -0.46886603258E+02  0.20542757686E+02  0.22932631386E+03  0.24785593237E+03  0.78877414540E+02 0.  0.
          6    2    1    2  501    0  0.36437669445E+02 -0.17234626541E+02  0.71844996938E+03  0.73789394682E+03  0.16337803446E+03 0.  0.
         24    2    5    5    0    0 -0.11955232815E+02  0.21505217916E+02  0.58092614995E+03  0.58697165076E+03  0.80343793213E+02 0.  0.
          5    1    5    5  501    0  0.48392902260E+02 -0.38739844457E+02  0.13752381943E+03  0.15092229606E+03  0.47000000000E+01 0. -1.
        -11    1    6    6    0    0  0.31483169130E+02  0.24085991235E+02  0.23507991787E+03  0.23839860045E+03  0.00000000000E+00 0.  1.
         12    1    6    6    0    0 -0.43438401945E+02 -0.25807733190E+01  0.34584623208E+03  0.34857305031E+03  0.00000000000E+00 0. -1.
         -5    1    3    3    0  503  0.10448933813E+02 -0.33081311449E+01 -0.24892225595E+02  0.27601392077E+02  0.47000000000E+01 0.  1.
         11    1    4    4    0    0 -0.21003207904E+02  0.41201201739E+02  0.62357587180E+02  0.77634672962E+02  0.00000000000E+00 0. -1.
        -12    1    4    4    0    0 -0.25883395354E+02 -0.20658444053E+02  0.16696872668E+03  0.17022125941E+03  0.00000000000E+00 0.  1.
</event>
<event>
12    1  0.8271773E-002  0.1906375E+03  0.7818608E-02  0.1158683E+00
         21   -1    0    0  501  502  0.00000000000E+00  0.00000000000E+00  0.37841000486E+03  0.37841000486E+03  0.00000000000E+00 0. -1.
         21   -1    0    0  502  503 -0.00000000000E+00 -0.00000000000E+00 -0.17974930634E+03  0.17974930634E+03  0.00000000000E+00 0. -1.
         -6    2    1    2    0  503 -0.50495883250E+02 -0.57611797215E+02 -0.93590812311E+02  0.20922720842E+03  0.17072735923E+03 0.  0.
        -24    2    3    3    0    0  0.14504772726E+02  0.21224271161E+02 -0.25764461281E+02  0.86496956043E+02  0.78466921830E+02 0.  0.
          6    2    1    2  501    0  0.50495883250E+02  0.57611797215E+02  0.29225151083E+03  0.34893210278E+03  0.17456721733E+03 0.  0.
         24    2    5    5    0    0  0.49642763601E+02  0.70346828075E+01  0.28121512105E+03  0.29694494846E+03  0.81120079958E+02 0.  0.
          5    1    5    5  501    0  0.85311964873E+00  0.50577114407E+02  0.11036389788E+02  0.51987154322E+02  0.47000000000E+01 0. -1.
        -13    1    6    6    0    0  0.94243845187E+01  0.26806607411E+02  0.28349288551E+02  0.40138452708E+02  0.00000000000E+00 0.  1.
         14    1    6    6    0    0  0.40218379083E+02 -0.19771924603E+02  0.25286583249E+03  0.25680649575E+03  0.00000000000E+00 0. -1.
         -5    1    3    3    0  503 -0.65000655976E+02 -0.78836068376E+02 -0.67826351030E+02  0.12273025238E+03  0.47000000000E+01 0.  1.
         11    1    4    4    0    0 -0.20564251671E+02 -0.22574479405E+01  0.16729525066E+02  0.26605667196E+02  0.00000000000E+00 0. -1.
        -12    1    4    4    0    0  0.35069024397E+02  0.23481719101E+02 -0.42493986347E+02  0.59891288847E+02  0.00000000000E+00 0.  1.
</event>
<event>
12    1  0.8271773E-002  0.2313155E+03  0.7818608E-02  0.1126172E+00
         21   -1    0    0  501  502  0.00000000000E+00  0.00000000000E+00  0.18139889649E+03  0.18139889649E+03  0.00000000000E+00 0. -1.
         21   -1    0    0  502  503 -0.00000000000E+00 -0.00000000000E+00 -0.31507360174E+03  0.31507360174E+03  0.00000000000E+00 0. -1.
         -6    2    1    2    0  503  0.13373631336E+03 -0.73375277358E+02 -0.13413595273E+03  0.26515651401E+03  0.17042942900E+03 0.  0.
        -24    2    3    3    0    0  0.91456296608E+02 -0.55236834902E+01 -0.13961332671E+03  0.18488491111E+03  0.79345977150E+02 0.  0.
          6    2    1    2  501    0 -0.13373631336E+03  0.73375277358E+02  0.46124748705E+00  0.23131598422E+03  0.17388944467E+03 0.  0.
         24    2    5    5    0    0 -0.65672225301E+02  0.49795495578E+02 -0.65028979218E+02  0.13384913865E+03  0.83032470896E+02 0.  0.
          5    1    5    5  501    0 -0.68064088058E+02  0.23579781780E+02  0.65490226705E+02  0.97466845572E+02  0.47000000000E+01 0. -1.
        -13    1    6    6    0    0  0.17716054183E+02 -0.34183052050E+01 -0.90003970823E+01  0.20163098322E+02  0.00000000000E+00 0.  1.
         14    1    6    6    0    0 -0.83388279484E+02  0.53213800783E+02 -0.56028582135E+02  0.11368604033E+03  0.00000000000E+00 0. -1.
         -5    1    3    3    0  503  0.42280016751E+02 -0.67851593868E+02  0.54773739835E+01  0.80271602903E+02  0.47000000000E+01 0.  1.
         11    1    4    4    0    0  0.80040117064E+02 -0.20732896998E+02 -0.14336751893E+03  0.16550081221E+03  0.00000000000E+00 0. -1.
        -12    1    4    4    0    0  0.11416179545E+02  0.15209213508E+02  0.37541922146E+01  0.19384098899E+02  0.00000000000E+00 0.  1.
</event>
<event>
12    1  0.8271773E-002  0.1767640E+03  0.7818608E-02  0.1171660E+00
         21   -1    0    0  501  502  0.00000000000E+00  0.00000000000E+00  0.10883794438E+03  0.10883794438E+03  0.00000000000E+00 0. -1.
         21   -1    0    0  502  503 -0.00000000000E+00 -0.00000000000E+00 -0.29833702551E+03  0.29833702551E+03  0.00000000000E+00 0. -1.
         -6    2    1    2    0  503  0.35901675972E+01  0.33256266183E+02 -0.14076021977E+03  0.22381474568E+03  0.17076513804E+03 0.  0.
        -24    2    3    3    0    0 -0.54862000821E+02 -0.52358125597E+01 -0.11580186407E+03  0.14936136672E+03  0.76560389751E+02 0.  0.
          6    2    1    2  501    0 -0.35901675972E+01 -0.33256266183E+02 -0.48738861366E+02  0.18336022421E+03  0.17357023556E+03 0.  0.
         24    2    5    5    0    0 -0.31649009169E+02  0.39049273740E+02 -0.64601535081E+01  0.94901370319E+02  0.80237341333E+02 0.  0.
          5    1    5    5  501    0  0.28058841572E+02 -0.72305539923E+02 -0.42278707858E+02  0.88458853893E+02  0.47000000000E+01 0. -1.
        -11    1    6    6    0    0 -0.52373609689E+02  0.25332421618E+02 -0.25571359486E+02  0.63550145577E+02  0.00000000000E+00 0.  1.
         12    1    6    6    0    0  0.20724600520E+02  0.13716852122E+02  0.19111205978E+02  0.31351224742E+02  0.00000000000E+00 0. -1.
         -5    1    3    3    0  503  0.58452168419E+02  0.38492078742E+02 -0.24958355698E+02  0.74453378956E+02  0.47000000000E+01 0.  1.
         13    1    4    4    0    0  0.75348487446E+00  0.28392000246E+02 -0.45356982497E+02  0.53515691892E+02  0.00000000000E+00 0. -1.
        -14    1    4    4    0    0 -0.55615485696E+02 -0.33627812806E+02 -0.70444881576E+02  0.95845674830E+02  0.00000000000E+00 0.  1.
</event>
<event>
12    1  0.8271773E-002  0.1774013E+03  0.7818608E-02  0.1170800E+00
         21   -1    0    0  501  502  0.00000000000E+00  0.00000000000E+00  0.21182574380E+03  0.21182574380E+03  0.00000000000E+00 0.  1.
         21   -1    0    0  502  503 -0.00000000000E+00 -0.00000000000E+00 -0.14895651473E+03  0.14895651473E+03  0.00000000000E+00 0.  1.
         -6    2    1    2    0  503  0.32991621605E+02 -0.16799245421E+02  0.11079419289E+02  0.17774697346E+03  0.17349516218E+03 0.  0.
        -24    2    3    3    0    0  0.50192120171E+02  0.37444339833E+02 -0.31884096403E+02  0.10628945200E+03  0.79746626831E+02 0.  0.
          6    2    1    2  501    0 -0.32991621605E+02  0.16799245421E+02  0.51789809775E+02  0.18303528507E+03  0.17160731173E+03 0.  0.
         24    2    5    5    0    0  0.25083309112E+02 -0.39249004465E+02  0.42168573825E+02  0.10161807513E+03  0.79864809690E+02 0.  0.
          5    1    5    5  501    0 -0.58074930717E+02  0.56048249886E+02  0.96212359495E+01  0.81417209939E+02  0.47000000000E+01 0. -1.
        -13    1    6    6    0    0 -0.16416156506E+02 -0.65395224184E+01 -0.15425765752E+02  0.23456551258E+02  0.00000000000E+00 0.  1.
         14    1    6    6    0    0  0.41499465618E+02 -0.32709482047E+02  0.57594339577E+02  0.78161523870E+02  0.00000000000E+00 0. -1.
         -5    1    3    3    0  503 -0.17200498566E+02 -0.54243585254E+02  0.42963515692E+02  0.71457521457E+02  0.47000000000E+01 0.  1.
         11    1    4    4    0    0  0.20759197448E+02 -0.21652994774E+02 -0.26540517851E+02  0.40052410029E+02  0.00000000000E+00 0. -1.
        -12    1    4    4    0    0  0.29432922723E+02  0.59097334608E+02 -0.53435785522E+01  0.66237041974E+02  0.00000000000E+00 0.  1.
</event>
<event>
12    1  0.8271773E-002  0.2044784E+03  0.7818608E-02  0.1146467E+00
         21   -1    0    0  501  502  0.00000000000E+00  0.00000000000E+00  0.11341464079E+04  0.11341464079E+04  0.00000000000E+00 0.  1.
         21   -1    0    0  502  503 -0.00000000000E+00 -0.00000000000E+00 -0.45555198998E+02  0.45555198998E+02  0.00000000000E+00 0.  1.
         -6    2    1    2    0  503  0.33417312986E+02 -0.10369689052E+03  0.27856076331E+03  0.34426115336E+03  0.17044025622E+03 0.  0.
        -24    2    3    3    0    0  0.54337795618E+02 -0.24233319688E+02  0.22421823734E+03  0.24563394710E+03  0.80761180031E+02 0.  0.
          6    2    1    2  501    0 -0.33417312986E+02  0.10369689052E+03  0.81003044555E+03  0.83544045350E+03  0.17303660514E+03 0.  0.
         24    2    5    5    0    0  0.40234126502E+02  0.76546507711E+02  0.40177509750E+03  0.41968067065E+03  0.85032250166E+02 0.  0.
          5    1    5    5  501    0 -0.73651439488E+02  0.27150382813E+02  0.40825534805E+03  0.41575978286E+03  0.47000000000E+01 0. -1.
        -11    1    6    6    0    0  0.19066093729E+02  0.63445211279E+02  0.38250479198E+03  0.38819933880E+03  0.00000000000E+00 0.  1.
         12    1    6    6    0    0  0.21168032773E+02  0.13101296432E+02  0.19270305520E+02  0.31481331841E+02  0.00000000000E+00 0. -1.
         -5    1    3    3    0  503 -0.20920482632E+02 -0.79463570837E+02  0.54342525978E+02  0.98627206254E+02  0.47000000000E+01 0.  1.
         13    1    4    4    0    0  0.55341408219E+02 -0.47230160475E+02  0.19689376334E+03  0.20990596362E+03  0.00000000000E+00 0. -1.
        -14    1    4    4    0    0 -0.10036126008E+01  0.22996840788E+02  0.27324473995E+02  0.35727983480E+02  0.00000000000E+00 0.  1.
</event>
<event>
12    1  0.8271773E-002  0.1944395E+03  0.7818608E-02  0.1158805E+00
         21   -1    0    0  501  502  0.00000000000E+00  0.00000000000E+00  0.10820724607E+03  0.10820724607E+03  0.00000000000E+00 0. -1.
         21   -1    0    0  502  503 -0.00000000000E+00 -0.00000000000E+00 -0.35916655628E+03  0.35916655628E+03  0.00000000000E+00 0. -1.
         -6    2    1    2    0  503 -0.28640190067E+02 -0.24070090083E+02 -0.50871372731E+02  0.20098411154E+03  0.19080641185E+03 0.  0.
        -24    2    3    3    0    0 -0.73074046856E+02 -0.11017278862E+02  0.25716283007E+02  0.11135988199E+03  0.79236982201E+02 0.  0.
          6    2    1    2  501    0  0.28640190067E+02  0.24070090083E+02 -0.20008793748E+03  0.26638969082E+03  0.17183903783E+03 0.  0.
         24    2    5    5    0    0 -0.29605907534E+02  0.12700082909E+02 -0.38314279382E+02  0.94010192602E+02  0.79574684679E+02 0.  0.
          5    1    5    5  501    0  0.58246097601E+02  0.11370007174E+02 -0.16177365810E+03  0.17237949821E+03  0.47000000000E+01 0. -1.
        -13    1    6    6    0    0  0.23093645888E+02 -0.10860241975E+02 -0.15416178585E+01  0.25566343536E+02  0.00000000000E+00 0.  1.
         14    1    6    6    0    0 -0.52699553422E+02  0.23560324884E+02 -0.36772661523E+02  0.68443849067E+02  0.00000000000E+00 0. -1.
         -5    1    3    3    0  503  0.44433856790E+02 -0.13052811221E+02 -0.76587655738E+02  0.89624229545E+02  0.47000000000E+01 0.  1.
         11    1    4    4    0    0 -0.71700681735E+01  0.29525086658E+02  0.20795990100E+01  0.30454315816E+02  0.00000000000E+00 0. -1.
        -12    1    4    4    0    0 -0.65903978683E+02 -0.40542365519E+02  0.23636683997E+02  0.80905566178E+02  0.00000000000E+00 0.  1.
</event>
<event>
12    1  0.8271773E-002  0.1844323E+03  0.7818608E-02  0.1163846E+00
         21   -1    0    0  503  502  0.00000000000E+00  0.00000000000E+00  0.40278501466E+03  0.40278501466E+03  0.00000000000E+00 0.  1.
         21   -1    0    0  501  503 -0.00000000000E+00 -0.00000000000E+00 -0.89660762529E+02  0.89660762529E+02  0.00000000000E+00 0.  1.
          6    2    1    2  501    0 -0.63791531978E+02 -0.11122914117E+02  0.93894836789E+02  0.20595526747E+03  0.17148834669E+03 0.  0.
         24    2    3    3    0    0 -0.21614602463E+02  0.21755746373E+02 -0.11777351542E+02  0.87428472668E+02  0.81021776602E+02 0.  0.
         -6    2    1    2    0  502  0.63791531978E+02  0.11122914117E+02  0.21922941535E+03  0.28649050972E+03  0.17269104447E+03 0.  0.
        -24    2    5    5    0    0 -0.71455276605E+01  0.50093773478E+01  0.19651139507E+03  0.21160633111E+03  0.78002298340E+02 0.  0.
          5    1    3    3  501    0 -0.42176929514E+02 -0.32878660490E+02  0.10567218833E+03  0.11852679480E+03  0.47000000000E+01 0. -1.
        -11    1    4    4    0    0 -0.15339919409E+02  0.33052673972E+02  0.27775714621E+02  0.45817929971E+02  0.00000000000E+00 0.  1.
         12    1    4    4    0    0 -0.62746830540E+01 -0.11296927598E+02 -0.39553066163E+02  0.41610542697E+02  0.00000000000E+00 0. -1.
         -5    1    5    5    0  502  0.70937059638E+02  0.61135367692E+01  0.22718020279E+02  0.74884178618E+02  0.47000000000E+01 0.  1.
         11    1    6    6    0    0 -0.32282417384E+02 -0.68943081846E+01  0.36571750623E+02  0.49266407431E+02  0.00000000000E+00 0. -1.
        -12    1    6    6    0    0  0.25136889724E+02  0.11903685532E+02  0.15993964444E+03  0.16233992368E+03  0.00000000000E+00 0.  1.
</event>
<event>
12    1  0.8271773E-002  0.1897714E+03  0.7818608E-02  0.1159207E+00
         21   -1    0    0  503  502  0.00000000000E+00  0.00000000000E+00  0.17328980346E+03  0.17328980346E+03  0.00000000000E+00 0.  1.
         21   -1    0    0  501  503 -0.00000000000E+00 -0.00000000000E+00 -0.75356617162E+03  0.75356617162E+03  0.00000000000E+00 0.  1.
          6    2    1    2  501    0  0.74057727607E+02 -0.28229874243E+02 -0.68495498180E+03  0.71012851500E+03  0.16981668912E+03 0.  0.
         24    2    3    3    0    0  0.19902041084E+02  0.43833682395E+02 -0.44838394227E+03  0.45692120602E+03  0.73561850635E+02 0.  0.
         -6    2    1    2    0  502 -0.74057727607E+02  0.28229874243E+02  0.10467861364E+03  0.21672746008E+03  0.17242884614E+03 0.  0.
        -24    2    5    5    0    0 -0.46700878698E+02  0.38555327588E+02 -0.56888038928E+01  0.10245555180E+03  0.82445692716E+02 0.  0.
          5    1    3    3  501    0  0.54155686523E+02 -0.72063556638E+02 -0.23657103953E+03  0.25320730898E+03  0.47000000000E+01 0. -1.
        -13    1    4    4    0    0 -0.35069448295E-01 -0.20519889156E+02 -0.10035326366E+03  0.10242970569E+03  0.00000000000E+00 0.  1.
         14    1    4    4    0    0  0.19937110533E+02  0.64353571551E+02 -0.34803067862E+03  0.35449150033E+03  0.00000000000E+00 0. -1.
         -5    1    5    5    0  502 -0.27356848909E+02 -0.10325453345E+02  0.11036741754E+03  0.11427190828E+03  0.47000000000E+01 0.  1.
         11    1    6    6    0    0  0.22846997706E+02  0.17855564673E+02 -0.71986200059E+01  0.29876857665E+02  0.00000000000E+00 0. -1.
        -12    1    6    6    0    0 -0.69547876404E+02  0.20699762915E+02  0.15098161131E+01  0.72578694131E+02  0.00000000000E+00 0.  1.
</event>
<event>
12    1  0.8271773E-002  0.2137658E+03  0.7818608E-02  0.1138631E+00
         21   -1    0    0  501  502  0.00000000000E+00  0.00000000000E+00  0.90776158567E+02  0.90776158567E+02  0.00000000000E+00 0. -1.
         21   -1    0    0  502  503 -0.00000000000E+00 -0.00000000000E+00 -0.11562146220E+04  0.11562146220E+04  0.00000000000E+00 0.  1.
         -6    2    1    2    0  503 -0.10548916709E+03  0.67605706345E+02 -0.10012421897E+04  0.10237935720E+04  0.17311516306E+03 0.  0.
        -24    2    3    3    0    0 -0.29345193565E+01  0.25316162333E+02 -0.65344955785E+03  0.65870773813E+03  0.79057195378E+02 0.  0.
          6    2    1    2  501    0  0.10548916709E+03 -0.67605706345E+02 -0.64196273670E+02  0.22319720853E+03  0.17319739154E+03 0.  0.
         24    2    5    5    0    0  0.27148179265E+02 -0.38892459421E+02  0.30995596379E+02  0.96526994799E+02  0.78147851492E+02 0.  0.
          5    1    5    5  501    0  0.78340987828E+02 -0.28713246924E+02 -0.95191870049E+02  0.12667021373E+03  0.47000000000E+01 0. -1.
        -13    1    6    6    0    0  0.38099554371E+02  0.11505887398E+02  0.14947663891E+02  0.42513458385E+02  0.00000000000E+00 0.  1.
         14    1    6    6    0    0 -0.10951375106E+02 -0.50398346819E+02  0.16047932487E+02  0.54013536414E+02  0.00000000000E+00 0. -1.
         -5    1    3    3    0  503 -0.10255464774E+03  0.42289544012E+02 -0.34779263187E+03  0.36508583386E+03  0.47000000000E+01 0.  1.
         11    1    4    4    0    0 -0.23649264106E+02  0.41472823785E+02 -0.25755207434E+03  0.26193959953E+03  0.00000000000E+00 0. -1.
        -12    1    4    4    0    0  0.20714744749E+02 -0.16156661452E+02 -0.39589748351E+03  0.39676813860E+03  0.00000000000E+00 0.  1.
</event>
<event>
12    1  0.8271773E-002  0.4336832E+03  0.7818608E-02  0.1032844E+00
         21   -1    0    0  503  502  0.00000000000E+00  0.00000000000E+00  0.13865794284E+04  0.13865794284E+04  0.00000000000E+00 0.  1.
         21   -1    0    0  501  503 -0.00000000000E+00 -0.00000000000E+00 -0.16059046005E+03  0.16059046005E+03  0.00000000000E+00 0. -1.
          6    2    1    2  501    0  0.39197613318E+03 -0.60973092046E+02  0.30360778841E+03  0.52792105114E+03  0.17076281830E+03 0.  0.
         24    2    3    3    0    0  0.28474806110E+03 -0.80213514691E+02  0.28262251592E+03  0.41687815417E+03  0.79976513288E+02 0.  0.
         -6    2    1    2    0  502 -0.39197613318E+03  0.60973092046E+02  0.92238117990E+03  0.10192488373E+04  0.17526592460E+03 0.  0.
        -24    2    5    5    0    0 -0.21222193257E+03  0.98635453661E+02  0.58690596438E+03  0.63676258086E+03  0.78999189738E+02 0.  0.
          5    1    3    3  501    0  0.10722807208E+03  0.19240422646E+02  0.20985272491E+02  0.11104289697E+03  0.47000000000E+01 0. -1.
        -13    1    4    4    0    0  0.49996940035E+02  0.14947336835E+02  0.36412008256E+02  0.63631369910E+02  0.00000000000E+00 0.  1.
         14    1    4    4    0    0  0.23475112106E+03 -0.95160851526E+02  0.24621050767E+03  0.35324678426E+03  0.00000000000E+00 0. -1.
         -5    1    5    5    0  502 -0.17975420061E+03 -0.37662361616E+02  0.33547521552E+03  0.38248625641E+03  0.47000000000E+01 0.  1.
         11    1    6    6    0    0 -0.12822045341E+03  0.99211911657E+02  0.41130248202E+03  0.44210091586E+03  0.00000000000E+00 0. -1.
        -12    1    6    6    0    0 -0.84001479164E+02 -0.57645799586E+00  0.17560348236E+03  0.19466166500E+03  0.00000000000E+00 0.  1.
</event>
<event>
12    1  0.8271773E-002  0.2207505E+03  0.7818608E-02  0.1133475E+00
         21   -1    0    0  501  502  0.00000000000E+00  0.00000000000E+00  0.18998912016E+03  0.18998912016E+03  0.00000000000E+00 0.  1.
         21   -1    0    0  502  503 -0.00000000000E+00 -0.00000000000E+00 -0.25793016699E+03  0.25793016699E+03  0.00000000000E+00 0. -1.
         -6    2    1    2    0  503  0.78424320358E+02  0.11291250136E+03 -0.12423253054E+02  0.22029456652E+03  0.17168503672E+03 0.  0.
        -24    2    3    3    0    0  0.64525881797E+02  0.14817284047E+03 -0.16698808220E+02  0.18186504037E+03  0.81714519140E+02 0.  0.
          6    2    1    2  501    0 -0.78424320358E+02 -0.11291250136E+03 -0.55517793779E+02  0.22762472063E+03  0.17271705482E+03 0.  0.
         24    2    5    5    0    0 -0.22669508942E+02 -0.19520923793E+02  0.27924295657E+02  0.90455999534E+02  0.80669377476E+02 0.  0.
          5    1    5    5  501    0 -0.55754811417E+02 -0.93391577568E+02 -0.83442089436E+02  0.13716872109E+03  0.47000000000E+01 0. -1.
        -11    1    6    6    0    0 -0.52137625060E+02 -0.19179797572E+02  0.11546692401E+02  0.56740837914E+02  0.00000000000E+00 0.  1.
         12    1    6    6    0    0  0.29468116118E+02 -0.34112622089E+00  0.16377603257E+02  0.33715161620E+02  0.00000000000E+00 0. -1.
         -5    1    3    3    0  503  0.13898438561E+02 -0.35260339104E+02  0.42755551651E+01  0.38429526150E+02  0.47000000000E+01 0.  1.
         11    1    4    4    0    0  0.38903778131E+02  0.91209799291E+02  0.30312653713E+02  0.10368986650E+03  0.00000000000E+00 0. -1.
        -12    1    4    4    0    0  0.25622103666E+02  0.56963041175E+02 -0.47011461933E+02  0.78175173867E+02  0.00000000000E+00 0.  1.
</event>
<event>
12    1  0.8271773E-002  0.2282777E+03  0.7818608E-02  0.1128133E+00
         21   -1    0    0  501  502  0.00000000000E+00  0.00000000000E+00  0.19311245187E+03  0.19311245187E+03  0.00000000000E+00 0.  1.
         21   -1    0    0  502  503 -0.00000000000E+00 -0.00000000000E+00 -0.27965846290E+03  0.27965846290E+03  0.00000000000E+00 0.  1.
         -6    2    1    2    0  503  0.13287213974E+03  0.68455985402E+02  0.47977843991E+01  0.22832814454E+03  0.17253838818E+03 0.  0.
        -24    2    3    3    0    0  0.42973075915E+02  0.98855891293E+02 -0.44024740089E+01  0.13286752067E+03  0.77557873704E+02 0.  0.
          6    2    1    2  501    0 -0.13287213974E+03 -0.68455985402E+02 -0.91343795434E+02  0.24444277023E+03  0.17049149978E+03 0.  0.
         24    2    5    5    0    0 -0.13057220597E+03 -0.35645548038E+02 -0.13127541689E+02  0.15946226161E+03  0.83283698646E+02 0.  0.
          5    1    5    5  501    0 -0.22999337743E+01 -0.32810437364E+02 -0.78216253745E+02  0.84980508620E+02  0.47000000000E+01 0. -1.
        -11    1    6    6    0    0 -0.22449736805E+02  0.25207978197E+02  0.48269296833E+01  0.34098857716E+02  0.00000000000E+00 0.  1.
         12    1    6    6    0    0 -0.10812246917E+03 -0.60853526235E+02 -0.17954471372E+02  0.12536340389E+03  0.00000000000E+00 0. -1.
         -5    1    3    3    0  503  0.89899063829E+02 -0.30399905891E+02  0.92002584080E+01  0.95460623874E+02  0.47000000000E+01 0.  1.
         11    1    4    4    0    0 -0.12300333428E+01  0.13894050578E+02 -0.30555017923E+02  0.33588193518E+02  0.00000000000E+00 0. -1.
        -12    1    4    4    0    0  0.44203109258E+02  0.84961840715E+02  0.26152543914E+02  0.99279327148E+02  0.00000000000E+00 0.  1.
</event>
<event>
12    1  0.8271773E-002  0.3740834E+03  0.7818608E-02  0.1053309E+00
         21   -1    0    0  501  502  0.00000000000E+00  0.00000000000E+00  0.74820550418E+03  0.74820550418E+03  0.00000000000E+00 0.  1.
         21   -1    0    0  502  503 -0.00000000000E+00 -0.00000000000E+00 -0.32181902914E+03  0.32181902914E+03  0.00000000000E+00 0.  1.
         -6    2    1    2    0  503  0.29693799402E+03  0.14435585405E+03 -0.13447035577E+03  0.39585926335E+03  0.17207990849E+03 0.  0.
        -24    2    3    3    0    0  0.93934126139E+02  0.76240191064E+00 -0.53478139300E+02  0.13430338213E+03  0.79707501261E+02 0.  0.
          6    2    1    2  501    0 -0.29693799402E+03 -0.14435585405E+03  0.56085683081E+03  0.67416526996E+03  0.17586256470E+03 0.  0.
         24    2    5    5    0    0 -0.69501490776E+02 -0.60756261957E+02  0.12275933972E+03  0.17349795876E+03  0.80683986132E+02 0.  0.
          5    1    5    5  501    0 -0.22743650325E+03 -0.83599592093E+02  0.43809749109E+03  0.50066731120E+03  0.47000000000E+01 0. -1.
        -11    1    6    6    0    0 -0.39606233861E+02 -0.78224688918E+02  0.82415796020E+02  0.12033336674E+03  0.00000000000E+00 0.  1.
         12    1    6    6    0    0 -0.29895256915E+02  0.17468426961E+02  0.40343543702E+02  0.53164592023E+02  0.00000000000E+00 0. -1.
         -5    1    3    3    0  503  0.20300386788E+03  0.14359345214E+03 -0.80992216474E+02  0.26155588122E+03  0.47000000000E+01 0.  1.
         13    1    4    4    0    0  0.22472323615E+02 -0.31720287906E+02  0.77490826038E+00  0.38881647037E+02  0.00000000000E+00 0. -1.
        -14    1    4    4    0    0  0.71461802524E+02  0.32482689817E+02 -0.54253047561E+02  0.95421735089E+02  0.00000000000E+00 0.  1.
</event>
<event>
12    1  0.8271773E-002  0.1820662E+03  0.7818608E-02  0.1165839E+00
         21   -1    0    0  501  502  0.00000000000E+00  0.00000000000E+00  0.26142116799E+02  0.26142116799E+02  0.00000000000E+00 0.  1.
         21   -1    0    0  502  503 -0.00000000000E+00 -0.00000000000E+00 -0.12943342735E+04  0.12943342735E+04  0.00000000000E+00 0.  1.
         -6    2    1    2    0  503  0.32454375205E+02 -0.50488063734E+02 -0.53867497361E+03  0.56858316821E+03  0.17179569531E+03 0.  0.
        -24    2    3    3    0    0  0.50229323522E+02 -0.62723919690E+02 -0.53436995653E+03  0.54608232088E+03  0.78723412594E+02 0.  0.
          6    2    1    2  501    0 -0.32454375205E+02  0.50488063734E+02 -0.72951718313E+03  0.75189322213E+03  0.17188881858E+03 0.  0.
         24    2    5    5    0    0 -0.29315425989E+02 -0.37244148438E+02 -0.32435018121E+03  0.33729801774E+03  0.79500892629E+02 0.  0.
          5    1    5    5  501    0 -0.31389492163E+01  0.87732212172E+02 -0.40516700192E+03  0.41459520438E+03  0.47000000000E+01 0. -1.
        -11    1    6    6    0    0 -0.30107621475E+02 -0.60645451279E+02 -0.26455626354E+03  0.27308305734E+03  0.00000000000E+00 0.  1.
         12    1    6    6    0    0  0.79219548600E+00  0.23401302842E+02 -0.59793917676E+02  0.64214960402E+02  0.00000000000E+00 0. -1.
         -5    1    3    3    0  503 -0.17774948318E+02  0.12235855955E+02 -0.43050170815E+01  0.22500847333E+02  0.47000000000E+01 0.  1.
         11    1    4    4    0    0 -0.81711957409E+01 -0.44724950771E+02 -0.31851100791E+03  0.32173957142E+03  0.00000000000E+00 0. -1.
        -12    1    4    4    0    0  0.58400519263E+02 -0.17998968919E+02 -0.21585894862E+03  0.22434274946E+03  0.00000000000E+00 0.  1.
</event>
<event>
12    1  0.8271773E-002  0.1861564E+03  0.7818608E-02  0.1162845E+00
         21   -1    0    0  501  502  0.00000000000E+00  0.00000000000E+00  0.11028321646E+03  0.11028321646E+03  0.00000000000E+00 0. -1.
         21   -1    0    0  502  503 -0.00000000000E+00 -0.00000000000E+00 -0.14485533081E+04  0.14485533081E+04  0.00000000000E+00 0. -1.
         -6    2    1    2    0  503  0.60741861267E+02  0.18776963308E+01 -0.13593069965E+04  0.13714952764E+04  0.17201942590E+03 0.  0.
        -24    2    3    3    0    0  0.63557311333E+02 -0.58888365344E+02 -0.10200530991E+04  0.10267986882E+04  0.79371592137E+02 0.  0.
          6    2    1    2  501    0 -0.60741861267E+02 -0.18776963308E+01  0.21036904867E+02  0.18734124819E+03  0.17595764392E+03 0.  0.
         24    2    5    5    0    0  0.28543323025E+02  0.15382238837E+02 -0.19123570084E+02  0.87818872593E+02  0.79341722252E+02 0.  0.
          5    1    5    5  501    0 -0.89285184292E+02 -0.17259935167E+02  0.40160474951E+02  0.99522375596E+02  0.47000000000E+01 0. -1.
        -13    1    6    6    0    0  0.14247148025E+02 -0.21919222701E+02 -0.35968474886E+02  0.44465320602E+02  0.00000000000E+00 0.  1.
         14    1    6    6    0    0  0.14296175000E+02  0.37301461538E+02  0.16844904802E+02  0.43353551991E+02  0.00000000000E+00 0. -1.
         -5    1    3    3    0  503 -0.28154500665E+01  0.60766061675E+02 -0.33925389741E+03  0.34469658820E+03  0.47000000000E+01 0.  1.
         11    1    4    4    0    0  0.40010674441E+01 -0.25245182392E+02 -0.64838809276E+03  0.64889170638E+03  0.00000000000E+00 0. -1.
        -12    1    4    4    0    0  0.59556243889E+02 -0.33643182953E+02 -0.37166500635E+03  0.37790698180E+03  0.00000000000E+00 0.  1.
</event>
<event>
12    1  0.8271773E-002  0.1895191E+03  0.7818608E-02  0.1159988E+00
         21   -1    0    0  503  502  0.00000000000E+00  0.00000000000E+00  0.10084532731E+04  0.10084532731E+04  0.00000000000E+00 0. -1.
         21   -1    0    0  501  503 -0.00000000000E+00 -0.00000000000E+00 -0.38509723943E+02  0.38509723943E+02  0.00000000000E+00 0. -1.
          6    2    1    2  501    0  0.36512850434E+02 -0.71046201720E+02  0.65457867445E+03  0.68146219041E+03  0.17186251739E+03 0.  0.
         24    2    3    3    0    0  0.58460699769E+01 -0.10245055153E+03  0.58753591566E+03  0.60119073772E+03  0.75508667631E+02 0.  0.
         -6    2    1    2    0  502 -0.36512850434E+02  0.71046201720E+02  0.31536487468E+03  0.36550080661E+03  0.16659857269E+03 0.  0.
        -24    2    5    5    0    0 -0.65461521608E+02  0.99643208900E+02  0.26090318377E+03  0.29735405203E+03  0.78326119963E+02 0.  0.
          5    1    3    3  501    0  0.30666780457E+02  0.31404349809E+02  0.67042758799E+02  0.80271452696E+02  0.47000000000E+01 0. -1.
        -13    1    4    4    0    0 -0.89116906369E+01  0.10179932111E+02  0.51189728527E+02  0.52947498094E+02  0.00000000000E+00 0.  1.
         14    1    4    4    0    0  0.14757760614E+02 -0.11263048364E+03  0.53634618713E+03  0.54824323962E+03  0.00000000000E+00 0. -1.
         -5    1    5    5    0  502  0.28948671174E+02 -0.28597007180E+02  0.54461690917E+02  0.68146754581E+02  0.47000000000E+01 0.  1.
         11    1    6    6    0    0 -0.29910013971E+02  0.73239335198E+01  0.12812682842E+03  0.13177531293E+03  0.00000000000E+00 0. -1.
        -12    1    6    6    0    0 -0.35551507637E+02  0.92319275380E+02  0.13277635535E+03  0.16557873910E+03  0.00000000000E+00 0.  1.
</event>
<event>
12    1  0.8271773E-002  0.1947489E+03  0.7818608E-02  0.1154517E+00
         21   -1    0    0  503  502  0.00000000000E+00  0.00000000000E+00  0.40629790474E+03  0.40629790474E+03  0.00000000000E+00 0. -1.
         21   -1    0    0  501  503 -0.00000000000E+00 -0.00000000000E+00 -0.96421922747E+02  0.96421922747E+02  0.00000000000E+00 0. -1.
          6    2    1    2  501    0 -0.54249393185E+02  0.69757980475E+02  0.10641493627E+03  0.22192626972E+03  0.17354526219E+03 0.  0.
         24    2    3    3    0    0 -0.16783330899E+02  0.10721760905E+03  0.48468215349E+02  0.14326978835E+03  0.79998552914E+02 0.  0.
         -6    2    1    2    0  502  0.54249393185E+02 -0.69757980475E+02  0.20346104572E+03  0.28079355777E+03  0.17216112353E+03 0.  0.
        -24    2    5    5    0    0  0.10000300392E+03 -0.69280488149E+02  0.13144982621E+03  0.19534575715E+03  0.77977696785E+02 0.  0.
          5    1    3    3  501    0 -0.37466062285E+02 -0.37459628572E+02  0.57946720918E+02  0.78656481367E+02  0.47000000000E+01 0. -1.
        -11    1    4    4    0    0 -0.33415994268E+02  0.35047243429E+02 -0.93407676333E+01  0.49317216922E+02  0.00000000000E+00 0.  1.
         12    1    4    4    0    0  0.16632663369E+02  0.72170365618E+02  0.57808982982E+02  0.93952571426E+02  0.00000000000E+00 0. -1.
         -5    1    5    5    0  502 -0.45753610735E+02 -0.47749232608E+00  0.72011219514E+02  0.85447800616E+02  0.47000000000E+01 0.  1.
         13    1    6    6    0    0  0.35042546449E+02 -0.53206161450E+02  0.22655367575E+02  0.67617611300E+02  0.00000000000E+00 0. -1.
        -14    1    6    6    0    0  0.64960457470E+02 -0.16074326699E+02  0.10879445863E+03  0.12772814585E+03  0.00000000000E+00 0.  1.
</event>
<event>
12    1  0.8271773E-002  0.2437026E+03  0.7818608E-02  0.1118118E+00
         21   -1    0    0  501  502  0.00000000000E+00  0.00000000000E+00  0.55549170626E+02  0.55549170626E+02  0.00000000000E+00 0.  1.
         21   -1    0    0  502  503 -0.00000000000E+00 -0.00000000000E+00 -0.10930549217E+04  0.10930549217E+04  0.00000000000E+00 0.  1.
         -6    2    1    2    0  503  0.15464509312E+03 -0.73774058849E+02 -0.62944600309E+03  0.67331079430E+03  0.16669564579E+03 0.  0.
        -24    2    3    3    0    0  0.86037276197E+02 -0.96026719777E+02 -0.29946423104E+03  0.33550571241E+03  0.79130990023E+02 0.  0.
          6    2    1    2  501    0 -0.15464509312E+03  0.73774058849E+02 -0.40805974796E+03  0.47529329801E+03  0.17330102320E+03 0.  0.
         24    2    5    5    0    0 -0.18362106350E+03  0.75555786299E+02 -0.38503122796E+03  0.43794113413E+03  0.64171790210E+02 0.  0.
          5    1    5    5  501    0  0.28975970388E+02 -0.17817274499E+01 -0.23028520006E+02  0.37352163877E+02  0.47000000000E+01 0. -1.
        -11    1    6    6    0    0 -0.80870123341E+02  0.67895010859E+02 -0.19046897203E+03  0.21778002355E+03  0.00000000000E+00 0.  1.
         12    1    6    6    0    0 -0.10275094016E+03  0.76607754401E+01 -0.19456225592E+03  0.22016111059E+03  0.00000000000E+00 0. -1.
         -5    1    3    3    0  503  0.68607816919E+02  0.22252660928E+02 -0.32998177206E+03  0.33780508189E+03  0.47000000000E+01 0.  1.
         11    1    4    4    0    0 -0.61120017380E+00 -0.19518832599E+02 -0.12308219526E+03  0.12462176849E+03  0.00000000000E+00 0. -1.
        -12    1    4    4    0    0  0.86648476370E+02 -0.76507887178E+02 -0.17638203577E+03  0.21088394392E+03  0.00000000000E+00 0.  1.
</event>
<event>
12    1  0.8271773E-002  0.2621063E+03  0.7818608E-02  0.1106253E+00
         21   -1    0    0  503  502  0.00000000000E+00  0.00000000000E+00  0.10450766138E+04  0.10450766138E+04  0.00000000000E+00 0.  1.
         21   -1    0    0  501  503 -0.00000000000E+00 -0.00000000000E+00 -0.77613850523E+02  0.77613850523E+02  0.00000000000E+00 0. -1.
          6    2    1    2  501    0 -0.41157790476E+02  0.18983411975E+03  0.25658965040E+03  0.36503600902E+03  0.17228488748E+03 0.  0.
         24    2    3    3    0    0 -0.60731882068E+02  0.15556443155E+03  0.11460217931E+03  0.21759080382E+03  0.79520088907E+02 0.  0.
         -6    2    1    2    0  502  0.41157790476E+02 -0.18983411975E+03  0.71087311286E+03  0.75765445529E+03  0.17597935757E+03 0.  0.
        -24    2    5    5    0    0  0.62881912729E+02 -0.11598273889E+03  0.61608102712E+03  0.63545137242E+03  0.82683033748E+02 0.  0.
          5    1    3    3  501    0  0.19574091591E+02  0.34269688193E+02  0.14198747109E+03  0.14744520520E+03  0.47000000000E+01 0. -1.
        -11    1    4    4    0    0 -0.14781524612E+02  0.34065071017E+01  0.38471831007E+02  0.41354317084E+02  0.00000000000E+00 0.  1.
         12    1    4    4    0    0 -0.45950357456E+02  0.15215792445E+03  0.76130348302E+02  0.17623648673E+03  0.00000000000E+00 0. -1.
         -5    1    5    5    0  502 -0.21724122253E+02 -0.73851380857E+02  0.94792085746E+02  0.12220308287E+03  0.47000000000E+01 0.  1.
         13    1    6    6    0    0 -0.20495408823E+02 -0.22604884327E+02  0.12224030896E+03  0.12599101441E+03  0.00000000000E+00 0. -1.
        -14    1    6    6    0    0  0.83377321552E+02 -0.93377854561E+02  0.49384071816E+03  0.50946035801E+03  0.00000000000E+00 0.  1.
</event>
<event>
12    1  0.8271773E-002  0.1876534E+03  0.7818608E-02  0.1161154E+00
         21   -1    0    0  503  502  0.00000000000E+00  0.00000000000E+00  0.17153756712E+03  0.17153756712E+03  0.00000000000E+00 0. -1.
         21   -1    0    0  501  503 -0.00000000000E+00 -0.00000000000E+00 -0.21132026804E+03  0.21132026804E+03  0.00000000000E+00 0. -1.
          6    2    1    2  501    0  0.67210292642E+02  0.15887640043E+02 -0.58808676663E+02  0.19665267168E+03  0.17448258447E+03 0.  0.
         24    2    3    3    0    0  0.53462132330E+02 -0.14167697151E+02  0.34517572321E+02  0.97535498821E+02  0.72545072166E+02 0.  0.
         -6    2    1    2    0  502 -0.67210292642E+02 -0.15887640043E+02  0.19025975744E+02  0.18620516348E+03  0.17187418251E+03 0.  0.
        -24    2    5    5    0    0 -0.92458841506E+02 -0.53150111470E+02  0.35653432920E+02  0.13799164537E+03  0.79980967683E+02 0.  0.
          5    1    3    3  501    0  0.13748160312E+02  0.30055337194E+02 -0.93326248984E+02  0.99117172857E+02  0.47000000000E+01 0. -1.
        -11    1    4    4    0    0 -0.72688998724E+01 -0.12122187568E+02  0.33941863720E+02  0.36767301364E+02  0.00000000000E+00 0.  1.
         12    1    4    4    0    0  0.60731032203E+02 -0.20455095824E+01  0.57570860085E+00  0.60768197458E+02  0.00000000000E+00 0. -1.
         -5    1    5    5    0  502  0.25248548864E+02  0.37262471427E+02 -0.16627457176E+02  0.48213518112E+02  0.47000000000E+01 0.  1.
         13    1    6    6    0    0 -0.10607532118E+03 -0.44145117793E+02  0.22615081028E+02  0.11709913355E+03  0.00000000000E+00 0. -1.
        -14    1    6    6    0    0  0.13616479679E+02 -0.90049936774E+01  0.13038351892E+02  0.20892511817E+02  0.00000000000E+00 0.  1.
</event>
<event>
12    1  0.8271773E-002  0.2022790E+03  0.7818608E-02  0.1147883E+00
         21   -1    0    0  503  502  0.00000000000E+00  0.00000000000E+00  0.40480795443E+02  0.40480795443E+02  0.00000000000E+00 0. -1.
         21   -1    0    0  501  503 -0.00000000000E+00 -0.00000000000E+00 -0.10194099275E+04  0.10194099275E+04  0.00000000000E+00 0. -1.
          6    2    1    2  501    0 -0.93678629778E+02 -0.46158785109E+02 -0.54198208584E+03  0.57849925075E+03  0.17323533886E+03 0.  0.
         24    2    3    3    0    0 -0.74288118401E+02 -0.57101331176E+02 -0.19378722843E+03  0.22956160593E+03  0.79785678274E+02 0.  0.
         -6    2    1    2    0  502  0.93678629778E+02  0.46158785109E+02 -0.43694704617E+03  0.48139147214E+03  0.17294134606E+03 0.  0.
        -24    2    5    5    0    0  0.11232306051E+03  0.75891297165E+02 -0.37542579345E+03  0.41040843468E+03  0.95470403619E+02 0.  0.
          5    1    3    3  501    0 -0.19390511377E+02  0.10942546068E+02 -0.34819485741E+03  0.34893764482E+03  0.47000000000E+01 0. -1.
        -11    1    4    4    0    0  0.66260125675E+01 -0.26941093510E+02 -0.91936213613E+02  0.96031213340E+02  0.00000000000E+00 0.  1.
         12    1    4    4    0    0 -0.80914130968E+02 -0.30160237667E+02 -0.10185101482E+03  0.13353039259E+03  0.00000000000E+00 0. -1.
         -5    1    5    5    0  502 -0.18644430730E+02 -0.29732512056E+02 -0.61521252723E+02  0.70983037460E+02  0.47000000000E+01 0.  1.
         11    1    6    6    0    0  0.31721589442E+02  0.39688726189E+02 -0.43381000513E+02  0.66808423337E+02  0.00000000000E+00 0. -1.
        -12    1    6    6    0    0  0.80601471066E+02  0.36202570976E+02 -0.33204479293E+03  0.34360001135E+03  0.00000000000E+00 0.  1.
</event>
<event>
12    1  0.8271773E-002  0.2084830E+03  0.7818608E-02  0.1142986E+00
         21   -1    0    0  501  502  0.00000000000E+00  0.00000000000E+00  0.35931758370E+03  0.35931758370E+03  0.00000000000E+00 0.  1.
         21   -1    0    0  502  503 -0.00000000000E+00 -0.00000000000E+00 -0.12856662577E+03  0.12856662577E+03  0.00000000000E+00 0.  1.
         -6    2    1    2    0  503 -0.96732803253E+02 -0.64035708124E+02  0.53985787038E+02  0.21535925016E+03  0.17322625173E+03 0.  0.
        -24    2    3    3    0    0 -0.92904422406E+02 -0.13703196673E+02  0.90674840131E+02  0.15277974213E+03  0.79377034908E+02 0.  0.
          6    2    1    2  501    0  0.96732803253E+02  0.64035708124E+02  0.17676517089E+03  0.27252495931E+03  0.17194801734E+03 0.  0.
         24    2    5    5    0    0  0.37411770196E+02  0.10155920394E+03  0.13695630456E+03  0.19169282745E+03  0.79216149134E+02 0.  0.
          5    1    5    5  501    0  0.59321033057E+02 -0.37523495820E+02  0.39808866330E+02  0.80832131854E+02  0.47000000000E+01 0. -1.
        -13    1    6    6    0    0  0.90295910651E+01  0.95576221239E+02  0.70270369830E+02  0.11897172966E+03  0.00000000000E+00 0.  1.
         14    1    6    6    0    0  0.28382179131E+02  0.59829827053E+01  0.66685934730E+02  0.72721097799E+02  0.00000000000E+00 0. -1.
         -5    1    3    3    0  503 -0.38283808478E+01 -0.50332511451E+02 -0.36689053093E+02  0.62579508033E+02  0.47000000000E+01 0.  1.
         13    1    4    4    0    0 -0.65734169632E+02  0.26532735591E+02  0.35480022194E+02  0.79270417496E+02  0.00000000000E+00 0. -1.
        -14    1    4    4    0    0 -0.27170252774E+02 -0.40235932264E+02  0.55194817937E+02  0.73509324633E+02  0.00000000000E+00 0.  1.
</event>
<event>
12    1  0.8271773E-002  0.1779118E+03  0.7818608E-02  0.1170041E+00
         21   -1    0    0  503  502  0.00000000000E+00  0.00000000000E+00  0.73475842105E+02  0.73475842105E+02  0.00000000000E+00 0. -1.
         21   -1    0    0  501  503 -0.00000000000E+00 -0.00000000000E+00 -0.55806826563E+03  0.55806826563E+03  0.00000000000E+00 0. -1.
          6    2    1    2  501    0  0.15323205726E+02  0.41179849045E+02 -0.39383736264E+03  0.43182157381E+03  0.17155588823E+03 0.  0.
         24    2    3    3    0    0 -0.50889802941E+01  0.28894703382E+02 -0.80241424442E+02  0.11728686253E+03  0.80353720018E+02 0.  0.
         -6    2    1    2    0  502 -0.15323205726E+02 -0.41179849045E+02 -0.90755060883E+02  0.19972253393E+03  0.17240077982E+03 0.  0.
        -24    2    5    5    0    0 -0.25851515960E+02 -0.89995730351E+02 -0.62548982223E+02  0.14217682638E+03  0.86800590000E+02 0.  0.
          5    1    3    3  501    0  0.20412186020E+02  0.12285145662E+02 -0.31359593820E+03  0.31453471128E+03  0.47000000000E+01 0. -1.
        -13    1    4    4    0    0  0.77879423184E+01 -0.10530582767E+02  0.10972526800E+02  0.17086297532E+02  0.00000000000E+00 0.  1.
         14    1    4    4    0    0 -0.12876922613E+02  0.39425286150E+02 -0.91213951242E+02  0.10020056499E+03  0.00000000000E+00 0. -1.
         -5    1    5    5    0  502  0.10528310235E+02  0.48815881307E+02 -0.28206078660E+02  0.57545707551E+02  0.47000000000E+01 0.  1.
         11    1    6    6    0    0 -0.33844159389E+02 -0.55735324586E+02 -0.79751916067E+02  0.10301563788E+03  0.00000000000E+00 0. -1.
        -12    1    6    6    0    0  0.79926434289E+01 -0.34260405765E+02  0.17202933844E+02  0.39161188503E+02  0.00000000000E+00 0.  1.
</event>
<event>
12    1  0.8271773E-002  0.1771443E+03  0.7818608E-02  0.1170965E+00
         21   -1    0    0  501  502  0.00000000000E+00  0.00000000000E+00  0.47060852850E+03  0.47060852850E+03  0.00000000000E+00 0. -1.
         21   -1    0    0  502  503 -0.00000000000E+00 -0.00000000000E+00 -0.42211507897E+03  0.42211507897E+03  0.00000000000E+00 0. -1.
         -6    2    1    2    0  503  0.33089203618E+02 -0.22821099659E+02 -0.38565067523E+03  0.42438960201E+03  0.17252360129E+03 0.  0.
        -24    2    3    3    0    0  0.89900080238E+02 -0.13174581755E+02 -0.27026088562E+03  0.29532595663E+03  0.76947256849E+02 0.  0.
          6    2    1    2  501    0 -0.33089203618E+02  0.22821099659E+02  0.43414412476E+03  0.46833400546E+03  0.17099684682E+03 0.  0.
         24    2    5    5    0    0 -0.75387672723E+02 -0.18752944272E+02  0.22112111461E+03  0.24715883852E+03  0.78472734214E+02 0.  0.
          5    1    5    5  501    0  0.42298469105E+02  0.41574043931E+02  0.21302301015E+03  0.22117516694E+03  0.47000000000E+01 0. -1.
        -11    1    6    6    0    0 -0.20037318661E+02  0.29365905623E+02  0.53990469068E+02  0.64643803279E+02  0.00000000000E+00 0.  1.
         12    1    6    6    0    0 -0.55350354062E+02 -0.48118849895E+02  0.16713064554E+03  0.18251503524E+03  0.00000000000E+00 0. -1.
         -5    1    3    3    0  503 -0.56810876620E+02 -0.96465179046E+01 -0.11538978962E+03  0.12906364538E+03  0.47000000000E+01 0.  1.
         11    1    4    4    0    0  0.54971695047E+02  0.14135889041E+02 -0.22467600095E+03  0.23173479674E+03  0.00000000000E+00 0. -1.
        -12    1    4    4    0    0  0.34928385191E+02 -0.27310470796E+02 -0.45584884664E+02  0.63591159897E+02  0.00000000000E+00 0.  1.
</event>
<event>
12    1  0.8271773E-002  0.1893725E+03  0.7818608E-02  0.1160624E+00
         21   -1    0    0  501  502  0.00000000000E+00  0.00000000000E+00  0.44087629002E+02  0.44087629002E+02  0.00000000000E+00 0.  1.
         21   -1    0    0  502  503 -0.00000000000E+00 -0.00000000000E+00 -0.78458048339E+03  0.78458048339E+03  0.00000000000E+00 0.  1.
         -6    2    1    2    0  503 -0.33420199438E+02 -0.66315924501E+02 -0.36614172428E+03  0.41221561124E+03  0.17420458180E+03 0.  0.
        -24    2    3    3    0    0 -0.63643679972E+02 -0.10004867567E+03 -0.30822425594E+03  0.33854146098E+03  0.74484047646E+02 0.  0.
          6    2    1    2  501    0  0.33420199438E+02  0.66315924501E+02 -0.37435113011E+03  0.41645250116E+03  0.16667094987E+03 0.  0.
         24    2    5    5    0    0  0.59476080290E+00  0.10321146614E+03 -0.23801092195E+03  0.27136793004E+03  0.79614031444E+02 0.  0.
          5    1    5    5  501    0  0.32825438635E+02 -0.36895541639E+02 -0.13634020816E+03  0.14508457111E+03  0.47000000000E+01 0. -1.
        -13    1    6    6    0    0 -0.88066151572E+01  0.74738604519E+02 -0.22745177769E+03  0.23957822658E+03  0.00000000000E+00 0.  1.
         14    1    6    6    0    0  0.94013759601E+01  0.28472861620E+02 -0.10559144266E+02  0.31789703466E+02  0.00000000000E+00 0. -1.
         -5    1    3    3    0  503  0.30223480535E+02  0.33732751166E+02 -0.57917468338E+02  0.73674150253E+02  0.47000000000E+01 0.  1.
         13    1    4    4    0    0 -0.34480771913E+02 -0.48305253565E+02 -0.24378089130E+03  0.25090126369E+03  0.00000000000E+00 0. -1.
        -14    1    4    4    0    0 -0.29162908060E+02 -0.51743422102E+02 -0.64443364633E+02  0.87640197299E+02  0.00000000000E+00 0.  1.
</event>
<event>
12    1  0.8271773E-002  0.2209993E+03  0.7818608E-02  0.1133246E+00
         21   -1    0    0  501  502  0.00000000000E+00  0.00000000000E+00  0.40400044545E+02  0.40400044545E+02  0.00000000000E+00 0.  1.
         21   -1    0    0  502  503 -0.00000000000E+00 -0.00000000000E+00 -0.12237410553E+04  0.12237410553E+04  0.00000000000E+00 0. -1.
         -6    2    1    2    0  503  0.32407338284E+02  0.13602073104E+03 -0.51443741859E+03  0.55967484699E+03  0.17040599127E+03 0.  0.
        -24    2    3    3    0    0  0.84640832433E+02  0.11276372429E+03 -0.38494985102E+03  0.41804735520E+03  0.81838104589E+02 0.  0.
          6    2    1    2  501    0 -0.32407338284E+02 -0.13602073104E+03 -0.66890359220E+03  0.70446625290E+03  0.17113974103E+03 0.  0.
         24    2    5    5    0    0 -0.55061760502E+02 -0.69694731529E+02 -0.21986001214E+03  0.24996148080E+03  0.79076949077E+02 0.  0.
          5    1    5    5  501    0  0.22654422218E+02 -0.66325999507E+02 -0.44904358006E+03  0.45450477209E+03  0.47000000000E+01 0. -1.
        -13    1    6    6    0    0 -0.47863263377E+02 -0.78730252093E+02 -0.12987748737E+03  0.15924040411E+03  0.00000000000E+00 0.  1.
         14    1    6    6    0    0 -0.71984971253E+01  0.90355205635E+01 -0.89982524766E+02  0.90721076691E+02  0.00000000000E+00 0. -1.
         -5    1    3    3    0  503 -0.52233494149E+02  0.23257006751E+02 -0.12948756758E+03  0.14162749179E+03  0.47000000000E+01 0.  1.
         11    1    4    4    0    0  0.10610392809E+02 -0.75427889394E+01 -0.90898892142E+02  0.91826372537E+02  0.00000000000E+00 0. -1.
        -12    1    4    4    0    0  0.74030439624E+02  0.12030651322E+03 -0.29405095887E+03  0.32622098266E+03  0.00000000000E+00 0.  1.
</event>
<event>
12    1  0.8271773E-002  0.1794867E+03  0.7818608E-02  0.1170976E+00
         21   -1    0    0  501  502  0.00000000000E+00  0.00000000000E+00  0.49580117742E+03  0.49580117742E+03  0.00000000000E+00 0. -1.
         21   -1    0    0  502  503 -0.00000000000E+00 -0.00000000000E+00 -0.61927253640E+02  0.61927253640E+02  0.00000000000E+00 0. -1.
         -6    2    1    2    0  503 -0.49841094307E+02 -0.37995165583E+02  0.24110904494E+03  0.29433939074E+03  0.15676204292E+03 0.  0.
        -24    2    3    3    0    0 -0.79035496295E+02 -0.77386001912E+01  0.10459151856E+03  0.15141669182E+03  0.75373292358E+02 0.  0.
          6    2    1    2  501    0  0.49841094307E+02  0.37995165583E+02  0.19276487884E+03  0.26338904032E+03  0.16818953819E+03 0.  0.
         24    2    5    5    0    0  0.35503294014E+02 -0.41995415372E+02  0.10369450039E+03  0.14272550864E+03  0.81202971672E+02 0.  0.
          5    1    5    5  501    0  0.14337800293E+02  0.79990580955E+02  0.89070378452E+02  0.12066353168E+03  0.47000000000E+01 0. -1.
        -13    1    6    6    0    0 -0.18761219897E+01  0.19982353006E+02  0.56318087422E+01  0.20845420003E+02  0.00000000000E+00 0.  1.
         14    1    6    6    0    0  0.37379416004E+02 -0.61977768379E+02  0.98062691644E+02  0.12188008864E+03  0.00000000000E+00 0. -1.
         -5    1    3    3    0  503  0.29194401988E+02 -0.30256565391E+02  0.13651752638E+03  0.14292269891E+03  0.47000000000E+01 0.  1.
         11    1    4    4    0    0  0.53211715668E+00  0.14265858278E+02 -0.41703004765E+01  0.14872433128E+02  0.00000000000E+00 0. -1.
        -12    1    4    4    0    0 -0.79567613452E+02 -0.22004458469E+02  0.10876181904E+03  0.13654425870E+03  0.00000000000E+00 0.  1.
</event>
<event>
12    1  0.8271773E-002  0.2205866E+03  0.7818608E-02  0.1133494E+00
         21   -1    0    0  501  502  0.00000000000E+00  0.00000000000E+00  0.39465129582E+03  0.39465129582E+03  0.00000000000E+00 0. -1.
         21   -1    0    0  502  503 -0.00000000000E+00 -0.00000000000E+00 -0.22410615843E+03  0.22410615843E+03  0.00000000000E+00 0. -1.
         -6    2    1    2    0  503 -0.13623468573E+03  0.35806268950E+01 -0.12234719822E+03  0.25224452966E+03  0.17345245846E+03 0.  0.
        -24    2    3    3    0    0  0.46698419240E-01 -0.87693206573E+01 -0.40337108280E+02  0.92642268643E+02  0.82937352679E+02 0.  0.
          6    2    1    2  501    0  0.13623468573E+03 -0.35806268950E+01  0.29289233561E+03  0.36651292460E+03  0.17312738995E+03 0.  0.
         24    2    5    5    0    0  0.11772200990E+03  0.43333388724E+02  0.13136056961E+03  0.19722546063E+03  0.76850692122E+02 0.  0.
          5    1    5    5  501    0  0.18512675829E+02 -0.46914015619E+02  0.16153176600E+03  0.16928746397E+03  0.47000000000E+01 0. -1.
        -11    1    6    6    0    0  0.98052135316E+02  0.15473941279E+01  0.10651341257E+03  0.14478163808E+03  0.00000000000E+00 0.  1.
         12    1    6    6    0    0  0.19669874580E+02  0.41785994596E+02  0.24847157044E+02  0.52443822550E+02  0.00000000000E+00 0. -1.
         -5    1    3    3    0  503 -0.13628138414E+03  0.12349947552E+02 -0.82010089937E+02  0.15960226101E+03  0.47000000000E+01 0.  1.
         11    1    4    4    0    0 -0.28943250891E+02  0.66205642389E+01 -0.50241399827E+02  0.58358734561E+02  0.00000000000E+00 0. -1.
        -12    1    4    4    0    0  0.28989949310E+02 -0.15389884896E+02  0.99042915472E+01  0.34283534082E+02  0.00000000000E+00 0.  1.
</event>
<event>
12    1  0.8271773E-002  0.1767155E+03  0.7818608E-02  0.1171274E+00
         21   -1    0    0  503  502  0.00000000000E+00  0.00000000000E+00  0.10187878837E+04  0.10187878837E+04  0.00000000000E+00 0.  1.
         21   -1    0    0  501  503 -0.00000000000E+00 -0.00000000000E+00 -0.38050940066E+02  0.38050940066E+02  0.00000000000E+00 0.  1.
          6    2    1    2  501    0 -0.28305869171E+02  0.28159032793E+02  0.25345134337E+03  0.30839195112E+03  0.17109605111E+03 0.  0.
         24    2    3    3    0    0 -0.45889293498E+02 -0.20145665751E+02  0.68229260899E+02  0.11611134745E+03  0.79466583281E+02 0.  0.
         -6    2    1    2    0  502  0.28305869171E+02 -0.28159032793E+02  0.72728560024E+03  0.74844687262E+03  0.17214593652E+03 0.  0.
        -24    2    5    5    0    0  0.41851554048E+02 -0.57716706759E+02  0.28011405503E+03  0.30007022011E+03  0.80594555379E+02 0.  0.
          5    1    3    3  501    0  0.17583424327E+02  0.48304698544E+02  0.18522208247E+03  0.19228060367E+03  0.47000000000E+01 0. -1.
        -13    1    4    4    0    0  0.22637791805E+02 -0.75144057738E+01  0.12782104695E+02  0.27061376764E+02  0.00000000000E+00 0.  1.
         14    1    4    4    0    0 -0.68527085303E+02 -0.12631259977E+02  0.55447156203E+02  0.89049970690E+02  0.00000000000E+00 0. -1.
         -5    1    5    5    0  502 -0.13545684877E+02  0.29557673966E+02  0.44717154521E+03  0.44837665251E+03  0.47000000000E+01 0.  1.
         13    1    6    6    0    0  0.39493557193E+02  0.91540535327E+01  0.98116229425E+02  0.10616182097E+03  0.00000000000E+00 0. -1.
        -14    1    6    6    0    0  0.23579968559E+01 -0.66870760292E+02  0.18199782561E+03  0.19390839914E+03  0.00000000000E+00 0.  1.
</event>
<event>
12    1  0.8271773E-002  0.1800649E+03  0.7818608E-02  0.1168425E+00
         21   -1    0    0  503  502  0.00000000000E+00  0.00000000000E+00  0.47884131509E+03  0.47884131509E+03  0.00000000000E+00 0. -1.
         21   -1    0    0  501  503 -0.00000000000E+00 -0.00000000000E+00 -0.10969755525E+03  0.10969755525E+03  0.00000000000E+00 0. -1.
          6    2    1    2  501    0 -0.43489142801E+02 -0.24911015840E+01 -0.62335163114E+00  0.17725905496E+03  0.17182221296E+03 0.  0.
         24    2    3    3    0    0 -0.78640437219E+02  0.35673407324E+02  0.20483865810E+02  0.12104742033E+03  0.82316334063E+02 0.  0.
         -6    2    1    2    0  502  0.43489142801E+02  0.24911015840E+01  0.36976711147E+03  0.41127981539E+03  0.17471650950E+03 0.  0.
        -24    2    5    5    0    0  0.32116306562E+02  0.59362726436E+02  0.31160090383E+03  0.32900514840E+03  0.81202672158E+02 0.  0.
          5    1    3    3  501    0  0.35151294418E+02 -0.38164508908E+02 -0.21107217441E+02  0.56211634628E+02  0.47000000000E+01 0. -1.
        -11    1    4    4    0    0 -0.44506876002E+02 -0.23401617935E+02  0.15587325962E+02  0.52644681252E+02  0.00000000000E+00 0.  1.
         12    1    4    4    0    0 -0.34133561217E+02  0.59075025259E+02  0.48965398475E+01  0.68402739077E+02  0.00000000000E+00 0. -1.
         -5    1    5    5    0  502  0.11372836240E+02 -0.56871624852E+02  0.58166207638E+02  0.82274666991E+02  0.47000000000E+01 0.  1.
         11    1    6    6    0    0 -0.15740794410E+02  0.35004099246E+02  0.21574677928E+03  0.21913405108E+03  0.00000000000E+00 0. -1.
        -12    1    6    6    0    0  0.47857100972E+02  0.24358627191E+02  0.95854124549E+02  0.10987109731E+03  0.00000000000E+00 0.  1.
</event>
<event>
12    1  0.8271773E-002  0.2897314E+03  0.7818608E-02  0.1090690E+00
         21   -1    0    0  501  502  0.00000000000E+00  0.00000000000E+00  0.11167934177E+04  0.11167934177E+04  0.00000000000E+00 0. -1.
         21   -1    0    0  502  503 -0.00000000000E+00 -0.00000000000E+00 -0.26443500333E+03  0.26443500333E+03  0.00000000000E+00 0.  1.
         -6    2    1    2    0  503  0.17351554779E+03  0.15677640763E+03 -0.15902333681E+03  0.32916505343E+03  0.16844798435E+03 0.  0.
        -24    2    3    3    0    0  0.94501157637E+02  0.32898512114E+02 -0.12488430031E+03  0.17824596695E+03  0.78503218894E+02 0.  0.
          6    2    1    2  501    0 -0.17351554779E+03 -0.15677640763E+03  0.10113817512E+04  0.10520633676E+04  0.17104910271E+03 0.  0.
         24    2    5    5    0    0 -0.35432076670E+02 -0.45618020540E+02  0.52914681671E+03  0.53825809901E+03  0.79931168285E+02 0.  0.
          5    1    5    5  501    0 -0.13808347112E+03 -0.11115838709E+03  0.48223493449E+03  0.51380526862E+03  0.47000000000E+01 0. -1.
        -11    1    6    6    0    0  0.24398248940E+01 -0.15659067234E+02  0.14910986697E+02  0.21759978319E+02  0.00000000000E+00 0.  1.
         12    1    6    6    0    0 -0.37871901564E+02 -0.29958953306E+02  0.51423583001E+03  0.51649812069E+03  0.00000000000E+00 0. -1.
         -5    1    3    3    0  503  0.79014390156E+02  0.12387789552E+03 -0.34139036497E+02  0.15091908647E+03  0.47000000000E+01 0.  1.
         13    1    4    4    0    0  0.60788213259E+02  0.50280153061E+02 -0.11427545156E+03  0.13886028767E+03  0.00000000000E+00 0. -1.
        -14    1    4    4    0    0  0.33712944378E+02 -0.17381640946E+02 -0.10608848752E+02  0.39385679282E+02  0.00000000000E+00 0.  1.
</event>
<event>
12    1  0.8271773E-002  0.1986152E+03  0.7818608E-02  0.1152094E+00
         21   -1    0    0  503  502  0.00000000000E+00  0.00000000000E+00  0.48498969081E+03  0.48498969081E+03  0.00000000000E+00 0. -1.
         21   -1    0    0  501  503 -0.00000000000E+00 -0.00000000000E+00 -0.89519298833E+02  0.89519298833E+02  0.00000000000E+00 0.  1.
          6    2    1    2  501    0  0.84133565475E+02 -0.17567687375E+02  0.97366286304E+02  0.21629947134E+03  0.17296874606E+03 0.  0.
         24    2    3    3    0    0  0.40871581011E+02 -0.17408804376E+02  0.13305068035E+03  0.16002256203E+03  0.77014181903E+02 0.  0.
         -6    2    1    2    0  502 -0.84133565475E+02  0.17567687375E+02  0.29810410567E+03  0.35820951830E+03  0.17905563578E+03 0.  0.
        -24    2    5    5    0    0 -0.46320052508E+02  0.72721530811E+01  0.47194999903E+02  0.10421477594E+03  0.80217953311E+02 0.  0.
          5    1    3    3  501    0  0.43261984464E+02 -0.15888299940E+00 -0.35684394042E+02  0.56276909312E+02  0.47000000000E+01 0. -1.
        -11    1    4    4    0    0 -0.17584670942E+02 -0.12793761659E+02  0.10463393049E+02  0.24132624881E+02  0.00000000000E+00 0.  1.
         12    1    4    4    0    0  0.58456251954E+02 -0.46150427171E+01  0.12258728730E+03  0.13588993715E+03  0.00000000000E+00 0. -1.
         -5    1    5    5    0  502 -0.37813512968E+02  0.10295534294E+02  0.25090910577E+03  0.25399474236E+03  0.47000000000E+01 0.  1.
         11    1    6    6    0    0 -0.44479787063E+01  0.22229190550E+02  0.54618266719E+02  0.59136084470E+02  0.00000000000E+00 0. -1.
        -12    1    6    6    0    0 -0.41872073802E+02 -0.14957037469E+02 -0.74232668161E+01  0.45078691468E+02  0.00000000000E+00 0.  1.
</event>
<event>
12    1  0.8271773E-002  0.1832080E+03  0.7818608E-02  0.1165161E+00
         21   -1    0    0  501  502  0.00000000000E+00  0.00000000000E+00  0.10502064080E+04  0.10502064080E+04  0.00000000000E+00 0.  1.
         21   -1    0    0  502  503 -0.00000000000E+00 -0.00000000000E+00 -0.44726723429E+02  0.44726723429E+02  0.00000000000E+00 0.  1.
         -6    2    1    2    0  503  0.60391750723E+02 -0.99219702959E+01  0.20494342870E+03  0.27370024589E+03  0.17077589579E+03 0.  0.
        -24    2    3    3    0    0 -0.26830294283E+02  0.17045460783E+02  0.70642236193E+02  0.11123847260E+03  0.79832698980E+02 0.  0.
          6    2    1    2  501    0 -0.60391750723E+02  0.99219702959E+01  0.80053625584E+03  0.82123288550E+03  0.17268336999E+03 0.  0.
         24    2    5    5    0    0 -0.61030383889E+01  0.65094342870E+02  0.42586161783E+03  0.43861763574E+03  0.82175375219E+02 0.  0.
          5    1    5    5  501    0 -0.54288712334E+02 -0.55172372574E+02  0.37467463801E+03  0.38261524976E+03  0.47000000000E+01 0. -1.
        -11    1    6    6    0    0 -0.63887586443E+01  0.83376938898E+01  0.30405781131E+03  0.30423919207E+03  0.00000000000E+00 0.  1.
         12    1    6    6    0    0  0.28572025538E+00  0.56756648980E+02  0.12180380652E+03  0.13437844367E+03  0.00000000000E+00 0. -1.
         -5    1    3    3    0  503  0.87222045006E+02 -0.26967431079E+02  0.13430119250E+03  0.16246177330E+03  0.47000000000E+01 0.  1.
         13    1    4    4    0    0 -0.44879364940E+02  0.37126116852E+02  0.54582297481E+02  0.79823136672E+02  0.00000000000E+00 0. -1.
        -14    1    4    4    0    0  0.18049070657E+02 -0.20080656069E+02  0.16059938712E+02  0.31415335923E+02  0.00000000000E+00 0.  1.
</event>
<event>
12    1  0.8271773E-002  0.1785313E+03  0.7818608E-02  0.1169333E+00
         21   -1    0    0  501  502  0.00000000000E+00  0.00000000000E+00  0.19443911771E+04  0.19443911771E+04  0.00000000000E+00 0.  1.
         21   -1    0    0  502  503 -0.00000000000E+00 -0.00000000000E+00 -0.16562833471E+02  0.16562833471E+02  0.00000000000E+00 0.  1.
         -6    2    1    2    0  503  0.48105082246E+02  0.48802999883E+01  0.85506735169E+03  0.87350648775E+03  0.17185893035E+03 0.  0.
        -24    2    3    3    0    0 -0.73300392845E+01  0.39975714067E+02  0.62195491977E+03  0.63129121840E+03  0.10024416697E+03 0.  0.
          6    2    1    2  501    0 -0.48105082246E+02 -0.48802999883E+01  0.10727609919E+04  0.10874475228E+04  0.17142943974E+03 0.  0.
         24    2    5    5    0    0  0.40855282729E+01 -0.56721102505E+02  0.50129169708E+03  0.51124393589E+03  0.82722556852E+02 0.  0.
          5    1    5    5  501    0 -0.52190610519E+02  0.51840802517E+02  0.57146929481E+03  0.57620358689E+03  0.47000000000E+01 0. -1.
        -11    1    6    6    0    0 -0.20427772716E+01  0.32398365375E+01 -0.20241142765E+01  0.43320339767E+01  0.00000000000E+00 0.  1.
         12    1    6    6    0    0  0.61283055445E+01 -0.59960939043E+02  0.50331581136E+03  0.50691190192E+03  0.00000000000E+00 0. -1.
         -5    1    3    3    0  503  0.55435121531E+02 -0.35095414079E+02  0.23311243192E+03  0.24221526935E+03  0.47000000000E+01 0.  1.
         11    1    4    4    0    0 -0.46547259717E+02 -0.67945046380E+01  0.28373216226E+03  0.28760520263E+03  0.00000000000E+00 0. -1.
        -12    1    4    4    0    0  0.39217220432E+02  0.46770218705E+02  0.33822275751E+03  0.34368601577E+03  0.00000000000E+00 0.  1.
</event>
<event>
12    1  0.8271773E-002  0.1929976E+03  0.7818608E-02  0.1157064E+00
         21   -1    0    0  501  502  0.00000000000E+00  0.00000000000E+00  0.26238447635E+02  0.26238447635E+02  0.00000000000E+00 0. -1.
         21   -1    0    0  502  503 -0.00000000000E+00 -0.00000000000E+00 -0.18804216592E+04  0.18804216592E+04  0.00000000000E+00 0. -1.
         -6    2    1    2    0  503 -0.50338219244E+02  0.72557754451E+02 -0.14096502206E+04  0.14220389661E+04  0.16517418861E+03 0.  0.
        -24    2    3    3    0    0 -0.79601388801E+02  0.12566856483E+02 -0.10613378571E+04  0.10673576535E+04  0.79498469088E+02 0.  0.
          6    2    1    2  501    0  0.50338219244E+02 -0.72557754451E+02 -0.44453299100E+03  0.48462114079E+03  0.17160858359E+03 0.  0.
         24    2    5    5    0    0  0.99579649107E+02 -0.42919502308E+02 -0.28592743141E+03  0.31585811777E+03  0.79080113381E+02 0.  0.
          5    1    5    5  501    0 -0.49241429864E+02 -0.29638252143E+02 -0.15860555959E+03  0.16876302302E+03  0.47000000000E+01 0. -1.
        -13    1    6    6    0    0 -0.12097680681E+02 -0.60643287028E+01 -0.55866185931E+02  0.57481829224E+02  0.00000000000E+00 0.  1.
         14    1    6    6    0    0  0.11167732979E+03 -0.36855173605E+02 -0.23006124548E+03  0.25837628855E+03  0.00000000000E+00 0. -1.
         -5    1    3    3    0  503  0.29263169558E+02  0.59990897968E+02 -0.34831236348E+03  0.35468131257E+03  0.47000000000E+01 0.  1.
         13    1    4    4    0    0 -0.21011972679E+02 -0.14757044668E+02 -0.82873183632E+02  0.86759656111E+02  0.00000000000E+00 0. -1.
        -14    1    4    4    0    0 -0.58589416122E+02  0.27323901150E+02 -0.97846467345E+03  0.98059799737E+03  0.00000000000E+00 0.  1.
</event>
<event>
12    1  0.8271773E-002  0.2149924E+03  0.7818608E-02  0.1137926E+00
         21   -1    0    0  501  502  0.00000000000E+00  0.00000000000E+00  0.11979115281E+03  0.11979115281E+03  0.00000000000E+00 0.  1.
         21   -1    0    0  502  503 -0.00000000000E+00 -0.00000000000E+00 -0.10051984587E+04  0.10051984587E+04  0.00000000000E+00 0. -1.
         -6    2    1    2    0  503  0.10687555317E+03  0.71993072498E+02 -0.88455317741E+03  0.90999555489E+03  0.17044705895E+03 0.  0.
        -24    2    3    3    0    0  0.45702377545E+02 -0.30626521345E+01 -0.63852999239E+03  0.64556216671E+03  0.83257869052E+02 0.  0.
          6    2    1    2  501    0 -0.10687555317E+03 -0.71993072498E+02 -0.85412850696E+00  0.21499405664E+03  0.17209395255E+03 0.  0.
         24    2    5    5    0    0 -0.86478919354E+01  0.67155267597E+01  0.41328560703E+02  0.82158871931E+02  0.70158007188E+02 0.  0.
          5    1    5    5  501    0 -0.98227661232E+02 -0.78708599258E+02 -0.42182689210E+02  0.13283518471E+03  0.47000000000E+01 0. -1.
        -11    1    6    6    0    0  0.25302603439E+02 -0.10462768471E+02  0.33581645781E+02  0.43329184140E+02  0.00000000000E+00 0.  1.
         12    1    6    6    0    0 -0.33950495374E+02  0.17178295230E+02  0.77469149221E+01  0.38829687791E+02  0.00000000000E+00 0. -1.
         -5    1    3    3    0  503  0.61173175623E+02  0.75055724633E+02 -0.24602318502E+03  0.26443338818E+03  0.47000000000E+01 0.  1.
         11    1    4    4    0    0 -0.72550530017E+01  0.17940713684E+02 -0.41167707522E+02  0.45489395953E+02  0.00000000000E+00 0. -1.
        -12    1    4    4    0    0  0.52957430547E+02 -0.21003365818E+02 -0.59736228486E+03  0.60007277076E+03  0.00000000000E+00 0.  1.
</event>
<event>
12    1  0.8271773E-002  0.1864086E+03  0.7818608E-02  0.1161982E+00
         21   -1    0    0  501  502  0.00000000000E+00  0.00000000000E+00  0.26274162569E+03  0.26274162569E+03  0.00000000000E+00 0. -1.
         21   -1    0    0  502  503 -0.00000000000E+00 -0.00000000000E+00 -0.19130355668E+03  0.19130355668E+03  0.00000000000E+00 0. -1.
         -6    2    1    2    0  503  0.58756016393E+02  0.36818499357E+02 -0.91128021904E+02  0.20749094737E+03  0.17303267179E+03 0.  0.
        -24    2    3    3    0    0  0.25406071309E+02  0.89408423627E+02 -0.51784673342E+02  0.13368100191E+03  0.80929742398E+02 0.  0.
          6    2    1    2  501    0 -0.58756016393E+02 -0.36818499357E+02  0.16256609092E+03  0.24655423500E+03  0.17191098139E+03 0.  0.
         24    2    5    5    0    0 -0.25999610961E+02  0.13794435582E+02  0.16476497093E+03  0.18604327439E+03  0.81230154975E+02 0.  0.
          5    1    5    5  501    0 -0.32756405431E+02 -0.50612934939E+02 -0.21988800151E+01  0.60510960605E+02  0.47000000000E+01 0. -1.
        -13    1    6    6    0    0 -0.12934086232E+02 -0.36029102934E+01 -0.54155696676E+01  0.14477566925E+02  0.00000000000E+00 0.  1.
         14    1    6    6    0    0 -0.13065524729E+02  0.17397345876E+02  0.17018054060E+03  0.17156570747E+03  0.00000000000E+00 0. -1.
         -5    1    3    3    0  503  0.33349945084E+02 -0.52589924270E+02 -0.39343348562E+02  0.73809945454E+02  0.47000000000E+01 0.  1.
         13    1    4    4    0    0  0.40902652026E+01  0.48236686832E+02 -0.68946226145E+02  0.84244230222E+02  0.00000000000E+00 0. -1.
        -14    1    4    4    0    0  0.21315806106E+02  0.41171736795E+02  0.17161552803E+02  0.49436771691E+02  0.00000000000E+00 0.  1.
</event>
<event>
12    1  0.8271773E-002  0.2279701E+03  0.7818608E-02  0.1128243E+00
         21   -1    0    0  503  502  0.00000000000E+00  0.00000000000E+00  0.45433162891E+03  0.45433162891E+03  0.00000000000E+00 0.  1.
         21   -1    0    0  501  503 -0.00000000000E+00 -0.00000000000E+00 -0.11469101514E+03  0.11469101514E+03  0.00000000000E+00 0. -1.
          6    2    1    2  501    0 -0.38796959338E+01 -0.14740093583E+03  0.19346632260E+03  0.29899766993E+03  0.17386287908E+03 0.  0.
         24    2    3    3    0    0 -0.99763905583E+01 -0.17830533058E+03  0.15832242770E+03  0.25156946473E+03  0.79554290813E+02 0.  0.
         -6    2    1    2    0  502  0.38796959338E+01  0.14740093583E+03  0.14617429117E+03  0.27002497412E+03  0.17263972696E+03 0.  0.
        -24    2    5    5    0    0  0.23427442208E+02  0.95601696082E+02  0.29071769685E+02  0.14040874766E+03  0.95817113739E+02 0.  0.
          5    1    3    3  501    0  0.60966946245E+01  0.30904394753E+02  0.35143894895E+02  0.47428205203E+02  0.47000000000E+01 0. -1.
        -13    1    4    4    0    0 -0.24017780305E+02 -0.94470685306E+01  0.16742810943E+02  0.30763982071E+02  0.00000000000E+00 0.  1.
         14    1    4    4    0    0  0.14041389747E+02 -0.16885826205E+03  0.14157961676E+03  0.22080548266E+03  0.00000000000E+00 0. -1.
         -5    1    5    5    0  502 -0.19547746274E+02  0.51799239746E+02  0.11710252149E+03  0.12961622646E+03  0.47000000000E+01 0.  1.
         13    1    6    6    0    0 -0.87467007913E+01  0.59810569322E+02 -0.27267414154E+02  0.66312297894E+02  0.00000000000E+00 0. -1.
        -14    1    6    6    0    0  0.32174143000E+02  0.35791126760E+02  0.56339183839E+02  0.74096449767E+02  0.00000000000E+00 0.  1.
</event>
<event>
12    1  0.8271773E-002  0.1725574E+03  0.7818608E-02  0.1175357E+00
         21   -1    0    0  501  502  0.00000000000E+00  0.00000000000E+00  0.17602824255E+03  0.17602824255E+03  0.00000000000E+00 0. -1.
         21   -1    0    0  502  503 -0.00000000000E+00 -0.00000000000E+00 -0.20062605655E+03  0.20062605655E+03  0.00000000000E+00 0. -1.
         -6    2    1    2    0  503  0.25054783115E+01 -0.10172461262E+00 -0.87549603670E+02  0.19297258958E+03  0.17195115428E+03 0.  0.
        -24    2    3    3    0    0 -0.49401434858E+02 -0.44321217768E+02 -0.52802425196E+02  0.11629698967E+03  0.79574000709E+02 0.  0.
          6    2    1    2  501    0 -0.25054783115E+01  0.10172461262E+00  0.62951789664E+02  0.18368170952E+03  0.17253913997E+03 0.  0.
         24    2    5    5    0    0  0.33217818675E+02  0.56123536381E+02  0.51905431100E+02  0.11616349436E+03  0.80910498889E+02 0.  0.
          5    1    5    5  501    0 -0.35723296986E+02 -0.56021811768E+02  0.11046358564E+02  0.67518215163E+02  0.47000000000E+01 0. -1.
        -11    1    6    6    0    0  0.34504443372E+02 -0.49475977705E+01 -0.16919339213E+01  0.34898395042E+02  0.00000000000E+00 0.  1.
         12    1    6    6    0    0 -0.12866246975E+01  0.61071134151E+02  0.53597365021E+02  0.81265099316E+02  0.00000000000E+00 0. -1.
         -5    1    3    3    0  503  0.51906913170E+02  0.44219493156E+02 -0.34747178474E+02  0.76675599911E+02  0.47000000000E+01 0.  1.
         13    1    4    4    0    0  0.10183680506E+02 -0.40556767679E+02 -0.10465100333E+02  0.43105418200E+02  0.00000000000E+00 0. -1.
        -14    1    4    4    0    0 -0.59585115364E+02 -0.37644500891E+01 -0.42337324864E+02  0.73191571469E+02  0.00000000000E+00 0.  1.
</event>
<event>
12    1  0.8271773E-002  0.2039706E+03  0.7818608E-02  0.1146512E+00
         21   -1    0    0  501  502  0.00000000000E+00  0.00000000000E+00  0.42281127876E+02  0.42281127876E+02  0.00000000000E+00 0. -1.
         21   -1    0    0  502  503 -0.00000000000E+00 -0.00000000000E+00 -0.10717518196E+04  0.10717518196E+04  0.00000000000E+00 0. -1.
         -6    2    1    2    0  503 -0.78460432208E+02  0.72374399027E+02 -0.35317259524E+03  0.40764556265E+03  0.17334915534E+03 0.  0.
        -24    2    3    3    0    0 -0.10377134951E+03  0.10003118522E+03 -0.28828009093E+03  0.33255450144E+03  0.81928960715E+02 0.  0.
          6    2    1    2  501    0  0.78460432208E+02 -0.72374399027E+02 -0.67629809646E+03  0.70638738481E+03  0.17381003735E+03 0.  0.
         24    2    5    5    0    0  0.70261770358E+02 -0.10821104518E+03 -0.41198798586E+03  0.43949151030E+03  0.82294231026E+02 0.  0.
          5    1    5    5  501    0  0.81986618505E+01  0.35836646157E+02 -0.26431011060E+03  0.26689587451E+03  0.47000000000E+01 0. -1.
        -13    1    6    6    0    0  0.39094234155E+02 -0.10132108434E+03 -0.37608181995E+03  0.39144840857E+03  0.00000000000E+00 0.  1.
         14    1    6    6    0    0  0.31167536203E+02 -0.68899608475E+01 -0.35906165903E+02  0.48043101724E+02  0.00000000000E+00 0. -1.
         -5    1    3    3    0  503  0.25310917305E+02 -0.27656786194E+02 -0.64892504313E+02  0.75091061209E+02  0.47000000000E+01 0.  1.
         11    1    4    4    0    0 -0.41945399463E+02  0.83121295064E+01 -0.14718491162E+03  0.15327069596E+03  0.00000000000E+00 0. -1.
        -12    1    4    4    0    0 -0.61825950050E+02  0.91719055714E+02 -0.14109517932E+03  0.17928380548E+03  0.00000000000E+00 0.  1.
</event>
<event>
12    1  0.8271773E-002  0.1772130E+03  0.7818608E-02  0.1170635E+00
         21   -1    0    0  501  502  0.00000000000E+00  0.00000000000E+00  0.15772869899E+03  0.15772869899E+03  0.00000000000E+00 0. -1.
         21   -1    0    0  502  503 -0.00000000000E+00 -0.00000000000E+00 -0.27732770608E+03  0.27732770608E+03  0.00000000000E+00 0. -1.
         -6    2    1    2    0  503 -0.16655152300E+02  0.41456732303E+02 -0.17563398125E+03  0.24919526153E+03  0.17104072103E+03 0.  0.
        -24    2    3    3    0    0 -0.49325670820E+02  0.76157312224E+02 -0.92195858645E+02  0.15298973502E+03  0.81687359269E+02 0.  0.
          6    2    1    2  501    0  0.16655152300E+02 -0.41456732303E+02  0.56034974147E+02  0.18586114354E+03  0.17148875065E+03 0.  0.
         24    2    5    5    0    0  0.15477838256E+02 -0.89684096770E+02  0.12437279251E+02  0.12066824706E+03  0.78251768299E+02 0.  0.
          5    1    5    5  501    0  0.11773140446E+01  0.48227364466E+02  0.43597694896E+02  0.65192896484E+02  0.47000000000E+01 0. -1.
        -11    1    6    6    0    0 -0.31419701221E+02 -0.32479105492E+02 -0.22794720509E+01  0.45246943667E+02  0.00000000000E+00 0.  1.
         12    1    6    6    0    0  0.46897539476E+02 -0.57204991278E+02  0.14716751302E+02  0.75421303389E+02  0.00000000000E+00 0. -1.
         -5    1    3    3    0  503  0.32670518519E+02 -0.34700579921E+02 -0.83438122601E+02  0.96205526506E+02  0.47000000000E+01 0.  1.
         11    1    4    4    0    0 -0.18263910132E+02  0.35598362499E+02  0.77411676696E+01  0.40752171755E+02  0.00000000000E+00 0. -1.
        -12    1    4    4    0    0 -0.31061760688E+02  0.40558949725E+02 -0.99937026315E+02  0.11223756327E+03  0.00000000000E+00 0.  1.
</event>
<event>
12    1  0.8271773E-002  0.1947623E+03  0.7818608E-02  0.1154363E+00
         21   -1    0    0  501  502  0.00000000000E+00  0.00000000000E+00  0.29693429363E+02  0.29693429363E+02  0.00000000000E+00 0. -1.
         21   -1    0    0  502  503 -0.00000000000E+00 -0.00000000000E+00 -0.17973323286E+04  0.17973323286E+04  0.00000000000E+00 0. -1.
         -6    2    1    2    0  503  0.32112362845E+02  0.82851644877E+02 -0.13759864841E+04  0.13896197965E+04  0.17265218110E+03 0.  0.
        -24    2    3    3    0    0 -0.14331716592E+02  0.32700995578E+02 -0.35095870693E+03  0.36230476497E+03  0.82571033297E+02 0.  0.
          6    2    1    2  501    0 -0.32112362845E+02 -0.82851644877E+02 -0.39165241515E+03  0.43740596143E+03  0.17331117070E+03 0.  0.
         24    2    5    5    0    0 -0.48224268759E+02 -0.71258244062E+02 -0.39946780176E+03  0.41556172369E+03  0.75589047523E+02 0.  0.
          5    1    5    5  501    0  0.16111905914E+02 -0.11593400815E+02  0.78153866071E+01  0.21844237740E+02  0.47000000000E+01 0. -1.
        -11    1    6    6    0    0 -0.25429650971E+02 -0.38326324847E+02 -0.70580884840E+02  0.84245092614E+02  0.00000000000E+00 0.  1.
         12    1    6    6    0    0 -0.22794617789E+02 -0.32931919215E+02 -0.32888691692E+03  0.33131663107E+03  0.00000000000E+00 0. -1.
         -5    1    3    3    0  503  0.46444079437E+02  0.50150649299E+02 -0.10250277772E+04  0.10273150316E+04  0.47000000000E+01 0.  1.
         13    1    4    4    0    0 -0.24295590819E+02 -0.21399372899E+02 -0.17422514075E+03  0.17720781180E+03  0.00000000000E+00 0. -1.
        -14    1    4    4    0    0  0.99638742269E+01  0.54100368477E+02 -0.17673356618E+03  0.18509695317E+03  0.00000000000E+00 0.  1.
</event>
<event>
12    1  0.8271773E-002  0.2010398E+03  0.7818608E-02  0.1149450E+00
         21   -1    0    0  503  502  0.00000000000E+00  0.00000000000E+00  0.16773060063E+03  0.16773060063E+03  0.00000000000E+00 0. -1.
         21   -1    0    0  501  503 -0.00000000000E+00 -0.00000000000E+00 -0.26591817519E+03  0.26591817519E+03  0.00000000000E+00 0. -1.
          6    2    1    2  501    0 -0.94862811469E+02  0.51240598613E+02  0.21904990734E+02  0.19947102822E+03  0.16638602866E+03 0.  0.
         24    2    3    3    0    0 -0.20809674653E+02 -0.67008546244E+01  0.55606217893E+02  0.99476319419E+02  0.79533280110E+02 0.  0.
         -6    2    1    2    0  502  0.94862811469E+02 -0.51240598613E+02 -0.12009256529E+03  0.23417774761E+03  0.16968335596E+03 0.  0.
        -24    2    5    5    0    0  0.12201347082E+03 -0.19138279872E+02 -0.54962002823E+02  0.15651310096E+03  0.78879453586E+02 0.  0.
          5    1    3    3  501    0 -0.74053136817E+02  0.57941453237E+02 -0.33701227159E+02  0.99994708798E+02  0.47000000000E+01 0. -1.
        -13    1    4    4    0    0 -0.27395879407E+02 -0.28147078114E+02 -0.25407860160E+00  0.39279215506E+02  0.00000000000E+00 0.  1.
         14    1    4    4    0    0  0.65862047546E+01  0.21446223490E+02  0.55860296495E+02  0.60197103913E+02  0.00000000000E+00 0. -1.
         -5    1    5    5    0  502 -0.27150659356E+02 -0.32102318741E+02 -0.65130562468E+02  0.77664646651E+02  0.47000000000E+01 0.  1.
         13    1    6    6    0    0  0.61445698039E+02 -0.47368653331E+02 -0.42749358065E+02  0.88582564542E+02  0.00000000000E+00 0. -1.
        -14    1    6    6    0    0  0.60567772786E+02  0.28230373458E+02 -0.12212644758E+02  0.67930536417E+02  0.00000000000E+00 0.  1.
</event>
<event>
12    1  0.8271773E-002  0.2369978E+03  0.7818608E-02  0.1121890E+00
         21   -1    0    0  503  502  0.00000000000E+00  0.00000000000E+00  0.30552521803E+02  0.30552521803E+02  0.00000000000E+00 0. -1.
         21   -1    0    0  501  503 -0.00000000000E+00 -0.00000000000E+00 -0.18717187104E+04  0.18717187104E+04  0.00000000000E+00 0. -1.
          6    2    1    2  501    0 -0.22028080450E+02  0.15890292038E+03 -0.78774189572E+03  0.82262096408E+03  0.17444936755E+03 0.  0.
         24    2    3    3    0    0 -0.33394574060E+02  0.68282446576E+01 -0.28523205989E+03  0.29745991328E+03  0.77222079208E+02 0.  0.
         -6    2    1    2    0  502  0.22028080450E+02 -0.15890292038E+03 -0.10534242929E+04  0.10796502682E+04  0.17380042060E+03 0.  0.
        -24    2    5    5    0    0  0.50723297020E+02 -0.17602977838E+03 -0.80144290037E+03  0.82541915891E+03  0.73801962112E+02 0.  0.
          5    1    3    3  501    0  0.11366493610E+02  0.15207467572E+03 -0.50250983583E+03  0.52516105081E+03  0.47000000000E+01 0. -1.
        -13    1    4    4    0    0  0.15284729525E+02 -0.20550175108E+02 -0.12969138833E+03  0.13219602437E+03  0.00000000000E+00 0.  1.
         14    1    4    4    0    0 -0.48679303585E+02  0.27378419766E+02 -0.15554067156E+03  0.16526388890E+03  0.00000000000E+00 0. -1.
         -5    1    5    5    0  502 -0.28695216570E+02  0.17126858002E+02 -0.25198139255E+03  0.25423110925E+03  0.47000000000E+01 0.  1.
         11    1    6    6    0    0  0.95648465152E+00 -0.86121104830E+02 -0.48853639161E+03  0.49607012154E+03  0.00000000000E+00 0. -1.
        -12    1    6    6    0    0  0.49766812369E+02 -0.89908673553E+02 -0.31290650876E+03  0.32934903737E+03  0.00000000000E+00 0.  1.
</event>
<event>
12    1  0.8271773E-002  0.2679081E+03  0.7818608E-02  0.1102510E+00
         21   -1    0    0  503  502  0.00000000000E+00  0.00000000000E+00  0.71753507980E+02  0.71753507980E+02  0.00000000000E+00 0.  1.
         21   -1    0    0  501  503 -0.00000000000E+00 -0.00000000000E+00 -0.19009628380E+04  0.19009628380E+04  0.00000000000E+00 0. -1.
          6    2    1    2  501    0  0.19722243099E+03  0.61615582771E+02 -0.15939708073E+04  0.16163284570E+04  0.17053321919E+03 0.  0.
         24    2    3    3    0    0  0.97163940493E+02  0.83742343553E+02 -0.67401041776E+03  0.69066625970E+03  0.79222645790E+02 0.  0.
         -6    2    1    2    0  502 -0.19722243099E+03 -0.61615582771E+02 -0.23523852266E+03  0.35638788899E+03  0.17024099843E+03 0.  0.
        -24    2    5    5    0    0 -0.35005804567E+02 -0.34563318514E+02 -0.26959182759E+02  0.90966653365E+02  0.71610789337E+02 0.  0.
          5    1    3    3  501    0  0.10005849049E+03 -0.22126760782E+02 -0.91996038956E+03  0.92566219725E+03  0.47000000000E+01 0. -1.
        -13    1    4    4    0    0  0.46611667254E+02  0.16803187685E+01 -0.12842089905E+03  0.13662868772E+03  0.00000000000E+00 0.  1.
         14    1    4    4    0    0  0.50552273240E+02  0.82062024785E+02 -0.54558951871E+03  0.55403757198E+03  0.00000000000E+00 0. -1.
         -5    1    5    5    0  502 -0.16221662642E+03 -0.27052264257E+02 -0.20827933990E+03  0.26542123562E+03  0.47000000000E+01 0.  1.
         11    1    6    6    0    0 -0.83065110780E+01 -0.46086622154E+02  0.57718398942E+01  0.47183567093E+02  0.00000000000E+00 0. -1.
        -12    1    6    6    0    0 -0.26699293489E+02  0.11523303640E+02 -0.32731022653E+02  0.43783086272E+02  0.00000000000E+00 0.  1.
</event>
<event>
12    1  0.8271773E-002  0.3819380E+03  0.7818608E-02  0.1050288E+00
         21   -1    0    0  503  502  0.00000000000E+00  0.00000000000E+00  0.10578827881E+03  0.10578827881E+03  0.00000000000E+00 0.  1.
         21   -1    0    0  501  503 -0.00000000000E+00 -0.00000000000E+00 -0.14716764378E+04  0.14716764378E+04  0.00000000000E+00 0. -1.
          6    2    1    2  501    0 -0.42699489018E+02 -0.33732786988E+03 -0.88436280524E+03  0.96331416516E+03  0.17396341960E+03 0.  0.
         24    2    3    3    0    0 -0.35769740061E+02 -0.25367031402E+03 -0.46928019702E+03  0.53980233567E+03  0.74394595005E+02 0.  0.
         -6    2    1    2    0  502  0.42699489018E+02  0.33732786988E+03 -0.48152535372E+03  0.61415055141E+03  0.17233947708E+03 0.  0.
        -24    2    5    5    0    0  0.94603369829E+02  0.25970300223E+03 -0.37686651049E+03  0.47381097614E+03  0.77929631275E+02 0.  0.
          5    1    3    3  501    0 -0.69297489570E+01 -0.83657555857E+02 -0.41508260822E+03  0.42351182949E+03  0.47000000000E+01 0. -1.
        -13    1    4    4    0    0 -0.43329622415E+02 -0.74993732721E+02 -0.12879963703E+03  0.15521231467E+03  0.00000000000E+00 0.  1.
         14    1    4    4    0    0  0.75598823537E+01 -0.17867658130E+03 -0.34048055999E+03  0.38459002100E+03  0.00000000000E+00 0. -1.
         -5    1    5    5    0  502 -0.51903880811E+02  0.77624867649E+02 -0.10465884324E+03  0.14033957527E+03  0.47000000000E+01 0.  1.
         13    1    6    6    0    0  0.57152698159E+02  0.11159950843E+03 -0.22968799319E+03  0.26168197379E+03  0.00000000000E+00 0. -1.
        -14    1    6    6    0    0  0.37450671670E+02  0.14810349380E+03 -0.14717851730E+03  0.21212900235E+03  0.00000000000E+00 0.  1.
</event>
<event>
12    1  0.8271773E-002  0.2428208E+03  0.7818608E-02  0.1118150E+00
         21   -1    0    0  501  502  0.00000000000E+00  0.00000000000E+00  0.44471327527E+02  0.44471327527E+02  0.00000000000E+00 0. -1.
         21   -1    0    0  502  503 -0.00000000000E+00 -0.00000000000E+00 -0.22691357895E+04  0.22691357895E+04  0.00000000000E+00 0. -1.
         -6    2    1    2    0  503 -0.12069687222E+03 -0.12048963713E+03 -0.18628947216E+04  0.18786534259E+04  0.17284809313E+03 0.  0.
        -24    2    3    3    0    0 -0.60765465414E+02 -0.10565782144E+03 -0.16625992799E+04  0.16690058401E+04  0.80548815479E+02 0.  0.
          6    2    1    2  501    0  0.12069687222E+03  0.12048963713E+03 -0.36176974036E+03  0.43495369110E+03  0.17094408660E+03 0.  0.
         24    2    5    5    0    0  0.66517581368E+02  0.99189415003E+02 -0.34514650371E+03  0.37422876198E+03  0.81596130957E+02 0.  0.
          5    1    5    5  501    0  0.54179290855E+02  0.21300222126E+02 -0.16623236642E+02  0.60724929120E+02  0.47000000000E+01 0. -1.
        -13    1    6    6    0    0  0.51167744649E+02  0.75998893406E+01 -0.12798973526E+03  0.13804806679E+03  0.00000000000E+00 0.  1.
         14    1    6    6    0    0  0.15349836719E+02  0.91589525662E+02 -0.21715676845E+03  0.23618069519E+03  0.00000000000E+00 0. -1.
         -5    1    3    3    0  503 -0.59931406808E+02 -0.14831815685E+02 -0.20029544167E+03  0.20964758580E+03  0.47000000000E+01 0.  1.
         11    1    4    4    0    0 -0.66230744911E+00 -0.76707205231E+02 -0.72858981097E+03  0.73261691670E+03  0.00000000000E+00 0. -1.
        -12    1    4    4    0    0 -0.60103157965E+02 -0.28950616213E+02 -0.93400946897E+03  0.93638892342E+03  0.00000000000E+00 0.  1.
</event>
<event>
12    1  0.8271773E-002  0.2486943E+03  0.7818608E-02  0.1114242E+00
         21   -1    0    0  503  502  0.00000000000E+00  0.00000000000E+00  0.16782255374E+03  0.16782255374E+03  0.00000000000E+00 0. -1.
         21   -1    0    0  501  503 -0.00000000000E+00 -0.00000000000E+00 -0.85231073389E+03  0.85231073389E+03  0.00000000000E+00 0.  1.
          6    2    1    2  501    0 -0.41719657021E+02  0.17528193828E+03 -0.72672424889E+03  0.76787799921E+03  0.17042359018E+03 0.  0.
         24    2    3    3    0    0  0.32952037726E+02  0.11043087308E+03 -0.51813735044E+03  0.53698385278E+03  0.81268257682E+02 0.  0.
         -6    2    1    2    0  502  0.41719657021E+02 -0.17528193828E+03  0.42236068740E+02  0.25225528842E+03  0.17141924444E+03 0.  0.
        -24    2    5    5    0    0 -0.20354460826E+02 -0.14089954926E+03 -0.89148813484E+01  0.16465474917E+03  0.82247943798E+02 0.  0.
          5    1    3    3  501    0 -0.74671694746E+02  0.64851065196E+02 -0.20858689845E+03  0.23089414643E+03  0.47000000000E+01 0. -1.
        -11    1    4    4    0    0  0.15572418419E+02  0.82111224784E+02 -0.19516363018E+03  0.21230543091E+03  0.00000000000E+00 0.  1.
         12    1    4    4    0    0  0.17379619307E+02  0.28319648300E+02 -0.32297372026E+03  0.32467842187E+03  0.00000000000E+00 0. -1.
         -5    1    5    5    0  502  0.62074117846E+02 -0.34382389021E+02  0.51150950088E+02  0.87600539246E+02  0.47000000000E+01 0.  1.
         13    1    6    6    0    0  0.25267348632E+02 -0.96207959946E+02 -0.14605090698E+02  0.10053715302E+03  0.00000000000E+00 0. -1.
        -14    1    6    6    0    0 -0.45621809458E+02 -0.44691589312E+02  0.56902093498E+01  0.64117596149E+02  0.00000000000E+00 0.  1.
</event>
<event>
12    1  0.8271773E-002  0.1950825E+03  0.7818608E-02  0.1154768E+00
         21   -1    0    0  503  502  0.00000000000E+00  0.00000000000E+00  0.41650594339E+03  0.41650594339E+03  0.00000000000E+00 0. -1.
         21   -1    0    0  501  503 -0.00000000000E+00 -0.00000000000E+00 -0.95596993586E+02  0.95596993586E+02  0.00000000000E+00 0. -1.
          6    2    1    2  501    0  0.23295112694E+02  0.88793607712E+02  0.98036405580E+02  0.21833074941E+03  0.17213428558E+03 0.  0.
         24    2    3    3    0    0  0.48399576222E+02 -0.67978130178E+01  0.64342050902E+02  0.11380633435E+03  0.80145199384E+02 0.  0.
         -6    2    1    2    0  502 -0.23295112694E+02 -0.88793607712E+02  0.22287254422E+03  0.29377218756E+03  0.16793736979E+03 0.  0.
        -24    2    5    5    0    0 -0.49753282374E+02 -0.10294293324E+03  0.21706580433E+03  0.26285218782E+03  0.94345496050E+02 0.  0.
          5    1    3    3  501    0 -0.25104463529E+02  0.95591420730E+02  0.33694354678E+02  0.10452441506E+03  0.47000000000E+01 0. -1.
        -13    1    4    4    0    0  0.39623310177E+02 -0.12810240688E+02 -0.65202024114E+01  0.42149994251E+02  0.00000000000E+00 0.  1.
         14    1    4    4    0    0  0.87762660458E+01  0.60124276702E+01  0.70862253314E+02  0.71656340102E+02  0.00000000000E+00 0. -1.
         -5    1    5    5    0  502  0.26458169681E+02  0.14149325523E+02  0.58067398917E+01  0.30919999738E+02  0.47000000000E+01 0.  1.
         11    1    6    6    0    0 -0.99417842687E+01 -0.22482277910E+02  0.14682032609E+03  0.14886403208E+03  0.00000000000E+00 0. -1.
        -12    1    6    6    0    0 -0.39811498106E+02 -0.80460655325E+02  0.70245478242E+02  0.11398815575E+03  0.00000000000E+00 0.  1.
</event>
<event>
12    1  0.8271773E-002  0.1791492E+03  0.7818608E-02  0.1169060E+00
         21   -1    0    0  501  502  0.00000000000E+00  0.00000000000E+00  0.36746674394E+02  0.36746674394E+02  0.00000000000E+00 0.  1.
         21   -1    0    0  502  503 -0.00000000000E+00 -0.00000000000E+00 -0.13923441778E+04  0.13923441778E+04  0.00000000000E+00 0.  1.
         -6    2    1    2    0  503 -0.42530756951E+02  0.55874609027E+01 -0.23590006274E+03  0.29515223651E+03  0.17212181183E+03 0.  0.
        -24    2    3    3    0    0 -0.31129378958E+02  0.50818193354E+02 -0.22611053437E+03  0.24725927832E+03  0.80371947539E+02 0.  0.
          6    2    1    2  501    0  0.42530756951E+02 -0.55874609027E+01 -0.11196974406E+04  0.11339386157E+04  0.17393774894E+03 0.  0.
         24    2    5    5    0    0  0.72786111702E+02  0.42147874944E+02 -0.63303447466E+03  0.64398251432E+03  0.83105783379E+02 0.  0.
          5    1    5    5  501    0 -0.30255354751E+02 -0.47735335846E+02 -0.48666296599E+03  0.48995610135E+03  0.47000000000E+01 0. -1.
        -13    1    6    6    0    0  0.54360757327E+02  0.28543797077E-01 -0.50550703915E+03  0.50842153710E+03  0.00000000000E+00 0.  1.
         14    1    6    6    0    0  0.18425354376E+02  0.42119331146E+02 -0.12752743550E+03  0.13556097723E+03  0.00000000000E+00 0. -1.
         -5    1    3    3    0  503 -0.11401377993E+02 -0.45230732451E+02 -0.97895283681E+01  0.47892958186E+02  0.47000000000E+01 0.  1.
         11    1    4    4    0    0  0.13965890734E+02  0.42697916584E+01 -0.13308227795E+03  0.13388117840E+03  0.00000000000E+00 0. -1.
        -12    1    4    4    0    0 -0.45095269693E+02  0.46548401695E+02 -0.93028256422E+02  0.11337809992E+03  0.00000000000E+00 0.  1.
</event>
<event>
12    1  0.8271773E-002  0.2254917E+03  0.7818608E-02  0.1130222E+00
         21   -1    0    0  501  502  0.00000000000E+00  0.00000000000E+00  0.28165027996E+03  0.28165027996E+03  0.00000000000E+00 0.  1.
         21   -1    0    0  502  503 -0.00000000000E+00 -0.00000000000E+00 -0.23674589107E+03  0.23674589107E+03  0.00000000000E+00 0. -1.
         -6    2    1    2    0  503  0.13551388290E+03 -0.53883582222E+02  0.15048897293E+03  0.26940903959E+03  0.16931286645E+03 0.  0.
        -24    2    3    3    0    0  0.15768311401E+03 -0.67125664845E+02  0.15296193559E+03  0.24304555908E+03  0.79397548594E+02 0.  0.
          6    2    1    2  501    0 -0.13551388290E+03  0.53883582222E+02 -0.10558458405E+03  0.24898713145E+03  0.17198556435E+03 0.  0.
         24    2    5    5    0    0 -0.40248973843E+02  0.35163587163E+02  0.21025899089E+02  0.89368380814E+02  0.68470148964E+02 0.  0.
          5    1    5    5  501    0 -0.95264909058E+02  0.18719995059E+02 -0.12661048314E+03  0.15961875063E+03  0.47000000000E+01 0. -1.
        -13    1    6    6    0    0  0.57990760327E+01 -0.16238278149E+02  0.85206663707E+01  0.19233115075E+02  0.00000000000E+00 0.  1.
         14    1    6    6    0    0 -0.46048049876E+02  0.51401865312E+02  0.12505232719E+02  0.70135265739E+02  0.00000000000E+00 0. -1.
         -5    1    3    3    0  503 -0.22169231112E+02  0.13242082623E+02 -0.24729626534E+01  0.26363480510E+02  0.47000000000E+01 0.  1.
         13    1    4    4    0    0 -0.61132078261E+01  0.37927952235E+01 -0.10806888870E+01  0.72749222678E+01  0.00000000000E+00 0. -1.
        -14    1    4    4    0    0  0.16379632184E+03 -0.70918460069E+02  0.15404262447E+03  0.23577063681E+03  0.00000000000E+00 0.  1.
</event>
<event>
12    1  0.8271773E-002  0.1894126E+03  0.7818608E-02  0.1159365E+00
         21   -1    0    0  503  502  0.00000000000E+00  0.00000000000E+00  0.40638313054E+03  0.40638313054E+03  0.00000000000E+00 0.  1.
         21   -1    0    0  501  503 -0.00000000000E+00 -0.00000000000E+00 -0.17124785052E+03  0.17124785052E+03  0.00000000000E+00 0.  1.
          6    2    1    2  501    0 -0.75352832759E+02  0.34548374289E+02 -0.84117963076E+02  0.20725095969E+03  0.17030997919E+03 0.  0.
         24    2    3    3    0    0 -0.71781490505E+02  0.63492368097E+02 -0.72706465362E+01  0.12492168591E+03  0.79804148530E+02 0.  0.
         -6    2    1    2    0  502  0.75352832759E+02 -0.34548374289E+02  0.31925324310E+03  0.37038002137E+03  0.16848468012E+03 0.  0.
        -24    2    5    5    0    0  0.37584869441E+02 -0.71701565188E+02  0.12467152203E+03  0.16866012940E+03  0.79683837636E+02 0.  0.
          5    1    3    3  501    0 -0.35713422541E+01 -0.28943993808E+02 -0.76847316540E+02  0.82329273787E+02  0.47000000000E+01 0. -1.
        -11    1    4    4    0    0 -0.16314486823E+02  0.31441300836E+02 -0.39628480561E+02  0.53151992908E+02  0.00000000000E+00 0.  1.
         12    1    4    4    0    0 -0.55467003682E+02  0.32051067262E+02  0.32357834025E+02  0.71769692997E+02  0.00000000000E+00 0. -1.
         -5    1    5    5    0  502  0.37767963319E+02  0.37153190899E+02  0.19458172106E+03  0.20171989198E+03  0.47000000000E+01 0.  1.
         13    1    6    6    0    0  0.46831139811E+02 -0.40336162438E+02  0.30401347299E+02  0.68879631052E+02  0.00000000000E+00 0. -1.
        -14    1    6    6    0    0 -0.92462703700E+01 -0.31365402750E+02  0.94270174734E+02  0.99780498344E+02  0.00000000000E+00 0.  1.
</event>
<event>
12    1  0.8271773E-002  0.2542082E+03  0.7818608E-02  0.1110820E+00
         21   -1    0    0  503  502  0.00000000000E+00  0.00000000000E+00  0.58516573703E+03  0.58516573703E+03  0.00000000000E+00 0.  1.
         21   -1    0    0  501  503 -0.00000000000E+00 -0.00000000000E+00 -0.16547445525E+03  0.16547445525E+03  0.00000000000E+00 0.  1.
          6    2    1    2  501    0 -0.18554560485E+03  0.73773375715E+01 -0.71589402876E+01  0.25430893717E+03  0.17360929844E+03 0.  0.
         24    2    3    3    0    0 -0.34591939021E+02  0.41310272266E+02  0.39666520175E+02  0.92589528828E+02  0.64001931110E+02 0.  0.
         -6    2    1    2    0  502  0.18554560485E+03 -0.73773375715E+01  0.42685022207E+03  0.49633125512E+03  0.17222661274E+03 0.  0.
        -24    2    5    5    0    0  0.10777432470E+03  0.33415183980E+02  0.14129528829E+03  0.19754017085E+03  0.79535407348E+02 0.  0.
          5    1    3    3  501    0 -0.15095366583E+03 -0.33932934695E+02 -0.46825460463E+02  0.16171940834E+03  0.47000000000E+01 0. -1.
        -11    1    4    4    0    0 -0.15643490782E+02  0.16995617026E+00 -0.14947256067E+02  0.21637193739E+02  0.00000000000E+00 0.  1.
         12    1    4    4    0    0 -0.18948448239E+02  0.41140316096E+02  0.54613776242E+02  0.70952335089E+02  0.00000000000E+00 0. -1.
         -5    1    5    5    0  502  0.77771280154E+02 -0.40792521552E+02  0.28555493378E+03  0.29879108427E+03  0.47000000000E+01 0.  1.
         11    1    6    6    0    0  0.34041299774E+02  0.43445117303E+02  0.95097337463E+02  0.10995358976E+03  0.00000000000E+00 0. -1.
        -12    1    6    6    0    0  0.73733024926E+02 -0.10029933322E+02  0.46197950824E+02  0.87586581093E+02  0.00000000000E+00 0.  1.
</event>
<event>
12    1  0.8271773E-002  0.1775135E+03  0.7818608E-02  0.1170517E+00
         21   -1    0    0  503  502  0.00000000000E+00  0.00000000000E+00  0.57346003500E+02  0.57346003500E+02  0.00000000000E+00 0. -1.
         21   -1    0    0  501  503 -0.00000000000E+00 -0.00000000000E+00 -0.56186959626E+03  0.56186959626E+03  0.00000000000E+00 0. -1.
          6    2    1    2  501    0 -0.31956159492E+02 -0.25059617352E+02 -0.30522692452E+03  0.35309280833E+03  0.17280588905E+03 0.  0.
         24    2    3    3    0    0 -0.60167979726E+02  0.25262772694E+02 -0.25810229067E+03  0.27845320184E+03  0.81614947771E+02 0.  0.
         -6    2    1    2    0  502  0.31956159492E+02  0.25059617352E+02 -0.19929666824E+03  0.26612279143E+03  0.17161875654E+03 0.  0.
        -24    2    5    5    0    0  0.85169594666E+02  0.21157409869E+01 -0.12956212504E+03  0.17533133996E+03  0.81831523940E+02 0.  0.
          5    1    3    3  501    0  0.28211820234E+02 -0.50322390045E+02 -0.47124633852E+02  0.74639606487E+02  0.47000000000E+01 0. -1.
        -11    1    4    4    0    0  0.13354576209E+02  0.25756444257E+02 -0.99386584441E+02  0.10353469126E+03  0.00000000000E+00 0.  1.
         12    1    4    4    0    0 -0.73522555934E+02 -0.49367156393E+00 -0.15871570623E+03  0.17491851059E+03  0.00000000000E+00 0. -1.
         -5    1    5    5    0  502 -0.53213435174E+02  0.22943876365E+02 -0.69734543195E+02  0.90791451472E+02  0.47000000000E+01 0.  1.
         13    1    6    6    0    0  0.82242134171E+02  0.23659359738E+02 -0.65756924592E+02  0.10792361682E+03  0.00000000000E+00 0. -1.
        -14    1    6    6    0    0  0.29274604950E+01 -0.21543618751E+02 -0.63805200448E+02  0.67407723133E+02  0.00000000000E+00 0.  1.
</event>
<event>
12    1  0.8271773E-002  0.1891323E+03  0.7818608E-02  0.1159530E+00
         21   -1    0    0  501  502  0.00000000000E+00  0.00000000000E+00  0.16499508644E+03  0.16499508644E+03  0.00000000000E+00 0. -1.
         21   -1    0    0  502  503 -0.00000000000E+00 -0.00000000000E+00 -0.27046099772E+03  0.27046099772E+03  0.00000000000E+00 0.  1.
         -6    2    1    2    0  503  0.76025947565E+02 -0.71781680439E+01 -0.15085407009E+03  0.24095383662E+03  0.17166924629E+03 0.  0.
        -24    2    3    3    0    0  0.10186243463E+03  0.32148032855E+02 -0.81278161110E+02  0.15682910036E+03  0.81115816209E+02 0.  0.
          6    2    1    2  501    0 -0.76025947565E+02  0.71781680439E+01  0.45388158810E+02  0.19450224753E+03  0.17303054220E+03 0.  0.
         24    2    5    5    0    0 -0.19808419409E+02 -0.58227580544E+02  0.79618703179E+01  0.10036862182E+03  0.78915424668E+02 0.  0.
          5    1    5    5  501    0 -0.56217528156E+02  0.65405748588E+02  0.37426288492E+02  0.94133625717E+02  0.47000000000E+01 0. -1.
        -11    1    6    6    0    0 -0.49418526815E+02 -0.39066233272E+02  0.14140069239E+02  0.64562395655E+02  0.00000000000E+00 0.  1.
         12    1    6    6    0    0  0.29610107406E+02 -0.19161347272E+02 -0.61781989212E+01  0.35806226160E+02  0.00000000000E+00 0. -1.
         -5    1    3    3    0  503 -0.25836487070E+02 -0.39326200898E+02 -0.69575908984E+02  0.84124736268E+02  0.47000000000E+01 0.  1.
         13    1    4    4    0    0  0.76199814550E+02  0.59393747381E+02 -0.56092030685E+02  0.11171546389E+03  0.00000000000E+00 0. -1.
        -14    1    4    4    0    0  0.25662620085E+02 -0.27245714526E+02 -0.25186130425E+02  0.45113636469E+02  0.00000000000E+00 0.  1.
</event>
<event>
12    1  0.8271773E-002  0.2309544E+03  0.7818608E-02  0.1126517E+00
         21   -1    0    0  501  502  0.00000000000E+00  0.00000000000E+00  0.74687382601E+02  0.74687382601E+02  0.00000000000E+00 0. -1.
         21   -1    0    0  502  503 -0.00000000000E+00 -0.00000000000E+00 -0.70521013491E+03  0.70521013491E+03  0.00000000000E+00 0. -1.
         -6    2    1    2    0  503 -0.12977594210E+03  0.83151492939E+02 -0.30181579257E+03  0.37816600544E+03  0.16781176689E+03 0.  0.
        -24    2    3    3    0    0 -0.54063009741E+02  0.36433965407E+02 -0.26054876364E+03  0.27998233480E+03  0.79083542579E+02 0.  0.
          6    2    1    2  501    0  0.12977594210E+03 -0.83151492939E+02 -0.32870695975E+03  0.40173151207E+03  0.17199993163E+03 0.  0.
         24    2    5    5    0    0  0.14916263278E+03 -0.49377400998E+02 -0.19269223133E+03  0.26017364614E+03  0.76631660443E+02 0.  0.
          5    1    5    5  501    0 -0.19386690684E+02 -0.33774091941E+02 -0.13601472841E+03  0.14155786593E+03  0.47000000000E+01 0. -1.
        -13    1    6    6    0    0  0.27419746619E+02 -0.38900613075E+00 -0.88379569084E+02  0.92536166237E+02  0.00000000000E+00 0.  1.
         14    1    6    6    0    0  0.12174288616E+03 -0.48988394867E+02 -0.10431266225E+03  0.16763747990E+03  0.00000000000E+00 0. -1.
         -5    1    3    3    0  503 -0.75712932355E+02  0.46717527532E+02 -0.41267028921E+02  0.98183670641E+02  0.47000000000E+01 0.  1.
         13    1    4    4    0    0 -0.59448411343E+02  0.56057231474E+02 -0.19765158977E+03  0.21387537902E+03  0.00000000000E+00 0. -1.
        -14    1    4    4    0    0  0.53854016020E+01 -0.19623266067E+02 -0.62897173875E+02  0.66106955783E+02  0.00000000000E+00 0.  1.
</event>
<event>
12    1  0.8271773E-002  0.2509114E+03  0.7818608E-02  0.1113653E+00
         21   -1    0    0  503  502  0.00000000000E+00  0.00000000000E+00  0.84093885522E+02  0.84093885522E+02  0.00000000000E+00 0.  1.
         21   -1    0    0  501  503 -0.00000000000E+00 -0.00000000000E+00 -0.94049099333E+03  0.94049099333E+03  0.00000000000E+00 0. -1.
          6    2    1    2  501    0  0.15729026794E+03  0.92373746371E+02 -0.67359566949E+03  0.71880987349E+03  0.17228862663E+03 0.  0.
         24    2    3    3    0    0  0.46542794188E+02 -0.84443918390E+01 -0.17320485019E+03  0.19646672768E+03  0.79760363041E+02 0.  0.
         -6    2    1    2    0  502 -0.15729026794E+03 -0.92373746371E+02 -0.18280143832E+03  0.30577500536E+03  0.16373408517E+03 0.  0.
        -24    2    5    5    0    0 -0.24541068000E+02 -0.23593614529E+02 -0.28923974940E+02  0.91174398753E+02  0.79481142396E+02 0.  0.
          5    1    3    3  501    0  0.11074747375E+03  0.10081813821E+03 -0.50039081930E+03  0.52234314581E+03  0.47000000000E+01 0. -1.
        -11    1    4    4    0    0  0.18008109205E+02  0.35173454508E+02 -0.89875404916E+02  0.98178675424E+02  0.00000000000E+00 0.  1.
         12    1    4    4    0    0  0.28534684983E+02 -0.43617846347E+02 -0.83329445275E+02  0.98288052259E+02  0.00000000000E+00 0. -1.
         -5    1    5    5    0  502 -0.13274919994E+03 -0.68780131842E+02 -0.15387746338E+03  0.21460060661E+03  0.47000000000E+01 0.  1.
         11    1    6    6    0    0 -0.18155958633E+02  0.22628904626E+02 -0.33467830686E+02  0.44292232381E+02  0.00000000000E+00 0. -1.
        -12    1    6    6    0    0 -0.63851093669E+01 -0.46222519155E+02  0.45438557466E+01  0.46882166372E+02  0.00000000000E+00 0.  1.
</event>
<event>
12    1  0.8271773E-002  0.1826565E+03  0.7818608E-02  0.1165553E+00
         21   -1    0    0  503  502  0.00000000000E+00  0.00000000000E+00  0.18762513966E+03  0.18762513966E+03  0.00000000000E+00 0. -1.
         21   -1    0    0  501  503 -0.00000000000E+00 -0.00000000000E+00 -0.18640541872E+03  0.18640541872E+03  0.00000000000E+00 0. -1.
          6    2    1    2  501    0  0.19860205298E+02 -0.55327163981E+02 -0.42256229238E+02  0.18748063178E+03  0.17293893591E+03 0.  0.
         24    2    3    3    0    0 -0.53173519193E+02 -0.43944165680E+02 -0.19636248404E+01  0.10316526229E+03  0.76685739746E+02 0.  0.
         -6    2    1    2    0  502 -0.19860205298E+02  0.55327163981E+02  0.43475950173E+02  0.18654992659E+03  0.17162515562E+03 0.  0.
        -24    2    5    5    0    0  0.47097335317E+02  0.55158991967E+02  0.66567919626E+01  0.10999222980E+03  0.82421504162E+02 0.  0.
          5    1    3    3  501    0  0.73033724491E+02 -0.11382998301E+02 -0.40292604397E+02  0.84315369491E+02  0.47000000000E+01 0. -1.
        -13    1    4    4    0    0 -0.21599729388E+02 -0.37387020222E+02  0.33929245221E+02  0.54913853188E+02  0.00000000000E+00 0.  1.
         14    1    4    4    0    0 -0.31573789805E+02 -0.65571454584E+01 -0.35892870061E+02  0.48251409103E+02  0.00000000000E+00 0. -1.
         -5    1    5    5    0  502 -0.66957540615E+02  0.16817201383E+00  0.36819158211E+02  0.76557696794E+02  0.47000000000E+01 0.  1.
         13    1    6    6    0    0  0.24764130299E+01  0.58136747417E+02 -0.15307639400E+02  0.60169243354E+02  0.00000000000E+00 0. -1.
        -14    1    6    6    0    0  0.44620922287E+02 -0.29777554503E+01  0.21964431363E+02  0.49822986446E+02  0.00000000000E+00 0.  1.
</event>
<event>
12    1  0.8271773E-002  0.2423999E+03  0.7818608E-02  0.1118981E+00
         21   -1    0    0  503  502  0.00000000000E+00  0.00000000000E+00  0.25186287063E+03  0.25186287063E+03  0.00000000000E+00 0.  1.
         21   -1    0    0  501  503 -0.00000000000E+00 -0.00000000000E+00 -0.27748101801E+03  0.27748101801E+03  0.00000000000E+00 0. -1.
          6    2    1    2  501    0 -0.16349116789E+03  0.44390041577E+02 -0.12375016862E+03  0.27216137640E+03  0.17337206465E+03 0.  0.
         24    2    3    3    0    0 -0.85532376177E+02  0.93554032835E+02 -0.64524792639E+02  0.16250552201E+03  0.78590402628E+02 0.  0.
         -6    2    1    2    0  502  0.16349116789E+03 -0.44390041577E+02  0.98132021238E+02  0.25718251225E+03  0.16677263937E+03 0.  0.
        -24    2    5    5    0    0  0.42597040421E+02  0.17395119026E+02  0.30827434334E+01  0.91383684329E+02  0.78894717414E+02 0.  0.
          5    1    3    3  501    0 -0.77958791713E+02 -0.49163991258E+02 -0.59225375977E+02  0.10965585439E+03  0.47000000000E+01 0. -1.
        -13    1    4    4    0    0  0.85459000173E+01  0.39919593506E+02 -0.16238748074E+02  0.43935216988E+02  0.00000000000E+00 0.  1.
         14    1    4    4    0    0 -0.94078276195E+02  0.53634439330E+02 -0.48286044565E+02  0.11857030503E+03  0.00000000000E+00 0. -1.
         -5    1    5    5    0  502  0.12089412747E+03 -0.61785160603E+02  0.95049277804E+02  0.16579882792E+03  0.47000000000E+01 0.  1.
         11    1    6    6    0    0  0.33735649936E+02  0.19625969309E+02 -0.34875556795E+02  0.52340970661E+02  0.00000000000E+00 0. -1.
        -12    1    6    6    0    0  0.88613904849E+01 -0.22308502827E+01  0.37958300229E+02  0.39042713668E+02  0.00000000000E+00 0.  1.
</event>
<event>
12    1  0.8271773E-002  0.2506293E+03  0.7818608E-02  0.1112913E+00
         21   -1    0    0  501  502  0.00000000000E+00  0.00000000000E+00  0.70308561034E+02  0.70308561034E+02  0.00000000000E+00 0.  1.
         21   -1    0    0  502  503 -0.00000000000E+00 -0.00000000000E+00 -0.97282402502E+03  0.97282402502E+03  0.00000000000E+00 0. -1.
         -6    2    1    2    0  503 -0.17948827857E+03  0.35559377263E+02 -0.60039394123E+03  0.65060580312E+03  0.17127321722E+03 0.  0.
        -24    2    3    3    0    0 -0.20193257142E+03  0.40651135716E+02 -0.46910844790E+03  0.51723548017E+03  0.70996674720E+02 0.  0.
          6    2    1    2  501    0  0.17948827857E+03 -0.35559377263E+02 -0.30212152276E+03  0.39252678294E+03  0.17122893842E+03 0.  0.
         24    2    5    5    0    0  0.19494096563E+03 -0.38327391322E+02 -0.30794947401E+03  0.37513418523E+03  0.80136192668E+02 0.  0.
          5    1    5    5  501    0 -0.15452687067E+02  0.27680140588E+01  0.58279512472E+01  0.17392597712E+02  0.47000000000E+01 0. -1.
        -13    1    6    6    0    0  0.81720072689E+02 -0.56662603276E+02 -0.14836396079E+03  0.17860763072E+03  0.00000000000E+00 0.  1.
         14    1    6    6    0    0  0.11322089295E+03  0.18335211954E+02 -0.15958551322E+03  0.19652655451E+03  0.00000000000E+00 0. -1.
         -5    1    3    3    0  503  0.22444292850E+02 -0.50917584526E+01 -0.13128549333E+03  0.13337032295E+03  0.47000000000E+01 0.  1.
         11    1    4    4    0    0 -0.51374414479E+02 -0.18693013519E+02 -0.94663860371E+02  0.10931608152E+03  0.00000000000E+00 0. -1.
        -12    1    4    4    0    0 -0.15055815694E+03  0.59344149235E+02 -0.37444458753E+03  0.40791939865E+03  0.00000000000E+00 0.  1.
</event>
<event>
12    1  0.8271773E-002  0.2026233E+03  0.7818608E-02  0.1148067E+00
         21   -1    0    0  501  502  0.00000000000E+00  0.00000000000E+00  0.19152208411E+02  0.19152208411E+02  0.00000000000E+00 0. -1.
         21   -1    0    0  502  503 -0.00000000000E+00 -0.00000000000E+00 -0.29617371159E+04  0.29617371159E+04  0.00000000000E+00 0. -1.
         -6    2    1    2    0  503  0.38644835675E+02  0.98619823796E+02 -0.22736688662E+04  0.22826796351E+04  0.17273364057E+03 0.  0.
        -24    2    3    3    0    0  0.32832906051E+02  0.24327517742E+02 -0.18629333037E+04  0.18652123699E+04  0.82624831991E+02 0.  0.
          6    2    1    2  501    0 -0.38644835675E+02 -0.98619823796E+02 -0.66891604127E+03  0.69820968916E+03  0.16979047909E+03 0.  0.
         24    2    5    5    0    0 -0.51918306820E+01 -0.89105163262E+01 -0.14660346421E+03  0.16717354957E+03  0.79674761060E+02 0.  0.
          5    1    5    5  501    0 -0.33453004993E+02 -0.89709307470E+02 -0.52231257706E+03  0.53103613959E+03  0.47000000000E+01 0. -1.
        -11    1    6    6    0    0  0.23998445952E+01  0.21000335844E+02 -0.13081171768E+03  0.13250841046E+03  0.00000000000E+00 0.  1.
         12    1    6    6    0    0 -0.75916752772E+01 -0.29910852171E+02 -0.15791746530E+02  0.34665139111E+02  0.00000000000E+00 0. -1.
         -5    1    3    3    0  503  0.58119296239E+01  0.74292306055E+02 -0.41073556245E+03  0.41746726522E+03  0.47000000000E+01 0.  1.
         13    1    4    4    0    0  0.12948685620E+02  0.54031590700E+02 -0.10049195440E+04  0.10064543562E+04  0.00000000000E+00 0. -1.
        -14    1    4    4    0    0  0.19884220430E+02 -0.29704072958E+02 -0.85801375971E+03  0.85875801366E+03  0.00000000000E+00 0.  1.
</event>
<event>
12    1  0.8271773E-002  0.2268354E+03  0.7818608E-02  0.1128904E+00
         21   -1    0    0  503  502  0.00000000000E+00  0.00000000000E+00  0.57907570838E+03  0.57907570838E+03  0.00000000000E+00 0. -1.
         21   -1    0    0  501  503 -0.00000000000E+00 -0.00000000000E+00 -0.14768631524E+03  0.14768631524E+03  0.00000000000E+00 0.  1.
          6    2    1    2  501    0 -0.14519675369E+03  0.32470074116E+02 -0.13750353113E+02  0.22715847629E+03  0.17110084203E+03 0.  0.
         24    2    3    3    0    0 -0.14637948739E+03  0.15371409261E+02  0.39544904851E+02  0.17097807294E+03  0.77501402402E+02 0.  0.
         -6    2    1    2    0  502  0.14519675369E+03 -0.32470074116E+02  0.44513974625E+03  0.49960354733E+03  0.17122472900E+03 0.  0.
        -24    2    5    5    0    0  0.94599009354E+02 -0.10899206989E+02  0.12980347082E+03  0.17947155792E+03  0.79330534997E+02 0.  0.
          5    1    3    3  501    0  0.11827337052E+01  0.17098664855E+02 -0.53295257964E+02  0.56180403348E+02  0.47000000000E+01 0. -1.
        -13    1    4    4    0    0 -0.14785900229E+03  0.18755395243E+01  0.23118516594E+02  0.14966719085E+03  0.00000000000E+00 0.  1.
         14    1    4    4    0    0  0.14795148985E+01  0.13495869737E+02  0.16426388257E+02  0.21310882090E+02  0.00000000000E+00 0. -1.
         -5    1    5    5    0  502  0.50597744334E+02 -0.21570867127E+02  0.31533627543E+03  0.32013198941E+03  0.47000000000E+01 0.  1.
         11    1    6    6    0    0  0.10308578604E+03 -0.58608900563E+01  0.13364155703E+03  0.16888189684E+03  0.00000000000E+00 0. -1.
        -12    1    6    6    0    0 -0.84867766851E+01 -0.50383169325E+01 -0.38380862122E+01  0.10589661080E+02  0.00000000000E+00 0.  1.
</event>
<event>
12    1  0.8271773E-002  0.2023988E+03  0.7818608E-02  0.1152376E+00
         21   -1    0    0  501  502  0.00000000000E+00  0.00000000000E+00  0.18252332199E+03  0.18252332199E+03  0.00000000000E+00 0. -1.
         21   -1    0    0  502  503 -0.00000000000E+00 -0.00000000000E+00 -0.23255645641E+03  0.23255645641E+03  0.00000000000E+00 0. -1.
         -6    2    1    2    0  503 -0.50270396073E+02 -0.30627368587E+02 -0.10176136275E+03  0.22654060764E+03  0.19364948627E+03 0.  0.
        -24    2    3    3    0    0 -0.11131273257E+03 -0.10481151218E+02 -0.57529214762E+02  0.14837021788E+03  0.78763773659E+02 0.  0.
          6    2    1    2  501    0  0.50270396073E+02  0.30627368587E+02  0.51728228330E+02  0.18853917076E+03  0.17148195496E+03 0.  0.
         24    2    5    5    0    0  0.62968823195E+02  0.80224093678E+02  0.40088148596E+02  0.13582611121E+03  0.80253940257E+02 0.  0.
          5    1    5    5  501    0 -0.12698427122E+02 -0.49596725091E+02  0.11640079734E+02  0.52713059553E+02  0.47000000000E+01 0. -1.
        -13    1    6    6    0    0 -0.15113137162E+02  0.19863259037E+02  0.26158196612E+02  0.36155320832E+02  0.00000000000E+00 0.  1.
         14    1    6    6    0    0  0.78081960358E+02  0.60360834641E+02  0.13929951984E+02  0.99670790376E+02  0.00000000000E+00 0. -1.
         -5    1    3    3    0  503  0.61042336494E+02 -0.20146217368E+02 -0.44232147987E+02  0.78170389754E+02  0.47000000000E+01 0.  1.
         13    1    4    4    0    0 -0.11060928871E+03  0.52014610583E+00 -0.70638420446E+02  0.13124203497E+03  0.00000000000E+00 0. -1.
        -14    1    4    4    0    0 -0.70344385652E+00 -0.11001297324E+02  0.13109205684E+02  0.17128182908E+02  0.00000000000E+00 0.  1.
</event>
<event>
12    1  0.8271773E-002  0.1724382E+03  0.7818608E-02  0.1175389E+00
         21   -1    0    0  501  502  0.00000000000E+00  0.00000000000E+00  0.29142115071E+03  0.29142115071E+03  0.00000000000E+00 0. -1.
         21   -1    0    0  502  503 -0.00000000000E+00 -0.00000000000E+00 -0.14521220147E+03  0.14521220147E+03  0.00000000000E+00 0. -1.
         -6    2    1    2    0  503  0.61191657968E+00 -0.11561593580E+02 -0.46168828819E+02  0.17828447624E+03  0.17181312181E+03 0.  0.
        -24    2    3    3    0    0  0.36235552266E+02 -0.57069679195E+02 -0.50925381984E+00  0.10448125094E+03  0.79662468751E+02 0.  0.
          6    2    1    2  501    0 -0.61191657968E+00  0.11561593580E+02  0.19237777806E+03  0.25834887594E+03  0.17204908404E+03 0.  0.
         24    2    5    5    0    0  0.18174605402E+02 -0.22365466180E+01  0.15303070307E+02  0.79684765924E+02  0.76027360451E+02 0.  0.
          5    1    5    5  501    0 -0.18786521981E+02  0.13798140198E+02  0.17707470775E+03  0.17866411001E+03  0.47000000000E+01 0. -1.
        -13    1    6    6    0    0  0.26630795178E+02  0.26961608333E+02  0.27612519244E+02  0.46889005051E+02  0.00000000000E+00 0.  1.
         14    1    6    6    0    0 -0.84561897768E+01 -0.29198154951E+02 -0.12309448937E+02  0.32795760872E+02  0.00000000000E+00 0. -1.
         -5    1    3    3    0  503 -0.35623635687E+02  0.45508085614E+02 -0.45659574999E+02  0.73803225301E+02  0.47000000000E+01 0.  1.
         13    1    4    4    0    0  0.21127829995E+02  0.91926347116E+01 -0.23329481512E+02  0.32789547738E+02  0.00000000000E+00 0. -1.
        -14    1    4    4    0    0  0.15107722271E+02 -0.66262313906E+02  0.22820227692E+02  0.71691703204E+02  0.00000000000E+00 0.  1.
</event>
<event>
12    1  0.8271773E-002  0.1948328E+03  0.7818608E-02  0.1154452E+00
         21   -1    0    0  503  502  0.00000000000E+00  0.00000000000E+00  0.12911526597E+03  0.12911526597E+03  0.00000000000E+00 0. -1.
         21   -1    0    0  501  503 -0.00000000000E+00 -0.00000000000E+00 -0.29663325016E+03  0.29663325016E+03  0.00000000000E+00 0. -1.
          6    2    1    2  501    0  0.88832628357E+02 -0.13994144653E+02 -0.11039691033E+03  0.22393589720E+03  0.17283731166E+03 0.  0.
         24    2    3    3    0    0 -0.52737386878E+01  0.26672016307E+02 -0.79026262237E+01  0.78894822884E+02  0.73639206969E+02 0.  0.
         -6    2    1    2    0  502 -0.88832628357E+02  0.13994144653E+02 -0.57121073858E+02  0.20181261893E+03  0.17140141229E+03 0.  0.
        -24    2    5    5    0    0 -0.76874229383E+01  0.93339468450E+01 -0.83179812209E+02  0.11632923078E+03  0.80420082931E+02 0.  0.
          5    1    3    3  501    0  0.94106367045E+02 -0.40666160960E+02 -0.10249428410E+03  0.14504107432E+03  0.47000000000E+01 0. -1.
        -13    1    4    4    0    0  0.33245546878E+02  0.16782284066E+02  0.38142550353E+01  0.37436078683E+02  0.00000000000E+00 0.  1.
         14    1    4    4    0    0 -0.38519285566E+02  0.98897322413E+01 -0.11716881259E+02  0.41458744201E+02  0.00000000000E+00 0. -1.
         -5    1    5    5    0  502 -0.81145205418E+02  0.46601978075E+01  0.26058738352E+02  0.85483388155E+02  0.47000000000E+01 0.  1.
         13    1    6    6    0    0 -0.25748796952E+02  0.34768460312E+01  0.47151096429E+01  0.26406841192E+02  0.00000000000E+00 0. -1.
        -14    1    6    6    0    0  0.18061374013E+02  0.58571008138E+01 -0.87894921852E+02  0.89922389585E+02  0.00000000000E+00 0.  1.
</event>
<event>
12    1  0.8271773E-002  0.2881678E+03  0.7818608E-02  0.1091709E+00
         21   -1    0    0  501  502  0.00000000000E+00  0.00000000000E+00  0.11649845257E+04  0.11649845257E+04  0.00000000000E+00 0.  1.
         21   -1    0    0  502  503 -0.00000000000E+00 -0.00000000000E+00 -0.96086475303E+02  0.96086475303E+02  0.00000000000E+00 0. -1.
         -6    2    1    2    0  503 -0.20547615559E+02  0.22481470887E+03  0.85752828780E+03  0.90369467942E+03  0.17419945872E+03 0.  0.
        -24    2    3    3    0    0 -0.61655434532E+00  0.20455403536E+03  0.51089016067E+03  0.55586164006E+03  0.78298614948E+02 0.  0.
          6    2    1    2  501    0  0.20547615559E+02 -0.22481470887E+03  0.21136976263E+03  0.35737632161E+03  0.17909997450E+03 0.  0.
         24    2    5    5    0    0 -0.30325408388E+01 -0.17050871049E+02  0.41913717600E+02  0.88193712072E+02  0.75640218260E+02 0.  0.
          5    1    5    5  501    0  0.23580156398E+02 -0.20776383782E+03  0.16945604503E+03  0.26918260954E+03  0.47000000000E+01 0. -1.
        -11    1    6    6    0    0 -0.35802969417E+02 -0.12029997335E+02  0.39957213304E+02  0.54983200616E+02  0.00000000000E+00 0.  1.
         12    1    6    6    0    0  0.32770428579E+02 -0.50208737145E+01  0.19565042961E+01  0.33210511456E+02  0.00000000000E+00 0. -1.
         -5    1    3    3    0  503 -0.19931061214E+02  0.20260673506E+02  0.34663812713E+03  0.34783303936E+03  0.47000000000E+01 0.  1.
         13    1    4    4    0    0  0.12345891721E+02 -0.76640856562E+00  0.42908126555E+02  0.44655523163E+02  0.00000000000E+00 0. -1.
        -14    1    4    4    0    0 -0.12962446066E+02  0.20532044393E+03  0.46798203411E+03  0.51120611690E+03  0.00000000000E+00 0.  1.
</event>
<event>
12    1  0.8271773E-002  0.2079580E+03  0.7818608E-02  0.1144394E+00
         21   -1    0    0  501  502  0.00000000000E+00  0.00000000000E+00  0.68780326994E+03  0.68780326994E+03  0.00000000000E+00 0. -1.
         21   -1    0    0  502  503 -0.00000000000E+00 -0.00000000000E+00 -0.70131348798E+02  0.70131348798E+02  0.00000000000E+00 0.  1.
         -6    2    1    2    0  503 -0.95490834404E+02 -0.53574401222E+02  0.17676748132E+03  0.27293454742E+03  0.17679878054E+03 0.  0.
        -24    2    3    3    0    0 -0.23029792983E+02 -0.67864251599E+02  0.16945018428E+03  0.19856765167E+03  0.74698188228E+02 0.  0.
          6    2    1    2  501    0  0.95490834404E+02  0.53574401222E+02  0.44090443982E+03  0.48500007132E+03  0.16982234306E+03 0.  0.
         24    2    5    5    0    0  0.36682358312E+02 -0.34469145345E+02  0.18569359465E+03  0.20865831109E+03  0.80761762618E+02 0.  0.
          5    1    5    5  501    0  0.58808476092E+02  0.88043546567E+02  0.25521084517E+03  0.27634176022E+03  0.47000000000E+01 0. -1.
        -13    1    6    6    0    0  0.19416286770E+02  0.16348933139E+02  0.12537426569E+03  0.12791788892E+03  0.00000000000E+00 0.  1.
         14    1    6    6    0    0  0.17266071542E+02 -0.50818078483E+02  0.60319328961E+02  0.80740422178E+02  0.00000000000E+00 0. -1.
         -5    1    3    3    0  503 -0.72461041422E+02  0.14289850376E+02  0.73172970334E+01  0.74366895750E+02  0.47000000000E+01 0.  1.
         11    1    4    4    0    0  0.10600007127E+02  0.12448416695E+02  0.23753221590E+02  0.28836413875E+02  0.00000000000E+00 0. -1.
        -12    1    4    4    0    0 -0.33629800109E+02 -0.80312668293E+02  0.14569696269E+03  0.16973123779E+03  0.00000000000E+00 0.  1.
</event>
<event>
12    1  0.8271773E-002  0.3459898E+03  0.7818608E-02  0.1064619E+00
         21   -1    0    0  503  502  0.00000000000E+00  0.00000000000E+00  0.54873795333E+03  0.54873795333E+03  0.00000000000E+00 0. -1.
         21   -1    0    0  501  503 -0.00000000000E+00 -0.00000000000E+00 -0.25637984068E+03  0.25637984068E+03  0.00000000000E+00 0.  1.
          6    2    1    2  501    0 -0.16109732576E+03  0.25363134752E+03 -0.12837358896E+02  0.34622786736E+03  0.17154512391E+03 0.  0.
         24    2    3    3    0    0 -0.57895219255E+02  0.71544927524E+02  0.50408084527E+02  0.12753123902E+03  0.72475574313E+02 0.  0.
         -6    2    1    2    0  502  0.16109732576E+03 -0.25363134752E+03  0.30519547155E+03  0.45888992665E+03  0.16478616480E+03 0.  0.
        -24    2    5    5    0    0  0.11346325027E+03 -0.23651998782E+03  0.30192781987E+03  0.40795299185E+03  0.80309534607E+02 0.  0.
          5    1    3    3  501    0 -0.10320210651E+03  0.18208642000E+03 -0.63245443423E+02  0.21869662834E+03  0.47000000000E+01 0. -1.
        -11    1    4    4    0    0 -0.26705055438E+02  0.70453247828E+02  0.92972419800E+01  0.75916130196E+02  0.00000000000E+00 0.  1.
         12    1    4    4    0    0 -0.31190163817E+02  0.10916796959E+01  0.41110842547E+02  0.51615108819E+02  0.00000000000E+00 0. -1.
         -5    1    5    5    0  502  0.47634075497E+02 -0.17111359696E+02  0.32676516853E+01  0.50936934798E+02  0.47000000000E+01 0.  1.
         11    1    6    6    0    0  0.10095570134E+03 -0.11869634575E+03  0.17479101073E+03  0.23416398860E+03  0.00000000000E+00 0. -1.
        -12    1    6    6    0    0  0.12507548930E+02 -0.11782364208E+03  0.12713680914E+03  0.17378900325E+03  0.00000000000E+00 0.  1.
</event>
<event>
12    1  0.8271773E-002  0.2064424E+03  0.7818608E-02  0.1145461E+00
         21   -1    0    0  501  502  0.00000000000E+00  0.00000000000E+00  0.11653958148E+03  0.11653958148E+03  0.00000000000E+00 0.  1.
         21   -1    0    0  502  503 -0.00000000000E+00 -0.00000000000E+00 -0.38745327937E+03  0.38745327937E+03  0.00000000000E+00 0. -1.
         -6    2    1    2    0  503 -0.97468455265E+02 -0.59839514919E+02 -0.66045115089E+02  0.21674964617E+03  0.17186501846E+03 0.  0.
        -24    2    3    3    0    0 -0.31656477877E+00 -0.68021141580E+02 -0.98448720297E+01  0.10411756300E+03  0.78208500203E+02 0.  0.
          6    2    1    2  501    0  0.97468455265E+02  0.59839514919E+02 -0.20486858280E+03  0.28724321467E+03  0.16570051550E+03 0.  0.
         24    2    5    5    0    0 -0.10910392278E+02  0.35486693122E+02 -0.10791837360E+03  0.13972891845E+03  0.80619186570E+02 0.  0.
          5    1    5    5  501    0  0.10837884754E+03  0.24352821796E+02 -0.96950209204E+02  0.14751429622E+03  0.47000000000E+01 0. -1.
        -13    1    6    6    0    0 -0.11607072971E+02  0.16058128252E+02  0.86000708194E+01  0.21599741758E+02  0.00000000000E+00 0.  1.
         14    1    6    6    0    0  0.69668069247E+00  0.19428564871E+02 -0.11651844442E+03  0.11812917669E+03  0.00000000000E+00 0. -1.
         -5    1    3    3    0  503 -0.97151890487E+02  0.81816266619E+01 -0.56200243059E+02  0.11263208317E+03  0.47000000000E+01 0.  1.
         11    1    4    4    0    0 -0.24199196568E+02 -0.73802729326E+02 -0.14758635264E+02  0.79058594001E+02  0.00000000000E+00 0. -1.
        -12    1    4    4    0    0  0.23882631789E+02  0.57815877460E+01  0.49137632346E+01  0.25058968996E+02  0.00000000000E+00 0.  1.
</event>
<event>
12    1  0.8271773E-002  0.2674621E+03  0.7818608E-02  0.1102793E+00
         21   -1    0    0  503  502  0.00000000000E+00  0.00000000000E+00  0.87938049790E+03  0.87938049790E+03  0.00000000000E+00 0.  1.
         21   -1    0    0  501  503 -0.00000000000E+00 -0.00000000000E+00 -0.90241109163E+02  0.90241109163E+02  0.00000000000E+00 0. -1.
          6    2    1    2  501    0 -0.16777040969E+03 -0.11731780752E+03  0.24121764349E+03  0.35990510722E+03  0.17156735221E+03 0.  0.
         24    2    3    3    0    0 -0.12937271406E+03 -0.11184608062E+03  0.10270039460E+03  0.21598345817E+03  0.82792742797E+02 0.  0.
         -6    2    1    2    0  502  0.16777040969E+03  0.11731780752E+03  0.54792174525E+03  0.60971649985E+03  0.17212086724E+03 0.  0.
        -24    2    5    5    0    0  0.43812992723E+02  0.37429916936E+02  0.34197153020E+03  0.35636872038E+03  0.82058274316E+02 0.  0.
          5    1    3    3  501    0 -0.38397695627E+02 -0.54717268964E+01  0.13851724889E+03  0.14392164905E+03  0.47000000000E+01 0. -1.
        -11    1    4    4    0    0 -0.21659653100E+02 -0.65305874693E+02  0.17555307103E+02  0.71008356194E+02  0.00000000000E+00 0.  1.
         12    1    4    4    0    0 -0.10771306096E+03 -0.46540205929E+02  0.85145087496E+02  0.14497510198E+03  0.00000000000E+00 0. -1.
         -5    1    5    5    0  502  0.12395741696E+03  0.79887890583E+02  0.20595021505E+03  0.25334777947E+03  0.47000000000E+01 0.  1.
         11    1    6    6    0    0  0.39243376994E+02 -0.80722115350E+01  0.25479226290E+03  0.25792305145E+03  0.00000000000E+00 0. -1.
        -12    1    6    6    0    0  0.45696157295E+01  0.45502128471E+02  0.87179267299E+02  0.98445668925E+02  0.00000000000E+00 0.  1.
</event>
<event>
12    1  0.8271773E-002  0.1851269E+03  0.7818608E-02  0.1163156E+00
         21   -1    0    0  503  502  0.00000000000E+00  0.00000000000E+00  0.22423753982E+03  0.22423753982E+03  0.00000000000E+00 0. -1.
         21   -1    0    0  501  503 -0.00000000000E+00 -0.00000000000E+00 -0.16717101355E+03  0.16717101355E+03  0.00000000000E+00 0. -1.
          6    2    1    2  501    0  0.51850146862E+02 -0.41345195688E+02  0.87332013122E+02  0.20382397697E+03  0.17181231079E+03 0.  0.
         24    2    3    3    0    0  0.28268185743E+02  0.27560327212E+02 -0.19584955737E-01  0.89997478904E+02  0.80875730997E+02 0.  0.
         -6    2    1    2    0  502 -0.51850146862E+02  0.41345195688E+02 -0.30265486856E+02  0.18758457639E+03  0.17284128751E+03 0.  0.
        -24    2    5    5    0    0 -0.86338854703E+02 -0.15379496452E+02 -0.17607131533E+02  0.11983883389E+03  0.79752167906E+02 0.  0.
          5    1    3    3  501    0  0.23581961119E+02 -0.68905522899E+02  0.87351598078E+02  0.11382649807E+03  0.47000000000E+01 0. -1.
        -13    1    4    4    0    0 -0.11820924301E+02  0.24171735339E+02 -0.29644437463E+02  0.40034981118E+02  0.00000000000E+00 0.  1.
         14    1    4    4    0    0  0.40089110044E+02  0.33885918728E+01  0.29624852507E+02  0.49962497786E+02  0.00000000000E+00 0. -1.
         -5    1    5    5    0  502  0.34488707841E+02  0.56724692139E+02 -0.12658355324E+02  0.67745742496E+02  0.47000000000E+01 0.  1.
         13    1    6    6    0    0 -0.51075828526E+01 -0.29675203308E+02 -0.21922366988E+02  0.37246412825E+02  0.00000000000E+00 0. -1.
        -14    1    6    6    0    0 -0.81231271850E+02  0.14295706856E+02  0.43152354558E+01  0.82592421069E+02  0.00000000000E+00 0.  1.
</event>
<event>
12    1  0.8271773E-002  0.2331597E+03  0.7818608E-02  0.1124574E+00
         21   -1    0    0  503  502  0.00000000000E+00  0.00000000000E+00  0.13671327565E+03  0.13671327565E+03  0.00000000000E+00 0. -1.
         21   -1    0    0  501  503 -0.00000000000E+00 -0.00000000000E+00 -0.45519843406E+03  0.45519843406E+03  0.00000000000E+00 0.  1.
          6    2    1    2  501    0 -0.60043962927E+02 -0.14037743504E+03 -0.26595056809E+03  0.35368509052E+03  0.17621673258E+03 0.  0.
         24    2    3    3    0    0 -0.32154754680E+02 -0.15440129268E+03 -0.14293274355E+03  0.22668134383E+03  0.77980606764E+02 0.  0.
         -6    2    1    2    0  502  0.60043962927E+02  0.14037743504E+03 -0.52534590320E+02  0.23822661918E+03  0.17515974753E+03 0.  0.
        -24    2    5    5    0    0 -0.31748234543E+02  0.58155462067E+02 -0.44728928006E+02  0.11465769623E+03  0.82193078414E+02 0.  0.
          5    1    3    3  501    0 -0.27889208247E+02  0.14023857646E+02 -0.12301782454E+03  0.12700374670E+03  0.47000000000E+01 0. -1.
        -13    1    4    4    0    0  0.16353935697E+02 -0.94201039637E+02 -0.99558342541E+02  0.13803315055E+03  0.00000000000E+00 0.  1.
         14    1    4    4    0    0 -0.48508690376E+02 -0.60200253045E+02 -0.43374401009E+02  0.88648193278E+02  0.00000000000E+00 0. -1.
         -5    1    5    5    0  502  0.91792197471E+02  0.82221972968E+02 -0.78056623139E+01  0.12356892295E+03  0.47000000000E+01 0.  1.
         11    1    6    6    0    0 -0.73680041391E+00  0.64688993950E+02 -0.65276460880E+01  0.65021680819E+02  0.00000000000E+00 0. -1.
        -12    1    6    6    0    0 -0.31011434129E+02 -0.65335318825E+01 -0.38201281918E+02  0.49636015410E+02  0.00000000000E+00 0.  1.
</event>
<event>
12    1  0.8271773E-002  0.1746614E+03  0.7818608E-02  0.1173481E+00
         21   -1    0    0  501  502  0.00000000000E+00  0.00000000000E+00  0.68362542193E+03  0.68362542193E+03  0.00000000000E+00 0.  1.
         21   -1    0    0  502  503 -0.00000000000E+00 -0.00000000000E+00 -0.53801577885E+02  0.53801577885E+02  0.00000000000E+00 0.  1.
         -6    2    1    2    0  503  0.11728791842E+02  0.27919326468E+02  0.16045553965E+03  0.23717625588E+03  0.17201611204E+03 0.  0.
        -24    2    3    3    0    0 -0.37149633275E+02  0.53934748490E+02  0.14748828153E+03  0.18011363758E+03  0.79994230446E+02 0.  0.
          6    2    1    2  501    0 -0.11728791842E+02 -0.27919326468E+02  0.46936830439E+03  0.50025074393E+03  0.17037355513E+03 0.  0.
         24    2    5    5    0    0  0.53111513667E+02 -0.40676729232E+02  0.25898600340E+03  0.27968370398E+03  0.81693299162E+02 0.  0.
          5    1    5    5  501    0 -0.64840305509E+02  0.12757402765E+02  0.21038230099E+03  0.22056703995E+03  0.47000000000E+01 0. -1.
        -13    1    6    6    0    0  0.28915144730E+02 -0.24410547197E+02  0.24397210272E+03  0.24688934225E+03  0.00000000000E+00 0.  1.
         14    1    6    6    0    0  0.24196368937E+02 -0.16266182036E+02  0.15013900683E+02  0.32794361733E+02  0.00000000000E+00 0. -1.
         -5    1    3    3    0  503  0.48878425117E+02 -0.26015422023E+02  0.12967258123E+02  0.57062618308E+02  0.47000000000E+01 0.  1.
         11    1    4    4    0    0  0.11591672995E+02  0.34299320656E+02  0.10934082675E+03  0.11517910694E+03  0.00000000000E+00 0. -1.
        -12    1    4    4    0    0 -0.48741306270E+02  0.19635427834E+02  0.38147454781E+02  0.64934530640E+02  0.00000000000E+00 0.  1.
</event>
<event>
12    1  0.8271773E-002  0.2643672E+03  0.7818608E-02  0.1104657E+00
         21   -1    0    0  503  502  0.00000000000E+00  0.00000000000E+00  0.11758376340E+04  0.11758376340E+04  0.00000000000E+00 0.  1.
         21   -1    0    0  501  503 -0.00000000000E+00 -0.00000000000E+00 -0.76314098701E+02  0.76314098701E+02  0.00000000000E+00 0.  1.
          6    2    1    2  501    0  0.12522613748E+03 -0.15571609273E+03  0.25329998167E+03  0.36559415333E+03  0.17195673059E+03 0.  0.
         24    2    3    3    0    0 -0.48295539331E+01 -0.54060656491E+02  0.64765125186E+02  0.11496336373E+03  0.77949819688E+02 0.  0.
         -6    2    1    2    0  502 -0.12522613748E+03  0.15571609273E+03  0.84622355366E+03  0.88655757940E+03  0.17309232157E+03 0.  0.
        -24    2    5    5    0    0 -0.12507206713E+02  0.66682512019E+02  0.42832816797E+03  0.44463996352E+03  0.98166644307E+02 0.  0.
          5    1    3    3  501    0  0.13005569141E+03 -0.10165543624E+03  0.18853485649E+03  0.25063078960E+03  0.47000000000E+01 0. -1.
        -13    1    4    4    0    0  0.29766968609E+02 -0.46135478960E+02  0.21406633673E+02  0.58930457357E+02  0.00000000000E+00 0.  1.
         14    1    4    4    0    0 -0.34596522542E+02 -0.79251775304E+01  0.43358491513E+02  0.56032906378E+02  0.00000000000E+00 0. -1.
         -5    1    5    5    0  502 -0.11271893076E+03  0.89033580707E+02  0.41789538569E+03  0.44191761588E+03  0.47000000000E+01 0.  1.
         13    1    6    6    0    0 -0.35429704951E+02 -0.16124283106E+01  0.24687575338E+03  0.24941030758E+03  0.00000000000E+00 0. -1.
        -14    1    6    6    0    0  0.22922498238E+02  0.68294940330E+02  0.18145241459E+03  0.19522965595E+03  0.00000000000E+00 0.  1.
</event>
<event>
12    1  0.8271773E-002  0.3107019E+03  0.7818608E-02  0.1080235E+00
         21   -1    0    0  503  502  0.00000000000E+00  0.00000000000E+00  0.14436806438E+04  0.14436806438E+04  0.00000000000E+00 0.  1.
         21   -1    0    0  501  503 -0.00000000000E+00 -0.00000000000E+00 -0.18495415196E+03  0.18495415196E+03  0.00000000000E+00 0. -1.
          6    2    1    2  501    0  0.45570672605E+02  0.25365326738E+03 -0.23105945363E+02  0.30968441966E+03  0.17015842269E+03 0.  0.
         24    2    3    3    0    0  0.58600611818E+02  0.23161952049E+03  0.26968076462E+02  0.25325071537E+03  0.79542527683E+02 0.  0.
         -6    2    1    2    0  502 -0.45570672605E+02 -0.25365326738E+03  0.12818324372E+04  0.13189503761E+04  0.17354835435E+03 0.  0.
        -24    2    5    5    0    0 -0.20497356116E+02 -0.88282881260E+02  0.30424207723E+03  0.32714342023E+03  0.79028900479E+02 0.  0.
          5    1    3    3  501    0 -0.13029939213E+02  0.22033746895E+02 -0.50074021825E+02  0.56433704289E+02  0.47000000000E+01 0. -1.
        -13    1    4    4    0    0  0.11188056875E+02  0.19402375774E+02  0.27928235874E+02  0.35799597223E+02  0.00000000000E+00 0.  1.
         14    1    4    4    0    0  0.47412554943E+02  0.21221714471E+03 -0.96015941212E+00  0.21745111814E+03  0.00000000000E+00 0. -1.
         -5    1    5    5    0  502 -0.25073316489E+02 -0.16537038612E+03  0.97759035995E+03  0.99180695585E+03  0.47000000000E+01 0.  1.
         11    1    6    6    0    0 -0.14136543810E+02  0.86798762288E+01  0.95021099411E+02  0.96458236846E+02  0.00000000000E+00 0. -1.
        -12    1    6    6    0    0 -0.63608123066E+01 -0.96962757489E+02  0.20922097782E+03  0.23068518339E+03  0.00000000000E+00 0.  1.
</event>
<event>
12    1  0.8271773E-002  0.1715684E+03  0.7818608E-02  0.1176492E+00
         21   -1    0    0  501  502  0.00000000000E+00  0.00000000000E+00  0.15831315310E+04  0.15831315310E+04  0.00000000000E+00 0. -1.
         21   -1    0    0  502  503 -0.00000000000E+00 -0.00000000000E+00 -0.93957831312E+02  0.93957831312E+02  0.00000000000E+00 0. -1.
         -6    2    1    2    0  503  0.65578748213E+01 -0.13194772546E+02 -0.65334896337E+01  0.17169274030E+03  0.17093449868E+03 0.  0.
        -24    2    3    3    0    0  0.59079038269E+02 -0.44792934147E+02  0.49283686498E+01  0.10915970406E+03  0.79967571301E+02 0.  0.
          6    2    1    2  501    0 -0.65578748213E+01  0.13194772546E+02  0.14957071893E+04  0.15053966220E+04  0.16988786194E+03 0.  0.
         24    2    5    5    0    0 -0.60068015020E+02 -0.27572941944E+02  0.94342606306E+03  0.94901377354E+03  0.78777994103E+02 0.  0.
          5    1    5    5  501    0  0.53510140198E+02  0.40767714490E+02  0.55228112624E+03  0.55638284845E+03  0.47000000000E+01 0. -1.
        -11    1    6    6    0    0 -0.12094142753E+02 -0.47888623456E+01  0.18786689865E+02  0.22850409352E+02  0.00000000000E+00 0.  1.
         12    1    6    6    0    0 -0.47973872267E+02 -0.22784079599E+02  0.92463937320E+03  0.92616336419E+03  0.00000000000E+00 0. -1.
         -5    1    3    3    0  503 -0.52521163448E+02  0.31598161601E+02 -0.11461858284E+02  0.62533036243E+02  0.47000000000E+01 0.  1.
         11    1    4    4    0    0  0.44064142597E+02 -0.42493481927E+02 -0.32111134635E+02  0.69126475656E+02  0.00000000000E+00 0. -1.
        -12    1    4    4    0    0  0.15014895672E+02 -0.22994522192E+01  0.37039503285E+02  0.40033228400E+02  0.00000000000E+00 0.  1.
</event>
<event>
12    1  0.8271773E-002  0.1783664E+03  0.7818608E-02  0.1169436E+00
         21   -1    0    0  503  502  0.00000000000E+00  0.00000000000E+00  0.11662888349E+03  0.11662888349E+03  0.00000000000E+00 0. -1.
         21   -1    0    0  501  503 -0.00000000000E+00 -0.00000000000E+00 -0.40786890725E+03  0.40786890725E+03  0.00000000000E+00 0. -1.
          6    2    1    2  501    0 -0.20488224994E+02 -0.38846663303E+02 -0.29664276291E+03  0.34604959054E+03  0.17269788565E+03 0.  0.
         24    2    3    3    0    0  0.39989351518E+02 -0.58737532113E+02 -0.13402641988E+03  0.17135171149E+03  0.79681126317E+02 0.  0.
         -6    2    1    2    0  502  0.20488224994E+02  0.38846663303E+02  0.54027391516E+01  0.17844820020E+03  0.17287492575E+03 0.  0.
        -24    2    5    5    0    0 -0.73320544485E+01  0.20696037695E+02 -0.61639584906E+02  0.10348036461E+03  0.80166467016E+02 0.  0.
          5    1    3    3  501    0 -0.60477576512E+02  0.19890868809E+02 -0.16261634303E+03  0.17469787904E+03  0.47000000000E+01 0. -1.
        -11    1    4    4    0    0  0.53576606037E+02 -0.16722521431E+02 -0.10327797291E+03  0.11754333297E+03  0.00000000000E+00 0.  1.
         12    1    4    4    0    0 -0.13587254519E+02 -0.42015010682E+02 -0.30748446977E+02  0.53808378524E+02  0.00000000000E+00 0. -1.
         -5    1    5    5    0  502  0.27820279442E+02  0.18150625609E+02  0.67042324057E+02  0.74967835591E+02  0.47000000000E+01 0.  1.
         13    1    6    6    0    0 -0.38502596233E+02  0.15523544650E+02 -0.96162296054E+01  0.42613404311E+02  0.00000000000E+00 0. -1.
        -14    1    6    6    0    0  0.31170541784E+02  0.51724930450E+01 -0.52023355300E+02  0.60866960300E+02  0.00000000000E+00 0.  1.
</event>
<event>
12    1  0.8271773E-002  0.1751952E+03  0.7818608E-02  0.1172570E+00
         21   -1    0    0  503  502  0.00000000000E+00  0.00000000000E+00  0.13673160042E+03  0.13673160042E+03  0.00000000000E+00 0.  1.
         21   -1    0    0  501  503 -0.00000000000E+00 -0.00000000000E+00 -0.23231622439E+03  0.23231622439E+03  0.00000000000E+00 0.  1.
          6    2    1    2  501    0 -0.33639818744E+02  0.10089432795E+02 -0.82036369633E+02  0.19332959468E+03  0.17150198884E+03 0.  0.
         24    2    3    3    0    0  0.28252555942E+02 -0.27140566228E+02 -0.32967160302E+01  0.86377446871E+02  0.76911492892E+02 0.  0.
         -6    2    1    2    0  502  0.33639818744E+02 -0.10089432795E+02 -0.13548254337E+02  0.17571823013E+03  0.17163888587E+03 0.  0.
        -24    2    5    5    0    0  0.63907251449E+02  0.35112385189E+02  0.21141552220E+02  0.11102824241E+03  0.81014128405E+02 0.  0.
          5    1    3    3  501    0 -0.61892374686E+02  0.37229999023E+02 -0.78739653603E+02  0.10695214781E+03  0.47000000000E+01 0. -1.
        -13    1    4    4    0    0  0.22355493429E+02  0.26730503628E+00  0.33403174741E+02  0.40194671552E+02  0.00000000000E+00 0.  1.
         14    1    4    4    0    0  0.58970625128E+01 -0.27407871264E+02 -0.36699890771E+02  0.46182775318E+02  0.00000000000E+00 0. -1.
         -5    1    5    5    0  502 -0.30267432705E+02 -0.45201817983E+02 -0.34689806557E+02  0.64689987715E+02  0.47000000000E+01 0.  1.
         13    1    6    6    0    0  0.22073558602E+02 -0.11264989505E+02 -0.23582449585E+02  0.34209266381E+02  0.00000000000E+00 0. -1.
        -14    1    6    6    0    0  0.41833692848E+02  0.46377374694E+02  0.44724001806E+02  0.76818976030E+02  0.00000000000E+00 0.  1.
</event>
<event>
12    1  0.8271773E-002  0.1807438E+03  0.7818608E-02  0.1167468E+00
         21   -1    0    0  501  502  0.00000000000E+00  0.00000000000E+00  0.20539549407E+03  0.20539549407E+03  0.00000000000E+00 0. -1.
         21   -1    0    0  502  503 -0.00000000000E+00 -0.00000000000E+00 -0.19852164242E+03  0.19852164242E+03  0.00000000000E+00 0.  1.
         -6    2    1    2    0  503 -0.41899219876E+02  0.25942842067E+02 -0.88173951908E+02  0.20110434142E+03  0.17389575803E+03 0.  0.
        -24    2    3    3    0    0 -0.53264941874E+02  0.10996113591E+02  0.13632679347E+02  0.97473918782E+02  0.79732341930E+02 0.  0.
          6    2    1    2  501    0  0.41899219876E+02 -0.25942842067E+02  0.95047803550E+02  0.20281279507E+03  0.17225089028E+03 0.  0.
         24    2    5    5    0    0  0.39582609648E+02  0.61642690576E+01 -0.11551273128E+02  0.91360175466E+02  0.81292487665E+02 0.  0.
          5    1    5    5  501    0  0.23166102279E+01 -0.32107111125E+02  0.10659907668E+03  0.11145261960E+03  0.47000000000E+01 0. -1.
        -13    1    6    6    0    0 -0.15479705484E+02  0.26031540951E+02 -0.12627607338E+02  0.32813394722E+02  0.00000000000E+00 0.  1.
         14    1    6    6    0    0  0.55062315131E+02 -0.19867271893E+02  0.10763342093E+01  0.58546780744E+02  0.00000000000E+00 0. -1.
         -5    1    3    3    0  503  0.11365721998E+02  0.14946728476E+02 -0.10180663125E+03  0.10363042264E+03  0.47000000000E+01 0.  1.
         11    1    4    4    0    0 -0.59700590879E+02  0.93318160673E+01 -0.19645069462E+02  0.63538744846E+02  0.00000000000E+00 0. -1.
        -12    1    4    4    0    0  0.64356490049E+01  0.16642975237E+01  0.33277748808E+02  0.33935173937E+02  0.00000000000E+00 0.  1.
</event>
<event>
12    1  0.8271773E-002  0.1817149E+03  0.7818608E-02  0.1166254E+00
         21   -1    0    0  501  502  0.00000000000E+00  0.00000000000E+00  0.87902588273E+02  0.87902588273E+02  0.00000000000E+00 0.  1.
         21   -1    0    0  502  503 -0.00000000000E+00 -0.00000000000E+00 -0.76413240559E+03  0.76413240559E+03  0.00000000000E+00 0.  1.
         -6    2    1    2    0  503  0.62042851363E+02 -0.25866324246E+01 -0.64240451515E+03  0.66761056220E+03  0.17077557089E+03 0.  0.
        -24    2    3    3    0    0  0.10832240011E+03  0.48556392276E+01 -0.43225102620E+03  0.45224166251E+03  0.76969163050E+02 0.  0.
          6    2    1    2  501    0 -0.62042851363E+02  0.25866324246E+01 -0.33825302171E+02  0.18442443166E+03  0.17032972099E+03 0.  0.
         24    2    5    5    0    0  0.10300330408E+02 -0.44445530252E+02 -0.65507253100E+01  0.93806812966E+02  0.81702534788E+02 0.  0.
          5    1    5    5  501    0 -0.72343181771E+02  0.47032162677E+02 -0.27274576861E+02  0.90617618694E+02  0.47000000000E+01 0. -1.
        -13    1    6    6    0    0 -0.27803577482E+02 -0.26564339005E+01 -0.21574347431E+02  0.35292322521E+02  0.00000000000E+00 0.  1.
         14    1    6    6    0    0  0.38103907890E+02 -0.41789096352E+02  0.15023622121E+02  0.58514490445E+02  0.00000000000E+00 0. -1.
         -5    1    3    3    0  503 -0.46279548747E+02 -0.74422716522E+01 -0.21015348894E+03  0.21536889969E+03  0.47000000000E+01 0.  1.
         11    1    4    4    0    0 -0.12223144443E+02  0.83867311614E+00 -0.45419339861E+02  0.47042800364E+02  0.00000000000E+00 0. -1.
        -12    1    4    4    0    0  0.12054554455E+03  0.40169661115E+01 -0.38683168634E+03  0.40519886215E+03  0.00000000000E+00 0.  1.
</event>
<event>
12    1  0.8271773E-002  0.2491670E+03  0.7818608E-02  0.1113908E+00
         21   -1    0    0  501  502  0.00000000000E+00  0.00000000000E+00  0.63469253759E+03  0.63469253759E+03  0.00000000000E+00 0. -1.
         21   -1    0    0  502  503 -0.00000000000E+00 -0.00000000000E+00 -0.14770475702E+03  0.14770475702E+03  0.00000000000E+00 0. -1.
         -6    2    1    2    0  503 -0.12950443826E+03  0.12581573175E+03  0.15872736499E+02  0.24967203973E+03  0.17170668530E+03 0.  0.
        -24    2    3    3    0    0 -0.10931335960E+03  0.13691527384E+03 -0.32980111371E+02  0.19545423604E+03  0.80121581644E+02 0.  0.
          6    2    1    2  501    0  0.12950443826E+03 -0.12581573175E+03  0.47111504408E+03  0.53272525488E+03  0.17101407705E+03 0.  0.
         24    2    5    5    0    0 -0.36441706646E+01 -0.62977044591E+02  0.20022673894E+03  0.22437510242E+03  0.79208910327E+02 0.  0.
          5    1    5    5  501    0  0.13314860892E+03 -0.62838687163E+02  0.27088830514E+03  0.30835015246E+03  0.47000000000E+01 0. -1.
        -13    1    6    6    0    0 -0.21268535285E+01  0.13917832473E+01  0.12636014005E+03  0.12638570157E+03  0.00000000000E+00 0.  1.
         14    1    6    6    0    0 -0.15173171361E+01 -0.64368827838E+02  0.73866598883E+02  0.97989400851E+02  0.00000000000E+00 0. -1.
         -5    1    3    3    0  503 -0.20191078659E+02 -0.11099542081E+02  0.48852847870E+02  0.54217803689E+02  0.47000000000E+01 0.  1.
         13    1    4    4    0    0 -0.63180835516E+02  0.87201034853E+02  0.19833187217E+02  0.10949517693E+03  0.00000000000E+00 0. -1.
        -14    1    4    4    0    0 -0.46132524080E+02  0.49714238983E+02 -0.52813298588E+02  0.85959059111E+02  0.00000000000E+00 0.  1.
</event>
<event>
12    1  0.8271773E-002  0.1849615E+03  0.7818608E-02  0.1163438E+00
         21   -1    0    0  503  502  0.00000000000E+00  0.00000000000E+00  0.64208509626E+02  0.64208509626E+02  0.00000000000E+00 0.  1.
         21   -1    0    0  501  503 -0.00000000000E+00 -0.00000000000E+00 -0.67687281366E+03  0.67687281366E+03  0.00000000000E+00 0.  1.
          6    2    1    2  501    0 -0.47306068742E+02  0.47088340203E+02 -0.47884634240E+03  0.51278762340E+03  0.17088636916E+03 0.  0.
         24    2    3    3    0    0 -0.36091713559E+02  0.64065826435E+02 -0.47938096111E+03  0.49189808971E+03  0.82161930848E+02 0.  0.
         -6    2    1    2    0  502  0.47306068742E+02 -0.47088340203E+02 -0.13381796164E+03  0.22829369988E+03  0.17249808876E+03 0.  0.
        -24    2    5    5    0    0 -0.51895974111E+02 -0.76274751577E+01 -0.35069403862E+02  0.82789154115E+02  0.53598604885E+02 0.  0.
          5    1    3    3  501    0 -0.11214355183E+02 -0.16977486232E+02  0.53461870851E+00  0.20889533697E+02  0.47000000000E+01 0. -1.
        -13    1    4    4    0    0  0.34953333456E+01  0.47160000631E+02 -0.10632707346E+03  0.11636893729E+03  0.00000000000E+00 0.  1.
         14    1    4    4    0    0 -0.39587046905E+02  0.16905825804E+02 -0.37305388764E+03  0.37552915242E+03  0.00000000000E+00 0. -1.
         -5    1    5    5    0  502  0.99202042853E+02 -0.39460865046E+02 -0.98748557774E+02  0.14550454577E+03  0.47000000000E+01 0.  1.
         11    1    6    6    0    0 -0.73556838202E+01  0.20467932594E+02 -0.56662391614E+01  0.22475511460E+02  0.00000000000E+00 0. -1.
        -12    1    6    6    0    0 -0.44540290291E+02 -0.28095407752E+02 -0.29403164700E+02  0.60313642655E+02  0.00000000000E+00 0.  1.
</event>
<event>
12    1  0.8271773E-002  0.1923078E+03  0.7818608E-02  0.1157384E+00
         21   -1    0    0  503  502  0.00000000000E+00  0.00000000000E+00  0.59881052837E+02  0.59881052837E+02  0.00000000000E+00 0.  1.
         21   -1    0    0  501  503 -0.00000000000E+00 -0.00000000000E+00 -0.74314417432E+03  0.74314417432E+03  0.00000000000E+00 0.  1.
          6    2    1    2  501    0  0.24460013911E+02 -0.74324426691E+02 -0.51884208991E+03  0.55333479462E+03  0.17566976972E+03 0.  0.
         24    2    3    3    0    0 -0.30246291094E+02 -0.47257707415E+02 -0.14526661777E+03  0.17477685918E+03  0.79350055019E+02 0.  0.
         -6    2    1    2    0  502 -0.24460013911E+02  0.74324426691E+02 -0.16442103157E+03  0.24969043254E+03  0.17084678456E+03 0.  0.
        -24    2    5    5    0    0  0.28188812676E+02  0.19423318304E+02 -0.24367501258E+02  0.90244165735E+02  0.79864634711E+02 0.  0.
          5    1    3    3  501    0  0.54706305006E+02 -0.27066719276E+02 -0.37357547214E+03  0.37855793544E+03  0.47000000000E+01 0. -1.
        -11    1    4    4    0    0 -0.86138600380E+01  0.18842791962E+02 -0.10743837518E+02  0.23338368373E+02  0.00000000000E+00 0.  1.
         12    1    4    4    0    0 -0.21632431056E+02 -0.66100499377E+02 -0.13452278025E+03  0.15143849081E+03  0.00000000000E+00 0. -1.
         -5    1    5    5    0  502 -0.52648826588E+02  0.54901108387E+02 -0.14005353032E+03  0.15944626680E+03  0.47000000000E+01 0.  1.
         11    1    6    6    0    0 -0.67346644682E+01  0.43229958510E+02 -0.18775638784E+02  0.47609974061E+02  0.00000000000E+00 0. -1.
        -12    1    6    6    0    0  0.34923477144E+02 -0.23806640206E+02 -0.55918624741E+01  0.42634191674E+02  0.00000000000E+00 0.  1.
</event>
<event>
12    1  0.8271773E-002  0.2100515E+03  0.7818608E-02  0.1141586E+00
         21   -1    0    0  501  502  0.00000000000E+00  0.00000000000E+00  0.69537952938E+02  0.69537952938E+02  0.00000000000E+00 0.  1.
         21   -1    0    0  502  503 -0.00000000000E+00 -0.00000000000E+00 -0.80468888223E+03  0.80468888223E+03  0.00000000000E+00 0.  1.
         -6    2    1    2    0  503 -0.11163821920E+03  0.42081014000E+02 -0.56893419547E+03  0.60636562653E+03  0.17250869697E+03 0.  0.
        -24    2    3    3    0    0 -0.35162720131E+02  0.29045375978E+02 -0.47912444017E+03  0.48759563047E+03  0.78161492642E+02 0.  0.
          6    2    1    2  501    0  0.11163821920E+03 -0.42081014000E+02 -0.16621673382E+03  0.26786120864E+03  0.17288065470E+03 0.  0.
         24    2    5    5    0    0  0.82101542495E+02 -0.91082226564E+01 -0.22194616951E+02  0.11711612452E+03  0.79999766257E+02 0.  0.
          5    1    5    5  501    0  0.29536676700E+02 -0.32972791344E+02 -0.14402211686E+03  0.15074508412E+03  0.47000000000E+01 0. -1.
        -13    1    6    6    0    0 -0.36161248252E+01  0.86284006804E+01  0.18389168884E+02  0.20632188185E+02  0.00000000000E+00 0.  1.
         14    1    6    6    0    0  0.85717667320E+02 -0.17736623337E+02 -0.40583785835E+02  0.96483936336E+02  0.00000000000E+00 0. -1.
         -5    1    3    3    0  503 -0.76475499064E+02  0.13035638022E+02 -0.89809755306E+02  0.11876999606E+03  0.47000000000E+01 0.  1.
         13    1    4    4    0    0 -0.26974307095E+01  0.51126720038E+02 -0.26454190314E+03  0.26945061914E+03  0.00000000000E+00 0. -1.
        -14    1    4    4    0    0 -0.32465289421E+02 -0.22081344060E+02 -0.21458253702E+03  0.21814501133E+03  0.00000000000E+00 0.  1.
</event>
<event>
12    1  0.8271773E-002  0.2110233E+03  0.7818608E-02  0.1140966E+00
         21   -1    0    0  503  502  0.00000000000E+00  0.00000000000E+00  0.19822796844E+03  0.19822796844E+03  0.00000000000E+00 0. -1.
         21   -1    0    0  501  503 -0.00000000000E+00 -0.00000000000E+00 -0.22419838094E+03  0.22419838094E+03  0.00000000000E+00 0.  1.
          6    2    1    2  501    0 -0.47219482801E+02  0.11179437948E+03 -0.14561468555E+01  0.21102830106E+03  0.17263591934E+03 0.  0.
         24    2    3    3    0    0 -0.18384585551E+02  0.39028979101E+02 -0.64807474268E+02  0.11022286730E+03  0.78024467692E+02 0.  0.
         -6    2    1    2    0  502  0.47219482801E+02 -0.11179437948E+03 -0.24514265650E+02  0.21139804832E+03  0.17134912539E+03 0.  0.
        -24    2    5    5    0    0 -0.18473930264E+02 -0.41233086309E+02  0.33560514902E+02  0.98751296256E+02  0.81142201386E+02 0.  0.
          5    1    3    3  501    0 -0.28834897250E+02  0.72765400379E+02  0.63351327413E+02  0.10080543377E+03  0.47000000000E+01 0. -1.
        -13    1    4    4    0    0  0.10582846978E+02 -0.26915617684E+01 -0.57951502710E+02  0.58971330503E+02  0.00000000000E+00 0.  1.
         14    1    4    4    0    0 -0.28967432529E+02  0.41720540870E+02 -0.68559715580E+01  0.51251536794E+02  0.00000000000E+00 0. -1.
         -5    1    5    5    0  502  0.65693413065E+02 -0.70561293172E+02 -0.58074780553E+02  0.11264675206E+03  0.47000000000E+01 0.  1.
         13    1    6    6    0    0  0.31616283532E+02 -0.21679299905E+02  0.20258559361E+02  0.43358859027E+02  0.00000000000E+00 0. -1.
        -14    1    6    6    0    0 -0.50090213797E+02 -0.19553786403E+02  0.13301955542E+02  0.55392437229E+02  0.00000000000E+00 0.  1.
</event>
<event>
12    1  0.8271773E-002  0.2018904E+03  0.7818608E-02  0.1148749E+00
         21   -1    0    0  501  502  0.00000000000E+00  0.00000000000E+00  0.14497905353E+02  0.14497905353E+02  0.00000000000E+00 0. -1.
         21   -1    0    0  502  503 -0.00000000000E+00 -0.00000000000E+00 -0.28048072123E+04  0.28048072123E+04  0.00000000000E+00 0. -1.
         -6    2    1    2    0  503 -0.41766597913E+02  0.97860876561E+02 -0.15376836495E+04  0.15505140451E+04  0.16823078910E+03 0.  0.
        -24    2    3    3    0    0 -0.67043424797E+02  0.63908415670E+02 -0.14217726513E+04  0.14270266487E+04  0.79927953202E+02 0.  0.
          6    2    1    2  501    0  0.41766597913E+02 -0.97860876561E+02 -0.12526256575E+04  0.12687910726E+04  0.17157665375E+03 0.  0.
         24    2    5    5    0    0  0.38526074340E+02 -0.10074600722E+03 -0.54946869511E+03  0.56560501700E+03  0.79744416577E+02 0.  0.
          5    1    5    5  501    0  0.32405235730E+01  0.28851306635E+01 -0.70315696240E+03  0.70318605557E+03  0.47000000000E+01 0. -1.
        -13    1    6    6    0    0  0.21416726713E+02 -0.65390053665E+02 -0.48684034128E+03  0.49167881101E+03  0.00000000000E+00 0.  1.
         14    1    6    6    0    0  0.17109347628E+02 -0.35355953559E+02 -0.62628353829E+02  0.73926205987E+02  0.00000000000E+00 0. -1.
         -5    1    3    3    0  503  0.25276826884E+02  0.33952460891E+02 -0.11591099814E+03  0.12348739639E+03  0.47000000000E+01 0.  1.
         13    1    4    4    0    0 -0.57122056884E+02  0.10792859263E+01 -0.78868686519E+03  0.79075347964E+03  0.00000000000E+00 0. -1.
        -14    1    4    4    0    0 -0.99213679135E+01  0.62829129744E+02 -0.63308578614E+03  0.63627316908E+03  0.00000000000E+00 0.  1.
</event>
<event>
12    1  0.8271773E-002  0.1848592E+03  0.7818608E-02  0.1164317E+00
         21   -1    0    0  501  502  0.00000000000E+00  0.00000000000E+00  0.35827739276E+02  0.35827739276E+02  0.00000000000E+00 0. -1.
         21   -1    0    0  502  503 -0.00000000000E+00 -0.00000000000E+00 -0.14266885948E+04  0.14266885948E+04  0.00000000000E+00 0. -1.
         -6    2    1    2    0  503  0.52711079807E+02 -0.35681435222E+01 -0.11212516758E+04  0.11356187688E+04  0.17214377164E+03 0.  0.
        -24    2    3    3    0    0  0.43600305038E+02  0.19925082918E+02 -0.10947188392E+04  0.10987267735E+04  0.80580334480E+02 0.  0.
          6    2    1    2  501    0 -0.52711079807E+02  0.35681435222E+01 -0.26960917977E+03  0.32689756527E+03  0.17714886050E+03 0.  0.
         24    2    5    5    0    0  0.18838826665E+02 -0.15361151263E+02 -0.52738396336E+02  0.97697360150E+02  0.78565701002E+02 0.  0.
          5    1    5    5  501    0 -0.71549906473E+02  0.18929294785E+02 -0.21687078344E+03  0.22920020512E+03  0.47000000000E+01 0. -1.
        -11    1    6    6    0    0  0.30588195667E+01 -0.36697195057E+02 -0.59806923344E+02  0.70234667950E+02  0.00000000000E+00 0.  1.
         12    1    6    6    0    0  0.15780007099E+02  0.21336043794E+02  0.70685270083E+01  0.27462692200E+02  0.00000000000E+00 0. -1.
         -5    1    3    3    0  503  0.91107747695E+01 -0.23493226440E+02 -0.26532836582E+02  0.36891995372E+02  0.47000000000E+01 0.  1.
         11    1    4    4    0    0  0.85130281304E+01 -0.22176055620E+02 -0.11251526094E+03  0.11499536093E+03  0.00000000000E+00 0. -1.
        -12    1    4    4    0    0  0.35087276907E+02  0.42101138537E+02 -0.98220357826E+03  0.98373141253E+03  0.00000000000E+00 0.  1.
</event>
<event>
12    1  0.8271773E-002  0.1869943E+03  0.7818608E-02  0.1161339E+00
         21   -1    0    0  503  502  0.00000000000E+00  0.00000000000E+00  0.16942275816E+03  0.16942275816E+03  0.00000000000E+00 0.  1.
         21   -1    0    0  501  503 -0.00000000000E+00 -0.00000000000E+00 -0.21876893635E+03  0.21876893635E+03  0.00000000000E+00 0. -1.
          6    2    1    2  501    0  0.17305604901E+02  0.69821473123E+02  0.22752947565E+02  0.18777921583E+03  0.17195585249E+03 0.  0.
         24    2    3    3    0    0  0.31514221095E+02  0.67698140517E+02  0.75528413634E+02  0.13288173743E+03  0.79855059425E+02 0.  0.
         -6    2    1    2    0  502 -0.17305604901E+02 -0.69821473123E+02 -0.72099125755E+02  0.20041247867E+03  0.17260462220E+03 0.  0.
        -24    2    5    5    0    0 -0.50938556430E+01 -0.10916903132E+03 -0.26304158075E+02  0.13863362937E+03  0.81139076265E+02 0.  0.
          5    1    3    3  501    0 -0.14208616195E+02  0.21233326064E+01 -0.52775466069E+02  0.54897478397E+02  0.47000000000E+01 0. -1.
        -11    1    4    4    0    0  0.56631742940E+02  0.57260385943E+02  0.65788419642E+02  0.10399049123E+03  0.00000000000E+00 0.  1.
         12    1    4    4    0    0 -0.25117521845E+02  0.10437754574E+02  0.97399939918E+01  0.28891246202E+02  0.00000000000E+00 0. -1.
         -5    1    5    5    0  502 -0.12211749258E+02  0.39347558195E+02 -0.45794967680E+02  0.61778849299E+02  0.47000000000E+01 0.  1.
         13    1    6    6    0    0 -0.15701549918E+02 -0.18603528229E+02 -0.39600470535E+02  0.46484698547E+02  0.00000000000E+00 0. -1.
        -14    1    6    6    0    0  0.10607694275E+02 -0.90565503090E+02  0.13296312459E+02  0.92148930828E+02  0.00000000000E+00 0.  1.
</event>
<event>
12    1  0.8271773E-002  0.2049084E+03  0.7818608E-02  0.1145669E+00
         21   -1    0    0  503  502  0.00000000000E+00  0.00000000000E+00  0.23435689195E+03  0.23435689195E+03  0.00000000000E+00 0. -1.
         21   -1    0    0  501  503 -0.00000000000E+00 -0.00000000000E+00 -0.19101361494E+03  0.19101361494E+03  0.00000000000E+00 0.  1.
          6    2    1    2  501    0 -0.10947009489E+03  0.21055551140E+02  0.74708210574E+02  0.21807549418E+03  0.17189696485E+03 0.  0.
         24    2    3    3    0    0 -0.13523519437E+03  0.40808984107E+01  0.23132084175E+02  0.15779144985E+03  0.77832106482E+02 0.  0.
         -6    2    1    2    0  502  0.10947009489E+03 -0.21055551140E+02 -0.31364933561E+02  0.20729501271E+03  0.17193145533E+03 0.  0.
        -24    2    5    5    0    0  0.94753229438E+02  0.67949065603E+01  0.42663785241E+02  0.12670608463E+03  0.72179554352E+02 0.  0.
          5    1    3    3  501    0  0.25765099477E+02  0.16974652729E+02  0.51576126399E+02  0.60284044329E+02  0.47000000000E+01 0. -1.
        -13    1    4    4    0    0 -0.11088522633E+03  0.14714952515E+02 -0.13358347713E+02  0.11265215799E+03  0.00000000000E+00 0.  1.
         14    1    4    4    0    0 -0.24349968034E+02 -0.10634054104E+02  0.36490431888E+02  0.45139291857E+02  0.00000000000E+00 0. -1.
         -5    1    5    5    0  502  0.14716865450E+02 -0.27850457700E+02 -0.74028718801E+02  0.80588928087E+02  0.47000000000E+01 0.  1.
         13    1    6    6    0    0  0.67014694565E+02 -0.28115259803E+02  0.14915485168E+02  0.74188333444E+02  0.00000000000E+00 0. -1.
        -14    1    6    6    0    0  0.27738534873E+02  0.34910166363E+02  0.27748300073E+02  0.52517751183E+02  0.00000000000E+00 0.  1.
</event>
<event>
12    1  0.8271773E-002  0.1801800E+03  0.7818608E-02  0.1167885E+00
         21   -1    0    0  503  502  0.00000000000E+00  0.00000000000E+00  0.13784747661E+03  0.13784747661E+03  0.00000000000E+00 0. -1.
         21   -1    0    0  501  503 -0.00000000000E+00 -0.00000000000E+00 -0.28332103970E+03  0.28332103970E+03  0.00000000000E+00 0. -1.
          6    2    1    2  501    0  0.18208654232E+02  0.45541995672E+02 -0.16030367226E+03  0.24037919858E+03  0.17227670566E+03 0.  0.
         24    2    3    3    0    0 -0.29570124756E+00  0.96305751978E+02 -0.10709273175E+03  0.16439983088E+03  0.79268946612E+02 0.  0.
         -6    2    1    2    0  502 -0.18208654232E+02 -0.45541995672E+02  0.14830109169E+02  0.18078931772E+03  0.17337594068E+03 0.  0.
        -24    2    5    5    0    0 -0.29340178668E+02 -0.61374412573E+02  0.67030834919E+02  0.12491819790E+03  0.80521790427E+02 0.  0.
          5    1    3    3  501    0  0.18504355479E+02 -0.50763756306E+02 -0.53210940511E+02  0.75979367700E+02  0.47000000000E+01 0. -1.
        -13    1    4    4    0    0  0.12344864211E+02 -0.88209492132E+01 -0.21547830470E+01  0.15324748200E+02  0.00000000000E+00 0.  1.
         14    1    4    4    0    0 -0.12640565459E+02  0.10512670119E+03 -0.10493794870E+03  0.14907508268E+03  0.00000000000E+00 0. -1.
         -5    1    5    5    0  502  0.11131524437E+02  0.15832416901E+02 -0.52200725751E+02  0.55871119822E+02  0.47000000000E+01 0.  1.
         13    1    6    6    0    0 -0.31425125562E+02 -0.61048047033E+02  0.11825343736E+02  0.69672385617E+02  0.00000000000E+00 0. -1.
        -14    1    6    6    0    0  0.20849468937E+01 -0.32636554015E+00  0.55205491183E+02  0.55245812283E+02  0.00000000000E+00 0.  1.
</event>
<event>
12    1  0.8271773E-002  0.2771785E+03  0.7818608E-02  0.1097534E+00
         21   -1    0    0  501  502  0.00000000000E+00  0.00000000000E+00  0.50298227466E+02  0.50298227466E+02  0.00000000000E+00 0.  1.
         21   -1    0    0  502  503 -0.00000000000E+00 -0.00000000000E+00 -0.15300354758E+04  0.15300354758E+04  0.00000000000E+00 0.  1.
         -6    2    1    2    0  503  0.98877722520E+02  0.19064702661E+03 -0.66649544741E+03  0.72183385523E+03  0.17522796686E+03 0.  0.
        -24    2    3    3    0    0  0.98995333526E+02  0.10613991876E+03 -0.56967213707E+03  0.59323250013E+03  0.79578244748E+02 0.  0.
          6    2    1    2  501    0 -0.98877722520E+02 -0.19064702661E+03 -0.81324180088E+03  0.85849984799E+03  0.17186235640E+03 0.  0.
         24    2    5    5    0    0 -0.66535403965E+01 -0.36984734857E+02 -0.35589919009E+03  0.36727509972E+03  0.82550742916E+02 0.  0.
          5    1    5    5  501    0 -0.92224182124E+02 -0.15366229175E+03 -0.45734261079E+03  0.49122474828E+03  0.47000000000E+01 0. -1.
        -11    1    6    6    0    0 -0.16391010700E+02 -0.56305276541E+02 -0.16417695097E+03  0.17433594187E+03  0.00000000000E+00 0.  1.
         12    1    6    6    0    0  0.97374703033E+01  0.19320541684E+02 -0.19172223911E+03  0.19293915784E+03  0.00000000000E+00 0. -1.
         -5    1    3    3    0  503 -0.11761100598E+00  0.84507107843E+02 -0.96823310339E+02  0.12860135510E+03  0.47000000000E+01 0.  1.
         11    1    4    4    0    0 -0.11168142010E+02  0.28514074506E+02 -0.11511881483E+03  0.11912229585E+03  0.00000000000E+00 0. -1.
        -12    1    4    4    0    0  0.11016347554E+03  0.77625844256E+02 -0.45455332224E+03  0.47411020427E+03  0.00000000000E+00 0.  1.
</event>
<event>
12    1  0.8271773E-002  0.1848209E+03  0.7818608E-02  0.1163289E+00
         21   -1    0    0  501  502  0.00000000000E+00  0.00000000000E+00  0.14839671139E+04  0.14839671139E+04  0.00000000000E+00 0.  1.
         21   -1    0    0  502  503 -0.00000000000E+00 -0.00000000000E+00 -0.23698080400E+02  0.23698080400E+02  0.00000000000E+00 0.  1.
         -6    2    1    2    0  503  0.66329624743E+02 -0.67491161111E+01  0.86072716231E+03  0.88028237171E+03  0.17204835461E+03 0.  0.
        -24    2    3    3    0    0  0.20541978885E+02  0.41050106802E+01  0.15046092348E+03  0.16844352717E+03  0.72772991838E+02 0.  0.
          6    2    1    2  501    0 -0.66329624743E+02  0.67491161111E+01  0.59954187119E+03  0.62738282258E+03  0.17237627761E+03 0.  0.
         24    2    5    5    0    0 -0.27887040508E+01  0.45042853195E+02  0.18491415625E+03  0.20614406499E+03  0.79154878918E+02 0.  0.
          5    1    5    5  501    0 -0.63540920692E+02 -0.38293737084E+02  0.41462771494E+03  0.42123875759E+03  0.47000000000E+01 0. -1.
        -13    1    6    6    0    0 -0.33140224739E+02 -0.88853963082E+00  0.96027293293E+02  0.10158890223E+03  0.00000000000E+00 0.  1.
         14    1    6    6    0    0  0.30351520688E+02  0.45931392826E+02  0.88886862953E+02  0.10455516276E+03  0.00000000000E+00 0. -1.
         -5    1    3    3    0  503  0.45787645858E+02 -0.10854126791E+02  0.71026623882E+03  0.71183884454E+03  0.47000000000E+01 0.  1.
         11    1    4    4    0    0  0.28347937537E+02  0.29674602744E+02  0.12484717815E+03  0.13141919762E+03  0.00000000000E+00 0. -1.
        -12    1    4    4    0    0 -0.78059586523E+01 -0.25569592064E+02  0.25613745332E+02  0.37024329551E+02  0.00000000000E+00 0.  1.
</event>
<event>
12    1  0.8271773E-002  0.2863036E+03  0.7818608E-02  0.1092310E+00
         21   -1    0    0  503  502  0.00000000000E+00  0.00000000000E+00  0.22399428805E+04  0.22399428805E+04  0.00000000000E+00 0. -1.
         21   -1    0    0  501  503 -0.00000000000E+00 -0.00000000000E+00 -0.44069320824E+02  0.44069320824E+02  0.00000000000E+00 0.  1.
          6    2    1    2  501    0 -0.22454727350E+03  0.43812976491E+02  0.62734506899E+03  0.68958799646E+03  0.17212993446E+03 0.  0.
         24    2    3    3    0    0 -0.22610212324E+03  0.34937948024E+00  0.50193874199E+03  0.55677105976E+03  0.83241937033E+02 0.  0.
         -6    2    1    2    0  502  0.22454727350E+03 -0.43812976491E+02  0.15685284907E+04  0.15944242049E+04  0.17194727100E+03 0.  0.
        -24    2    5    5    0    0  0.16777362505E+03 -0.19681180781E+02  0.14368026311E+04  0.14488928241E+04  0.79707444181E+02 0.  0.
          5    1    3    3  501    0  0.15548497406E+01  0.43463597010E+02  0.12540632700E+03  0.13281693670E+03  0.47000000000E+01 0. -1.
        -13    1    4    4    0    0 -0.20777713275E+03  0.18009572429E+02  0.39311785058E+03  0.44501384926E+03  0.00000000000E+00 0.  1.
         14    1    4    4    0    0 -0.18324990491E+02 -0.17660192948E+02  0.10882089141E+03  0.11175721050E+03  0.00000000000E+00 0. -1.
         -5    1    5    5    0  502  0.56773648447E+02 -0.24131795709E+02  0.13172585960E+03  0.14553138084E+03  0.47000000000E+01 0.  1.
         11    1    6    6    0    0  0.84593631590E+01 -0.20034545140E+02  0.32588446222E+03  0.32660928729E+03  0.00000000000E+00 0. -1.
        -12    1    6    6    0    0  0.15931426189E+03  0.35336435869E+00  0.11109181689E+04  0.11222835368E+04  0.00000000000E+00 0.  1.
</event>
<event>
12    1  0.8271773E-002  0.2030473E+03  0.7818608E-02  0.1147525E+00
         21   -1    0    0  503  502  0.00000000000E+00  0.00000000000E+00  0.44736443149E+03  0.44736443149E+03  0.00000000000E+00 0. -1.
         21   -1    0    0  501  503 -0.00000000000E+00 -0.00000000000E+00 -0.23111345208E+03  0.23111345208E+03  0.00000000000E+00 0. -1.
          6    2    1    2  501    0  0.79758989923E+02 -0.75375875863E+02 -0.15543446871E+03  0.25571090877E+03  0.17083669298E+03 0.  0.
         24    2    3    3    0    0 -0.12310727555E+01 -0.75998938590E+02 -0.13531839973E+03  0.17212547529E+03  0.74422817271E+02 0.  0.
         -6    2    1    2    0  502 -0.79758989923E+02  0.75375875863E+02  0.37168544812E+03  0.42276697480E+03  0.16893437632E+03 0.  0.
        -24    2    5    5    0    0 -0.11091474585E+03  0.47703493635E+02  0.19829677118E+03  0.24437929261E+03  0.76301540250E+02 0.  0.
          5    1    3    3  501    0  0.80990062678E+02  0.62306272726E+00 -0.20116068973E+02  0.83585433484E+02  0.47000000000E+01 0. -1.
        -13    1    4    4    0    0 -0.42963470219E+01  0.13683658268E+02 -0.33301003975E+02  0.36258212408E+02  0.00000000000E+00 0.  1.
         14    1    4    4    0    0  0.30652742663E+01 -0.89682596858E+02 -0.10201739576E+03  0.13586726288E+03  0.00000000000E+00 0. -1.
         -5    1    5    5    0  502  0.31155755930E+02  0.27672382227E+02  0.17338867694E+03  0.17838768219E+03  0.47000000000E+01 0.  1.
         11    1    6    6    0    0 -0.41888684823E+02  0.55918123606E+02  0.72708340631E+02  0.10083650758E+03  0.00000000000E+00 0. -1.
        -12    1    6    6    0    0 -0.69026061030E+02 -0.82146299703E+01  0.12558843054E+03  0.14354278503E+03  0.00000000000E+00 0.  1.
</event>
<event>
12    1  0.8271773E-002  0.1960700E+03  0.7818608E-02  0.1153145E+00
         21   -1    0    0  501  502  0.00000000000E+00  0.00000000000E+00  0.55845081411E+03  0.55845081411E+03  0.00000000000E+00 0. -1.
         21   -1    0    0  502  503 -0.00000000000E+00 -0.00000000000E+00 -0.17100519697E+03  0.17100519697E+03  0.00000000000E+00 0. -1.
         -6    2    1    2    0  503  0.82731989382E+02  0.43964681312E+02 -0.88253916197E+02  0.21501675271E+03  0.17223813444E+03 0.  0.
        -24    2    3    3    0    0  0.25766977062E+02 -0.17992083515E+02 -0.97755037668E+02  0.13018742615E+03  0.80031658494E+02 0.  0.
          6    2    1    2  501    0 -0.82731989382E+02 -0.43964681312E+02  0.47569953334E+03  0.51443925836E+03  0.17198903818E+03 0.  0.
         24    2    5    5    0    0 -0.83148105270E+02  0.24342941889E+02  0.22807862785E+03  0.25752622370E+03  0.82423960015E+02 0.  0.
          5    1    5    5  501    0  0.41611588763E+00 -0.68307623201E+02  0.24762090549E+03  0.25691303466E+03  0.47000000000E+01 0. -1.
        -11    1    6    6    0    0 -0.13923790440E+02  0.33237109973E+02  0.28034216056E+02  0.45656266705E+02  0.00000000000E+00 0.  1.
         12    1    6    6    0    0 -0.69224314830E+02 -0.88941680840E+01  0.20004441179E+03  0.21186995700E+03  0.00000000000E+00 0. -1.
         -5    1    3    3    0  503  0.56965012320E+02  0.61956764827E+02  0.95011214718E+01  0.84829326566E+02  0.47000000000E+01 0.  1.
         13    1    4    4    0    0 -0.17169069264E+01  0.13422015508E+02 -0.85671828075E+02  0.86733848037E+02  0.00000000000E+00 0. -1.
        -14    1    4    4    0    0  0.27483883988E+02 -0.31414099023E+02 -0.12083209594E+02  0.43453578111E+02  0.00000000000E+00 0.  1.
</event>
<event>
12    1  0.8271773E-002  0.1723778E+03  0.7818608E-02  0.1175554E+00
         21   -1    0    0  503  502  0.00000000000E+00  0.00000000000E+00  0.58813645769E+03  0.58813645769E+03  0.00000000000E+00 0. -1.
         21   -1    0    0  501  503 -0.00000000000E+00 -0.00000000000E+00 -0.76440767144E+02  0.76440767144E+02  0.00000000000E+00 0. -1.
          6    2    1    2  501    0  0.17454539473E+02  0.48076293730E+01  0.61352991981E+02  0.18237119549E+03  0.17078433497E+03 0.  0.
         24    2    3    3    0    0  0.11155823657E+02 -0.37253128680E+02  0.94137112363E+02  0.12846693092E+03  0.78292454420E+02 0.  0.
         -6    2    1    2    0  502 -0.17454539473E+02 -0.48076293730E+01  0.45034269856E+03  0.48220602934E+03  0.17142442748E+03 0.  0.
        -24    2    5    5    0    0  0.38032767476E+02 -0.45563062355E+02  0.21628200716E+03  0.23818483393E+03  0.80197409192E+02 0.  0.
          5    1    3    3  501    0  0.62987158160E+01  0.42060758053E+02 -0.32784120382E+02  0.53904264564E+02  0.47000000000E+01 0. -1.
        -11    1    4    4    0    0  0.28198818010E+02  0.13071079862E+02  0.18953651751E+02  0.36404222016E+02  0.00000000000E+00 0.  1.
         12    1    4    4    0    0 -0.17042994352E+02 -0.50324208542E+02  0.75183460612E+02  0.92062708908E+02  0.00000000000E+00 0. -1.
         -5    1    5    5    0  502 -0.55487306949E+02  0.40755432982E+02  0.23406069140E+03  0.24402119541E+03  0.47000000000E+01 0.  1.
         11    1    6    6    0    0  0.29818330359E+02 -0.26714226264E+01  0.17678514454E+03  0.17930213789E+03  0.00000000000E+00 0. -1.
        -12    1    6    6    0    0  0.82144371167E+01 -0.42891639729E+02  0.39496862624E+02  0.58882696040E+02  0.00000000000E+00 0.  1.
</event>
<event>
12    1  0.8271773E-002  0.2190156E+03  0.7818608E-02  0.1134694E+00
         21   -1    0    0  503  502  0.00000000000E+00  0.00000000000E+00  0.15886907638E+03  0.15886907638E+03  0.00000000000E+00 0. -1.
         21   -1    0    0  501  503 -0.00000000000E+00 -0.00000000000E+00 -0.35354936408E+03  0.35354936408E+03  0.00000000000E+00 0.  1.
          6    2    1    2  501    0  0.13504058515E+03  0.36389720139E+01 -0.19583176692E+03  0.29379914177E+03  0.17239098879E+03 0.  0.
         24    2    3    3    0    0  0.54492645934E+02  0.57828429087E+02 -0.14613963964E+03  0.18463932644E+03  0.80133082570E+02 0.  0.
         -6    2    1    2    0  502 -0.13504058515E+03 -0.36389720139E+01  0.11514792161E+01  0.21861929869E+03  0.17188330372E+03 0.  0.
        -24    2    5    5    0    0 -0.14965485234E+03 -0.41226418407E+02  0.15571927853E+02  0.17553296361E+03  0.80455851080E+02 0.  0.
          5    1    3    3  501    0  0.80547939216E+02 -0.54189457073E+02 -0.49692127281E+02  0.10915981533E+03  0.47000000000E+01 0. -1.
        -11    1    4    4    0    0  0.16356027759E+02 -0.19813150384E+02 -0.42289349006E+02  0.49482013011E+02  0.00000000000E+00 0.  1.
         12    1    4    4    0    0  0.38136618175E+02  0.77641579471E+02 -0.10385029064E+03  0.13515731343E+03  0.00000000000E+00 0. -1.
         -5    1    5    5    0  502  0.14614267186E+02  0.37587446393E+02 -0.14420448637E+02  0.43086335080E+02  0.47000000000E+01 0.  1.
         11    1    6    6    0    0 -0.39177276406E+02  0.12590923032E+02  0.31218183329E+02  0.51652350380E+02  0.00000000000E+00 0. -1.
        -12    1    6    6    0    0 -0.11047757593E+03 -0.53817341440E+02 -0.15646255476E+02  0.12388061323E+03  0.00000000000E+00 0.  1.
</event>
<event>
12    1  0.8271773E-002  0.1866368E+03  0.7818608E-02  0.1162886E+00
         21   -1    0    0  501  502  0.00000000000E+00  0.00000000000E+00  0.54802031761E+03  0.54802031761E+03  0.00000000000E+00 0. -1.
         21   -1    0    0  502  503 -0.00000000000E+00 -0.00000000000E+00 -0.63316782771E+02  0.63316782771E+02  0.00000000000E+00 0.  1.
         -6    2    1    2    0  503 -0.53390559013E+02  0.20321323825E+02  0.19588759858E+03  0.27056466492E+03  0.17767886377E+03 0.  0.
        -24    2    3    3    0    0  0.18531587366E+02  0.52152987532E+02  0.61573935173E+02  0.11484600794E+03  0.79592098902E+02 0.  0.
          6    2    1    2  501    0  0.53390559013E+02 -0.20321323825E+02  0.28881593626E+03  0.34077243547E+03  0.17160332089E+03 0.  0.
         24    2    5    5    0    0  0.21491117380E+02 -0.72453875132E+02  0.12919111865E+03  0.16978252442E+03  0.80151907725E+02 0.  0.
          5    1    5    5  501    0  0.31899441634E+02  0.52132551307E+02  0.15962481761E+03  0.17098991105E+03  0.47000000000E+01 0. -1.
        -11    1    6    6    0    0 -0.21474848716E+02 -0.15476464795E+02  0.55815338491E+01  0.27052608193E+02  0.00000000000E+00 0.  1.
         12    1    6    6    0    0  0.42965966096E+02 -0.56977410337E+02  0.12360958480E+03  0.14272991622E+03  0.00000000000E+00 0. -1.
         -5    1    3    3    0  503 -0.71922146379E+02 -0.31831663707E+02  0.13431366340E+03  0.15571865698E+03  0.47000000000E+01 0.  1.
         11    1    4    4    0    0  0.10487738738E+02 -0.37123203791E+01 -0.15645827795E+02  0.19198070575E+02  0.00000000000E+00 0. -1.
        -12    1    4    4    0    0  0.80438486284E+01  0.55865307912E+02  0.77219762968E+02  0.95647937362E+02  0.00000000000E+00 0.  1.
</event>
<event>
12    1  0.8271773E-002  0.1922467E+03  0.7818608E-02  0.1157078E+00
         21   -1    0    0  503  502  0.00000000000E+00  0.00000000000E+00  0.21465280597E+03  0.21465280597E+03  0.00000000000E+00 0. -1.
         21   -1    0    0  501  503 -0.00000000000E+00 -0.00000000000E+00 -0.21414758070E+03  0.21414758070E+03  0.00000000000E+00 0. -1.
          6    2    1    2  501    0 -0.73530572651E+02 -0.40050872686E+02 -0.97450078157E+02  0.21303658491E+03  0.16993307877E+03 0.  0.
         24    2    3    3    0    0 -0.10938695029E+03 -0.13810115565E+02 -0.44641768314E+02  0.14386242254E+03  0.80915294937E+02 0.  0.
         -6    2    1    2    0  502  0.73530572651E+02  0.40050872686E+02  0.97955303424E+02  0.21576380177E+03  0.17305478661E+03 0.  0.
        -24    2    5    5    0    0  0.18851612301E+01  0.39273313975E+02 -0.59228099718E+01  0.89484658526E+02  0.80165313010E+02 0.  0.
          5    1    3    3  501    0  0.35856377635E+02 -0.26240757120E+02 -0.52808309844E+02  0.69174162372E+02  0.47000000000E+01 0. -1.
        -11    1    4    4    0    0 -0.76961723614E+02  0.19247342138E+02  0.30163933762E+00  0.79332578852E+02  0.00000000000E+00 0.  1.
         12    1    4    4    0    0 -0.32425226673E+02 -0.33057457703E+02 -0.44943407651E+02  0.64529843684E+02  0.00000000000E+00 0. -1.
         -5    1    5    5    0  502  0.71645411421E+02  0.77755871066E+00  0.10387811340E+03  0.12627914324E+03  0.47000000000E+01 0.  1.
         11    1    6    6    0    0 -0.24308264253E+02 -0.42924031284E+01  0.20597155922E+02  0.32149016589E+02  0.00000000000E+00 0. -1.
        -12    1    6    6    0    0  0.26193425483E+02  0.43565717104E+02 -0.26519965893E+02  0.57335641936E+02  0.00000000000E+00 0.  1.
</event>
<event>
12    1  0.8271773E-002  0.1830690E+03  0.7818608E-02  0.1165188E+00
         21   -1    0    0  501  502  0.00000000000E+00  0.00000000000E+00  0.77277770453E+02  0.77277770453E+02  0.00000000000E+00 0.  1.
         21   -1    0    0  502  503 -0.00000000000E+00 -0.00000000000E+00 -0.44019455712E+03  0.44019455712E+03  0.00000000000E+00 0.  1.
         -6    2    1    2    0  503 -0.50485142370E+02  0.37075630242E+02 -0.14367019131E+03  0.23271308338E+03  0.17202006670E+03 0.  0.
        -24    2    3    3    0    0 -0.56774942255E+02 -0.35408326885E+02 -0.10887459169E+03  0.15192750684E+03  0.82165363376E+02 0.  0.
          6    2    1    2  501    0  0.50485142370E+02 -0.37075630242E+02 -0.21924659536E+03  0.28475924420E+03  0.17057375420E+03 0.  0.
         24    2    5    5    0    0  0.79458307223E+02  0.16510759879E+02 -0.17657411385E+03  0.21023424057E+03  0.80210912270E+02 0.  0.
          5    1    5    5  501    0 -0.28973164853E+02 -0.53586390121E+02 -0.42672481514E+02  0.74525003632E+02  0.47000000000E+01 0. -1.
        -11    1    6    6    0    0  0.37007712139E+02 -0.25644610708E+02 -0.11888305299E+03  0.12712355055E+03  0.00000000000E+00 0.  1.
         12    1    6    6    0    0  0.42450595084E+02  0.42155370587E+02 -0.57691060860E+02  0.83110690019E+02  0.00000000000E+00 0. -1.
         -5    1    3    3    0  503  0.62897998847E+01  0.72483957127E+02 -0.34795599619E+02  0.80785576536E+02  0.47000000000E+01 0.  1.
         11    1    4    4    0    0 -0.69283358907E+02 -0.23899100181E+02 -0.11276615654E+03  0.13448998800E+03  0.00000000000E+00 0. -1.
        -12    1    4    4    0    0  0.12508416652E+02 -0.11509226704E+02  0.38915648494E+01  0.17437518844E+02  0.00000000000E+00 0.  1.
</event>
<event>
12    1  0.8271773E-002  0.2319823E+03  0.7818608E-02  0.1125376E+00
         21   -1    0    0  501  502  0.00000000000E+00  0.00000000000E+00  0.48690245570E+02  0.48690245570E+02  0.00000000000E+00 0.  1.
         21   -1    0    0  502  503 -0.00000000000E+00 -0.00000000000E+00 -0.12454732836E+04  0.12454732836E+04  0.00000000000E+00 0.  1.
         -6    2    1    2    0  503  0.13665071260E+01  0.15631916266E+03 -0.81729064125E+03  0.84938239411E+03  0.17043741140E+03 0.  0.
        -24    2    3    3    0    0  0.41467367492E+02  0.34854875820E+02 -0.45670370178E+03  0.46675113181E+03  0.79648872499E+02 0.  0.
          6    2    1    2  501    0 -0.13665071260E+01 -0.15631916266E+03 -0.37949239677E+03  0.44478113504E+03  0.17140079034E+03 0.  0.
         24    2    5    5    0    0  0.57554615402E+02 -0.54026051176E+02 -0.12652305657E+03  0.16558379190E+03  0.71962214650E+02 0.  0.
          5    1    5    5  501    0 -0.58921122528E+02 -0.10229311148E+03 -0.25296934020E+03  0.27919734314E+03  0.47000000000E+01 0. -1.
        -11    1    6    6    0    0  0.31009011460E+02 -0.67832489677E+02 -0.10470172414E+03  0.12855059893E+03  0.00000000000E+00 0.  1.
         12    1    6    6    0    0  0.26545603942E+02  0.13806438501E+02 -0.21821332432E+02  0.37033192974E+02  0.00000000000E+00 0. -1.
         -5    1    3    3    0  503 -0.40100860366E+02  0.12146428684E+03 -0.36058693946E+03  0.38263126230E+03  0.47000000000E+01 0.  1.
         13    1    4    4    0    0 -0.13463606009E+02 -0.14917770041E+02 -0.62909173345E+02  0.66040689281E+02  0.00000000000E+00 0. -1.
        -14    1    4    4    0    0  0.54930973501E+02  0.49772645861E+02 -0.39379452844E+03  0.40071044253E+03  0.00000000000E+00 0.  1.
</event>
<event>
12    1  0.8271773E-002  0.1769538E+03  0.7818608E-02  0.1170796E+00
         21   -1    0    0  501  502  0.00000000000E+00  0.00000000000E+00  0.44752938354E+03  0.44752938354E+03  0.00000000000E+00 0.  1.
         21   -1    0    0  502  503 -0.00000000000E+00 -0.00000000000E+00 -0.21665605079E+03  0.21665605079E+03  0.00000000000E+00 0.  1.
         -6    2    1    2    0  503 -0.38821095867E+02 -0.94141681162E-01 -0.15783313983E+03  0.23711591888E+03  0.17264290489E+03 0.  0.
        -24    2    3    3    0    0 -0.24044053782E+02 -0.58856781619E+02 -0.50393902108E+02  0.11367893646E+03  0.79631136881E+02 0.  0.
          6    2    1    2  501    0  0.38821095867E+02  0.94141681162E-01  0.38870647259E+03  0.42706951545E+03  0.17259363502E+03 0.  0.
         24    2    5    5    0    0  0.72605211296E+02  0.40598728507E+02  0.19551460582E+03  0.22675182928E+03  0.79187483400E+02 0.  0.
          5    1    5    5  501    0 -0.33784115429E+02 -0.40504586826E+02  0.19319186677E+03  0.20031768617E+03  0.47000000000E+01 0. -1.
        -13    1    6    6    0    0  0.47441697011E+01  0.13603876615E+02  0.12297381758E+03  0.12381491193E+03  0.00000000000E+00 0.  1.
         14    1    6    6    0    0  0.67861041595E+02  0.26994851892E+02  0.72540788243E+02  0.10293691735E+03  0.00000000000E+00 0. -1.
         -5    1    3    3    0  503 -0.14777042085E+02  0.58762639938E+02 -0.10743923772E+03  0.12343698241E+03  0.47000000000E+01 0.  1.
         13    1    4    4    0    0  0.72200817955E+01  0.14809597973E+02  0.39529340891E+01  0.16943419406E+02  0.00000000000E+00 0. -1.
        -14    1    4    4    0    0 -0.31264135578E+02 -0.73666379592E+02 -0.54346836197E+02  0.96735517057E+02  0.00000000000E+00 0.  1.
</event>
<event>
12    1  0.8271773E-002  0.1872564E+03  0.7818608E-02  0.1162677E+00
         21   -1    0    0  503  502  0.00000000000E+00  0.00000000000E+00  0.45505356009E+03  0.45505356009E+03  0.00000000000E+00 0. -1.
         21   -1    0    0  501  503 -0.00000000000E+00 -0.00000000000E+00 -0.13778008399E+03  0.13778008399E+03  0.00000000000E+00 0. -1.
          6    2    1    2  501    0  0.25034545849E+02 -0.70939890967E+02 -0.41197333335E+02  0.19173469838E+03  0.17148112921E+03 0.  0.
         24    2    3    3    0    0  0.59892711457E+02 -0.60812916075E+02 -0.77393787027E+02  0.14025731898E+03  0.79981057826E+02 0.  0.
         -6    2    1    2    0  502 -0.25034545849E+02  0.70939890967E+02  0.35847080944E+03  0.40109894569E+03  0.16346206410E+03 0.  0.
        -24    2    5    5    0    0  0.27364195075E+02  0.96306033159E+02  0.29189477859E+03  0.31253525616E+03  0.49518414546E+02 0.  0.
          5    1    3    3  501    0 -0.34858165607E+02 -0.10126974892E+02  0.36196453692E+02  0.51477379400E+02  0.47000000000E+01 0. -1.
        -13    1    4    4    0    0  0.27902029003E+02  0.16835780021E+02 -0.16528003265E+02  0.36539589534E+02  0.00000000000E+00 0.  1.
         14    1    4    4    0    0  0.31990682454E+02 -0.77648696096E+02 -0.60865783761E+02  0.10371772945E+03  0.00000000000E+00 0. -1.
         -5    1    5    5    0  502 -0.52398740925E+02 -0.25366142193E+02  0.66576030849E+02  0.88563689533E+02  0.47000000000E+01 0.  1.
         11    1    6    6    0    0  0.36712731190E+01  0.19708053871E+02  0.13356965850E+03  0.13506568515E+03  0.00000000000E+00 0. -1.
        -12    1    6    6    0    0  0.23692921957E+02  0.76597979288E+02  0.15832512009E+03  0.17746957100E+03  0.00000000000E+00 0.  1.
</event>
<event>
12    1  0.8271773E-002  0.2069862E+03  0.7818608E-02  0.1143994E+00
         21   -1    0    0  503  502  0.00000000000E+00  0.00000000000E+00  0.93681305355E+02  0.93681305355E+02  0.00000000000E+00 0. -1.
         21   -1    0    0  501  503 -0.00000000000E+00 -0.00000000000E+00 -0.58707812498E+03  0.58707812498E+03  0.00000000000E+00 0. -1.
          6    2    1    2  501    0  0.21115136433E+02  0.11290828243E+03 -0.40679846780E+03  0.45638796497E+03  0.17207804026E+03 0.  0.
         24    2    3    3    0    0  0.38895379953E+02  0.35780303209E+02 -0.33440572658E+03  0.34902101839E+03  0.84825707345E+02 0.  0.
         -6    2    1    2    0  502 -0.21115136433E+02 -0.11290828243E+03 -0.86598351823E+02  0.22437146536E+03  0.17218928742E+03 0.  0.
        -24    2    5    5    0    0  0.46193934703E+02 -0.50094105733E+02 -0.79861637678E+02  0.13193984107E+03  0.79918342429E+02 0.  0.
          5    1    3    3  501    0 -0.17780243519E+02  0.77127979219E+02 -0.72392741218E+02  0.10736694659E+03  0.47000000000E+01 0. -1.
        -11    1    4    4    0    0 -0.12604353585E+02  0.22081512841E+02 -0.23374983511E+03  0.23512857834E+03  0.00000000000E+00 0.  1.
         12    1    4    4    0    0  0.51499733538E+02  0.13698790367E+02 -0.10065589148E+03  0.11389244005E+03  0.00000000000E+00 0. -1.
         -5    1    5    5    0  502 -0.67309071136E+02 -0.62814176695E+02 -0.67367141442E+01  0.92431624288E+02  0.47000000000E+01 0.  1.
         11    1    6    6    0    0  0.81050165587E+01 -0.63807971150E+02 -0.53147816091E+02  0.83437634380E+02  0.00000000000E+00 0. -1.
        -12    1    6    6    0    0  0.38088918144E+02  0.13713865417E+02 -0.26713821587E+02  0.48502206690E+02  0.00000000000E+00 0.  1.
</event>
<event>
12    1  0.8271773E-002  0.1817811E+03  0.7818608E-02  0.1166657E+00
         21   -1    0    0  503  502  0.00000000000E+00  0.00000000000E+00  0.28515001304E+03  0.28515001304E+03  0.00000000000E+00 0.  1.
         21   -1    0    0  501  503 -0.00000000000E+00 -0.00000000000E+00 -0.15412069621E+03  0.15412069621E+03  0.00000000000E+00 0.  1.
          6    2    1    2  501    0  0.24988982356E+02  0.50455959526E+02 -0.45685615296E+02  0.18743406269E+03  0.17284125469E+03 0.  0.
         24    2    3    3    0    0 -0.26220901894E+02 -0.27041129422E+02 -0.20883708713E+02  0.91176722138E+02  0.80363592464E+02 0.  0.
         -6    2    1    2    0  502 -0.24988982356E+02 -0.50455959526E+02  0.17671493213E+03  0.25183664656E+03  0.17036219129E+03 0.  0.
        -24    2    5    5    0    0  0.41548046118E+02 -0.44394137720E+02  0.56355873703E+02  0.11409662047E+03  0.78389889020E+02 0.  0.
          5    1    3    3  501    0  0.51209884250E+02  0.77497088948E+02 -0.24801906584E+02  0.96257340554E+02  0.47000000000E+01 0. -1.
        -11    1    4    4    0    0 -0.47868882087E+01  0.17629866420E+01 -0.46685455787E+02  0.46963328275E+02  0.00000000000E+00 0.  1.
         12    1    4    4    0    0 -0.21434013685E+02 -0.28804116064E+02  0.25801747074E+02  0.44213393864E+02  0.00000000000E+00 0. -1.
         -5    1    5    5    0  502 -0.66537028475E+02 -0.60618218069E+01  0.12035905843E+03  0.13774002609E+03  0.47000000000E+01 0.  1.
         13    1    6    6    0    0  0.30073187236E+02  0.12129383116E+02 -0.14216207902E+01  0.32458273691E+02  0.00000000000E+00 0. -1.
        -14    1    6    6    0    0  0.11474858882E+02 -0.56523520836E+02  0.57777494493E+02  0.81638346774E+02  0.00000000000E+00 0.  1.
</event>
<event>
12    1  0.8271773E-002  0.2140750E+03  0.7818608E-02  0.1138713E+00
         21   -1    0    0  501  502  0.00000000000E+00  0.00000000000E+00  0.15314947454E+03  0.15314947454E+03  0.00000000000E+00 0. -1.
         21   -1    0    0  502  503 -0.00000000000E+00 -0.00000000000E+00 -0.36725820689E+03  0.36725820689E+03  0.00000000000E+00 0.  1.
         -6    2    1    2    0  503  0.54773579721E+02 -0.11240179442E+03 -0.22064568587E+03  0.30623292208E+03  0.17163850224E+03 0.  0.
        -24    2    3    3    0    0  0.34114343014E+02 -0.11470229431E+03 -0.23847204650E+03  0.27844865505E+03  0.79651313965E+02 0.  0.
          6    2    1    2  501    0 -0.54773579721E+02  0.11240179442E+03  0.65369535212E+01  0.21417475935E+03  0.17376359618E+03 0.  0.
         24    2    5    5    0    0  0.34463294511E+02  0.40741238640E+02 -0.12463581859E+02  0.98064616284E+02  0.81325032430E+02 0.  0.
          5    1    5    5  501    0 -0.89236874232E+02  0.71660555779E+02  0.19000535380E+02  0.11611014306E+03  0.47000000000E+01 0. -1.
        -11    1    6    6    0    0 -0.25284480471E+02  0.28925082304E+01 -0.98504857117E+01  0.27289258423E+02  0.00000000000E+00 0.  1.
         12    1    6    6    0    0  0.59747774982E+02  0.37848730410E+02 -0.26130961474E+01  0.70775357861E+02  0.00000000000E+00 0. -1.
         -5    1    3    3    0  503  0.20659236707E+02  0.23004998896E+01  0.17826360634E+02  0.27784267032E+02  0.47000000000E+01 0.  1.
         11    1    4    4    0    0 -0.10677332146E+02 -0.59080557245E+02 -0.54435284476E+02  0.81041457675E+02  0.00000000000E+00 0. -1.
        -12    1    4    4    0    0  0.44791675160E+02 -0.55621737063E+02 -0.18403676202E+03  0.19740719737E+03  0.00000000000E+00 0.  1.
</event>
<event>
12    1  0.8271773E-002  0.1824423E+03  0.7818608E-02  0.1166542E+00
         21   -1    0    0  501  502  0.00000000000E+00  0.00000000000E+00  0.95271652886E+02  0.95271652886E+02  0.00000000000E+00 0. -1.
         21   -1    0    0  502  503 -0.00000000000E+00 -0.00000000000E+00 -0.64180329585E+03  0.64180329585E+03  0.00000000000E+00 0. -1.
         -6    2    1    2    0  503  0.13460577546E+02  0.50729479079E+02 -0.52743963274E+03  0.55810191054E+03  0.17472981763E+03 0.  0.
        -24    2    3    3    0    0  0.72085302432E+02  0.34927739409E+02 -0.24421203428E+03  0.26840117551E+03  0.77352669788E+02 0.  0.
          6    2    1    2  501    0 -0.13460577546E+02 -0.50729479079E+02 -0.19092010222E+02  0.17897303820E+03  0.17003580903E+03 0.  0.
         24    2    5    5    0    0 -0.36156419877E+02  0.29997635013E+02  0.91529973340E+00  0.92634456666E+02  0.79832073651E+02 0.  0.
          5    1    5    5  501    0  0.22695842331E+02 -0.80727114093E+02 -0.20007309956E+02  0.86338581529E+02  0.47000000000E+01 0. -1.
        -13    1    6    6    0    0  0.22029227781E+02 -0.12966703467E+00 -0.13098971939E+02  0.25629802107E+02  0.00000000000E+00 0.  1.
         14    1    6    6    0    0 -0.58185647658E+02  0.30127302048E+02  0.14014271672E+02  0.67004654559E+02  0.00000000000E+00 0. -1.
         -5    1    3    3    0  503 -0.58624724886E+02  0.15801739670E+02 -0.28322759847E+03  0.28970073503E+03  0.47000000000E+01 0.  1.
         11    1    4    4    0    0  0.85459937217E+02  0.30465578762E+02 -0.16836321431E+03  0.19125303734E+03  0.00000000000E+00 0. -1.
        -12    1    4    4    0    0 -0.13374634785E+02  0.44621606467E+01 -0.75848819962E+02  0.77148138169E+02  0.00000000000E+00 0.  1.
</event>
<event>
12    1  0.8271773E-002  0.1847696E+03  0.7818608E-02  0.1163658E+00
         21   -1    0    0  501  502  0.00000000000E+00  0.00000000000E+00  0.20591152630E+03  0.20591152630E+03  0.00000000000E+00 0.  1.
         21   -1    0    0  502  503 -0.00000000000E+00 -0.00000000000E+00 -0.55368126178E+03  0.55368126178E+03  0.00000000000E+00 0.  1.
         -6    2    1    2    0  503  0.49080532352E+02  0.37595035376E+02 -0.49214767304E+03  0.52510438670E+03  0.17234558164E+03 0.  0.
        -24    2    3    3    0    0  0.11804291202E+02  0.91684365595E+01 -0.10322783944E+03  0.13334129931E+03  0.83069330957E+02 0.  0.
          6    2    1    2  501    0 -0.49080532352E+02 -0.37595035376E+02  0.14437793756E+03  0.23448840139E+03  0.17411931596E+03 0.  0.
         24    2    5    5    0    0  0.35101335213E+02 -0.59205113483E+01  0.10245039412E+03  0.13514117597E+03  0.80621944894E+02 0.  0.
          5    1    5    5  501    0 -0.84181867566E+02 -0.31674524028E+02  0.41927543446E+02  0.99347225420E+02  0.47000000000E+01 0. -1.
        -13    1    6    6    0    0  0.30703720355E+02 -0.34796463502E+02  0.25759004151E+02  0.53075781773E+02  0.00000000000E+00 0.  1.
         14    1    6    6    0    0  0.43976148582E+01  0.28875952154E+02  0.76691389966E+02  0.82065394194E+02  0.00000000000E+00 0. -1.
         -5    1    3    3    0  503  0.37276241151E+02  0.28426598816E+02 -0.38891983360E+03  0.39176308739E+03  0.47000000000E+01 0.  1.
         11    1    4    4    0    0 -0.15037302447E+02 -0.52651139515E+01 -0.10157861879E+03  0.10282051199E+03  0.00000000000E+00 0. -1.
        -12    1    4    4    0    0  0.26841593648E+02  0.14433550511E+02 -0.16492206504E+01  0.30520787321E+02  0.00000000000E+00 0.  1.
</event>
<event>
12    1  0.8271773E-002  0.1970770E+03  0.7818608E-02  0.1152350E+00
         21   -1    0    0  501  502  0.00000000000E+00  0.00000000000E+00  0.11141117140E+04  0.11141117140E+04  0.00000000000E+00 0.  1.
         21   -1    0    0  502  503 -0.00000000000E+00 -0.00000000000E+00 -0.29301885570E+03  0.29301885570E+03  0.00000000000E+00 0.  1.
         -6    2    1    2    0  503  0.93253439669E+02  0.23278588972E+02 -0.24989875138E+03  0.31825888254E+03  0.17205009054E+03 0.  0.
        -24    2    3    3    0    0  0.53183565573E+02  0.80115489532E+02 -0.13972306133E+03  0.18788710356E+03  0.80821077115E+02 0.  0.
          6    2    1    2  501    0 -0.93253439669E+02 -0.23278588972E+02  0.10709916097E+04  0.10888716872E+04  0.17140719472E+03 0.  0.
         24    2    5    5    0    0 -0.28812400613E+02 -0.75079350607E+02  0.64058150468E+03  0.65056709569E+03  0.80161203518E+02 0.  0.
          5    1    5    5  501    0 -0.64441039056E+02  0.51800761635E+02  0.43041010505E+03  0.43830459152E+03  0.47000000000E+01 0. -1.
        -13    1    6    6    0    0 -0.42436362655E+02 -0.23565714997E+02  0.16447837973E+03  0.17149147267E+03  0.00000000000E+00 0.  1.
         14    1    6    6    0    0  0.13623962041E+02 -0.51513635610E+02  0.47610312494E+03  0.47907562303E+03  0.00000000000E+00 0. -1.
         -5    1    3    3    0  503  0.40069874096E+02 -0.56836900560E+02 -0.11017569006E+03  0.13037177898E+03  0.47000000000E+01 0.  1.
         11    1    4    4    0    0  0.69178447235E+01  0.43371917902E+02 -0.11632683940E+03  0.12434192135E+03  0.00000000000E+00 0. -1.
        -12    1    4    4    0    0  0.46265720850E+02  0.36743571630E+02 -0.23396221922E+02  0.63545182210E+02  0.00000000000E+00 0.  1.
</event>
<event>
12    1  0.8271773E-002  0.2025771E+03  0.7818608E-02  0.1148010E+00
         21   -1    0    0  501  502  0.00000000000E+00  0.00000000000E+00  0.49506149921E+02  0.49506149921E+02  0.00000000000E+00 0. -1.
         21   -1    0    0  502  503 -0.00000000000E+00 -0.00000000000E+00 -0.12572324323E+04  0.12572324323E+04  0.00000000000E+00 0.  1.
         -6    2    1    2    0  503 -0.65870521418E+02  0.79251392699E+02 -0.99091012463E+03  0.10114051459E+04  0.17440695266E+03 0.  0.
        -24    2    3    3    0    0  0.31268463375E+02  0.40295035772E+02 -0.37932249063E+03  0.39090929239E+03  0.79518024797E+02 0.  0.
          6    2    1    2  501    0  0.65870521418E+02 -0.79251392699E+02 -0.21681615774E+03  0.29533343635E+03  0.17202582229E+03 0.  0.
         24    2    5    5    0    0  0.88188311172E+02 -0.27215731607E+02 -0.74430625015E+02  0.14203136952E+03  0.78199218121E+02 0.  0.
          5    1    5    5  501    0 -0.22317789754E+02 -0.52035661092E+02 -0.14238553272E+03  0.15330206682E+03  0.47000000000E+01 0. -1.
        -11    1    6    6    0    0  0.69075955708E+01  0.22209802675E+02 -0.38432938104E+01  0.23574586290E+02  0.00000000000E+00 0.  1.
         12    1    6    6    0    0  0.81280715601E+02 -0.49425534282E+02 -0.70587331205E+02  0.11845678323E+03  0.00000000000E+00 0. -1.
         -5    1    3    3    0  503 -0.97138984793E+02  0.38956356927E+02 -0.61158763400E+03  0.62049585347E+03  0.47000000000E+01 0.  1.
         13    1    4    4    0    0 -0.14463382464E+02  0.35037505929E+02 -0.85814155227E+02  0.93813034762E+02  0.00000000000E+00 0. -1.
        -14    1    4    4    0    0  0.45731845839E+02  0.52575298432E+01 -0.29350833540E+03  0.29709625763E+03  0.00000000000E+00 0.  1.
</event>
<event>
12    1  0.8271773E-002  0.2289236E+03  0.7818608E-02  0.1127428E+00
         21   -1    0    0  501  502  0.00000000000E+00  0.00000000000E+00  0.42778501146E+02  0.42778501146E+02  0.00000000000E+00 0. -1.
         21   -1    0    0  502  503 -0.00000000000E+00 -0.00000000000E+00 -0.19853428408E+04  0.19853428408E+04  0.00000000000E+00 0.  1.
         -6    2    1    2    0  503 -0.20852124826E+01  0.15181795158E+03 -0.15993674384E+04  0.16156677349E+04  0.17132713748E+03 0.  0.
        -24    2    3    3    0    0 -0.50117165116E+02  0.45334767637E+02 -0.53678257977E+03  0.54667081782E+03  0.78399449687E+02 0.  0.
          6    2    1    2  501    0  0.20852124826E+01 -0.15181795158E+03 -0.34319690127E+03  0.41245360706E+03  0.17111641185E+03 0.  0.
         24    2    5    5    0    0  0.48988373021E+02 -0.56732209507E+02 -0.24287020402E+03  0.26640998004E+03  0.79811886175E+02 0.  0.
          5    1    5    5  501    0 -0.46903160539E+02 -0.95085742076E+02 -0.10032669724E+03  0.14604362702E+03  0.47000000000E+01 0. -1.
        -11    1    6    6    0    0  0.37844727622E+02 -0.78434989975E+01 -0.33587381357E+02  0.51204063040E+02  0.00000000000E+00 0.  1.
         12    1    6    6    0    0  0.11143645399E+02 -0.48888710509E+02 -0.20928282267E+03  0.21520591700E+03  0.00000000000E+00 0. -1.
         -5    1    3    3    0  503  0.48031952633E+02  0.10648318395E+03 -0.10625848586E+04  0.10689969171E+04  0.47000000000E+01 0.  1.
         13    1    4    4    0    0  0.15215402888E+02  0.44177198374E+01 -0.28782756734E+02  0.32855316446E+02  0.00000000000E+00 0. -1.
        -14    1    4    4    0    0 -0.65332568004E+02  0.40917047800E+02 -0.50799982304E+03  0.51381550137E+03  0.00000000000E+00 0.  1.
</event>
<event>
12    1  0.8271773E-002  0.2216570E+03  0.7818608E-02  0.1132736E+00
         21   -1    0    0  503  502  0.00000000000E+00  0.00000000000E+00  0.14463393086E+03  0.14463393086E+03  0.00000000000E+00 0.  1.
         21   -1    0    0  501  503 -0.00000000000E+00 -0.00000000000E+00 -0.10297909847E+04  0.10297909847E+04  0.00000000000E+00 0.  1.
          6    2    1    2  501    0  0.13147019248E+03 -0.47170230279E+02 -0.92337044343E+03  0.94949810652E+03  0.17153494202E+03 0.  0.
         24    2    3    3    0    0  0.80787905339E+02 -0.97322401643E+02 -0.59310202576E+03  0.61158798202E+03  0.79192873942E+02 0.  0.
         -6    2    1    2    0  502 -0.13147019248E+03  0.47170230279E+02  0.38213389554E+02  0.22492680908E+03  0.17211148761E+03 0.  0.
        -24    2    5    5    0    0 -0.30661150118E+02 -0.23531604918E+02  0.38542420792E+02  0.10170582555E+03  0.85817913009E+02 0.  0.
          5    1    3    3  501    0  0.50682287137E+02  0.50152171364E+02 -0.33026841767E+03  0.33791012449E+03  0.47000000000E+01 0. -1.
        -13    1    4    4    0    0  0.88276209813E+02 -0.52165437391E+02 -0.37730547268E+03  0.39099020677E+03  0.00000000000E+00 0.  1.
         14    1    4    4    0    0 -0.74883044745E+01 -0.45156964252E+02 -0.21579655308E+03  0.22059777525E+03  0.00000000000E+00 0. -1.
         -5    1    5    5    0  502 -0.10080904236E+03  0.70701835197E+02 -0.32903123827E+00  0.12322098353E+03  0.47000000000E+01 0.  1.
         13    1    6    6    0    0  0.15784815924E+02  0.21839843831E+02  0.15807342984E+01  0.26993293857E+02  0.00000000000E+00 0. -1.
        -14    1    6    6    0    0 -0.46445966042E+02 -0.45371448749E+02  0.36961686494E+02  0.74712531690E+02  0.00000000000E+00 0.  1.
</event>
<event>
12    1  0.8271773E-002  0.3113270E+03  0.7818608E-02  0.1079726E+00
         21   -1    0    0  503  502  0.00000000000E+00  0.00000000000E+00  0.94183451824E+03  0.94183451824E+03  0.00000000000E+00 0. -1.
         21   -1    0    0  501  503 -0.00000000000E+00 -0.00000000000E+00 -0.10506852090E+03  0.10506852090E+03  0.00000000000E+00 0.  1.
          6    2    1    2  501    0  0.23522346850E+03 -0.10902171436E+03  0.34261250875E+03  0.46285492584E+03  0.17214975133E+03 0.  0.
         24    2    3    3    0    0  0.18438429559E+03 -0.12731620742E+03  0.33027012477E+03  0.40723357723E+03  0.80955827287E+02 0.  0.
         -6    2    1    2    0  502 -0.23522346850E+03  0.10902171436E+03  0.49415348859E+03  0.58404811331E+03  0.17236215953E+03 0.  0.
        -24    2    5    5    0    0 -0.12177835065E+03  0.11195093078E+03  0.21258928138E+03  0.28043838380E+03  0.78028885425E+02 0.  0.
          5    1    3    3  501    0  0.50839172912E+02  0.18294493065E+02  0.12342383977E+02  0.55621348609E+02  0.47000000000E+01 0. -1.
        -11    1    4    4    0    0  0.81661804554E+02 -0.10263204159E+03  0.16046707632E+03  0.20724784406E+03  0.00000000000E+00 0.  1.
         12    1    4    4    0    0  0.10272249103E+03 -0.24684165832E+02  0.16980304845E+03  0.19998573317E+03  0.00000000000E+00 0. -1.
         -5    1    5    5    0  502 -0.11344511785E+03 -0.29292164160E+01  0.28156420721E+03  0.30360972951E+03  0.47000000000E+01 0.  1.
         11    1    6    6    0    0 -0.13112436810E+03  0.10549693230E+03  0.20938729912E+03  0.26863775548E+03  0.00000000000E+00 0. -1.
        -12    1    6    6    0    0  0.93460174465E+01  0.64539984740E+01  0.32019822604E+01  0.11800628323E+02  0.00000000000E+00 0.  1.
</event>
<event>
12    1  0.8271773E-002  0.1763857E+03  0.7818608E-02  0.1171949E+00
         21   -1    0    0  501  502  0.00000000000E+00  0.00000000000E+00  0.90912560303E+03  0.90912560303E+03  0.00000000000E+00 0. -1.
         21   -1    0    0  502  503 -0.00000000000E+00 -0.00000000000E+00 -0.33951889725E+02  0.33951889725E+02  0.00000000000E+00 0.  1.
         -6    2    1    2    0  503  0.37976055196E+02  0.49914215625E+01  0.47030707056E+03  0.50145669809E+03  0.16971442008E+03 0.  0.
        -24    2    3    3    0    0  0.72155903690E+02 -0.46092924734E+01  0.18012795673E+03  0.20907604918E+03  0.77710961460E+02 0.  0.
          6    2    1    2  501    0 -0.37976055196E+02 -0.49914215625E+01  0.40486664274E+03  0.44162079466E+03  0.17217674877E+03 0.  0.
         24    2    5    5    0    0 -0.10151700258E+02 -0.66960163823E+02  0.23886259118E+03  0.26219461241E+03  0.84284973459E+02 0.  0.
          5    1    5    5  501    0 -0.27824354938E+02  0.61968742261E+02  0.16600405155E+03  0.17942618225E+03  0.47000000000E+01 0. -1.
        -11    1    6    6    0    0 -0.35495477343E+02  0.10788710032E+01  0.79720200369E+02  0.87272007089E+02  0.00000000000E+00 0.  1.
         12    1    6    6    0    0  0.25343777085E+02 -0.68039034826E+02  0.15914239082E+03  0.17492260532E+03  0.00000000000E+00 0. -1.
         -5    1    3    3    0  503 -0.34179848495E+02  0.96007140359E+01  0.29017911383E+03  0.29238064891E+03  0.47000000000E+01 0.  1.
         13    1    4    4    0    0  0.35777128974E+02 -0.10812190752E+02  0.16501977149E+03  0.16919938360E+03  0.00000000000E+00 0. -1.
        -14    1    4    4    0    0  0.36378774716E+02  0.62028982785E+01  0.15108185239E+02  0.39876665584E+02  0.00000000000E+00 0.  1.
</event>
<event>
12    1  0.8271773E-002  0.1845211E+03  0.7818608E-02  0.1163732E+00
         21   -1    0    0  503  502  0.00000000000E+00  0.00000000000E+00  0.15195333385E+03  0.15195333385E+03  0.00000000000E+00 0.  1.
         21   -1    0    0  501  503 -0.00000000000E+00 -0.00000000000E+00 -0.26051090931E+03  0.26051090931E+03  0.00000000000E+00 0.  1.
          6    2    1    2  501    0 -0.22459506922E+01  0.61493884432E+02 -0.13255598737E+03  0.22638908983E+03  0.17289993663E+03 0.  0.
         24    2    3    3    0    0  0.30751313540E+02 -0.34996946369E+01 -0.24628735838E+02  0.96068844314E+02  0.87548598343E+02 0.  0.
         -6    2    1    2    0  502  0.22459506922E+01 -0.61493884432E+02  0.23998411921E+02  0.18607515333E+03  0.17395831913E+03 0.  0.
        -24    2    5    5    0    0  0.67676676936E+02 -0.47132850018E+02  0.30288898169E+02  0.11862828933E+03  0.79709569847E+02 0.  0.
          5    1    3    3  501    0 -0.32997264232E+02  0.64993579069E+02 -0.10792725154E+03  0.13032024552E+03  0.47000000000E+01 0. -1.
        -11    1    4    4    0    0  0.11665478673E+02  0.39922878533E+02  0.20610871146E+01  0.41643339241E+02  0.00000000000E+00 0.  1.
         12    1    4    4    0    0  0.19085834867E+02 -0.43422573170E+02 -0.26689822952E+02  0.54425505073E+02  0.00000000000E+00 0. -1.
         -5    1    5    5    0  502 -0.65430726243E+02 -0.14361034414E+02 -0.62904862483E+01  0.67446864000E+02  0.47000000000E+01 0.  1.
         11    1    6    6    0    0  0.32903006638E+02 -0.12910542707E+02 -0.26192417784E+02  0.43992416485E+02  0.00000000000E+00 0. -1.
        -12    1    6    6    0    0  0.34773670298E+02 -0.34222307311E+02  0.56481315953E+02  0.74635872846E+02  0.00000000000E+00 0.  1.
</event>
<event>
12    1  0.8271773E-002  0.3212771E+03  0.7818608E-02  0.1075064E+00
         21   -1    0    0  501  502  0.00000000000E+00  0.00000000000E+00  0.14296375586E+03  0.14296375586E+03  0.00000000000E+00 0. -1.
         21   -1    0    0  502  503 -0.00000000000E+00 -0.00000000000E+00 -0.12265622114E+04  0.12265622114E+04  0.00000000000E+00 0.  1.
         -6    2    1    2    0  503 -0.21755027784E+03  0.16251873941E+03 -0.98100482294E+03  0.10322739312E+04  0.17169316323E+03 0.  0.
        -24    2    3    3    0    0 -0.89294149526E+02  0.49439463618E+02 -0.60928260747E+03  0.62308442430E+03  0.81186195474E+02 0.  0.
          6    2    1    2  501    0  0.21755027784E+03 -0.16251873941E+03 -0.10259363265E+03  0.33725203614E+03  0.17167707585E+03 0.  0.
         24    2    5    5    0    0  0.19965218862E+03 -0.70188600326E+02 -0.61094560653E+02  0.23434693832E+03  0.79990662728E+02 0.  0.
          5    1    5    5  501    0  0.17898089220E+02 -0.92330139079E+02 -0.41499071993E+02  0.10290509781E+03  0.47000000000E+01 0. -1.
        -13    1    6    6    0    0  0.54333941759E+02  0.97834156312E+01  0.57666519740E+01  0.55508078002E+02  0.00000000000E+00 0.  1.
         14    1    6    6    0    0  0.14531824686E+03 -0.79972015958E+02 -0.66861212627E+02  0.17883886032E+03  0.00000000000E+00 0. -1.
         -5    1    3    3    0  503 -0.12825612831E+03  0.11307927579E+03 -0.37172221547E+03  0.40918950688E+03  0.47000000000E+01 0.  1.
         11    1    4    4    0    0 -0.17872553656E+02  0.53468272325E+02 -0.20953581054E+03  0.21698741950E+03  0.00000000000E+00 0. -1.
        -12    1    4    4    0    0 -0.71421595870E+02 -0.40288087069E+01 -0.39974679692E+03  0.40609700480E+03  0.00000000000E+00 0.  1.
</event>
<event>
12    1  0.8271773E-002  0.1826989E+03  0.7818608E-02  0.1165376E+00
         21   -1    0    0  503  502  0.00000000000E+00  0.00000000000E+00  0.65292496716E+02  0.65292496716E+02  0.00000000000E+00 0.  1.
         21   -1    0    0  501  503 -0.00000000000E+00 -0.00000000000E+00 -0.18449817692E+04  0.18449817692E+04  0.00000000000E+00 0.  1.
          6    2    1    2  501    0 -0.54860949569E+02 -0.26126935649E+02 -0.17029646510E+04  0.17127368386E+04  0.17229780967E+03 0.  0.
         24    2    3    3    0    0 -0.84434622545E+02 -0.61388747798E+02 -0.14223512988E+04  0.14283358172E+04  0.78499718085E+02 0.  0.
         -6    2    1    2    0  502  0.54860949569E+02  0.26126935649E+02 -0.76724621491E+02  0.19753742731E+03  0.17158679172E+03 0.  0.
        -24    2    5    5    0    0  0.79695322888E+02 -0.30131120451E+02 -0.63616543838E+02  0.13448485660E+03  0.82340045509E+02 0.  0.
          5    1    3    3  501    0  0.29573672976E+02  0.35261812150E+02 -0.28061335223E+03  0.28440102141E+03  0.47000000000E+01 0. -1.
        -11    1    4    4    0    0 -0.23343391155E+02 -0.62212285348E+02 -0.89341419208E+03  0.89588180078E+03  0.00000000000E+00 0.  1.
         12    1    4    4    0    0 -0.61091231390E+02  0.82353754943E+00 -0.52893710671E+03  0.53245401644E+03  0.00000000000E+00 0. -1.
         -5    1    5    5    0  502 -0.24834373318E+02  0.56258056100E+02 -0.13108077653E+02  0.63052570717E+02  0.47000000000E+01 0.  1.
         11    1    6    6    0    0  0.80947046015E+01 -0.44693158889E+02 -0.24447154411E+02  0.51581644534E+02  0.00000000000E+00 0. -1.
        -12    1    6    6    0    0  0.71600618286E+02  0.14562038438E+02 -0.39169389427E+02  0.82903212064E+02  0.00000000000E+00 0.  1.
</event>
<event>
12    1  0.8271773E-002  0.2921598E+03  0.7818608E-02  0.1089495E+00
         21   -1    0    0  501  502  0.00000000000E+00  0.00000000000E+00  0.41525693227E+04  0.41525693227E+04  0.00000000000E+00 0. -1.
         21   -1    0    0  502  503 -0.00000000000E+00 -0.00000000000E+00 -0.20427833640E+02  0.20427833640E+02  0.00000000000E+00 0. -1.
         -6    2    1    2    0  503 -0.47642881918E+01 -0.23334920920E+03  0.19971128638E+04  0.20180715036E+04  0.17227376784E+03 0.  0.
        -24    2    3    3    0    0  0.21663534894E+02 -0.20337678802E+03  0.19045551608E+04  0.19171468077E+04  0.79310119327E+02 0.  0.
          6    2    1    2  501    0  0.47642881918E+01  0.23334920920E+03  0.21350286253E+04  0.21549256527E+04  0.17573498854E+03 0.  0.
         24    2    5    5    0    0 -0.45768206360E+02  0.21190300775E+03  0.15195538212E+04  0.15369897361E+04  0.79347464260E+02 0.  0.
          5    1    5    5  501    0  0.50532494552E+02  0.21446201457E+02  0.61547480408E+03  0.61793591660E+03  0.47000000000E+01 0. -1.
        -11    1    6    6    0    0  0.79570304886E+01  0.46257572637E+02  0.54351896405E+03  0.54554187890E+03  0.00000000000E+00 0.  1.
         12    1    6    6    0    0 -0.53725236849E+02  0.16564543511E+03  0.97603485715E+03  0.99144785724E+03  0.00000000000E+00 0. -1.
         -5    1    3    3    0  503 -0.26427823085E+02 -0.29972421185E+02  0.92557702958E+02  0.10092469590E+03  0.47000000000E+01 0.  1.
         11    1    4    4    0    0 -0.22538684138E+02 -0.13987296530E+03  0.11818487041E+04  0.11903103789E+04  0.00000000000E+00 0. -1.
        -12    1    4    4    0    0  0.44202219031E+02 -0.63503822714E+02  0.72270645667E+03  0.72683642877E+03  0.00000000000E+00 0.  1.
</event>
<event>
12    1  0.8271773E-002  0.2196709E+03  0.7818608E-02  0.1134607E+00
         21   -1    0    0  503  502  0.00000000000E+00  0.00000000000E+00  0.11794514129E+04  0.11794514129E+04  0.00000000000E+00 0.  1.
         21   -1    0    0  501  503 -0.00000000000E+00 -0.00000000000E+00 -0.40885963449E+02  0.40885963449E+02  0.00000000000E+00 0.  1.
          6    2    1    2  501    0 -0.13189012043E+03 -0.31784961409E+02  0.50888003366E+03  0.55426905603E+03  0.17277155489E+03 0.  0.
         24    2    3    3    0    0 -0.10995507638E+03  0.22520751003E+02  0.45183007173E+03  0.47237250718E+03  0.79925395043E+02 0.  0.
         -6    2    1    2    0  502  0.13189012043E+03  0.31784961409E+02  0.62968541578E+03  0.66606832031E+03  0.16952285047E+03 0.  0.
        -24    2    5    5    0    0  0.74873935735E+02  0.43682363335E+02  0.57039511995E+03  0.58282276385E+03  0.82568311626E+02 0.  0.
          5    1    3    3  501    0 -0.21935044042E+02 -0.54305712412E+02  0.57049961935E+02  0.81896548856E+02  0.47000000000E+01 0. -1.
        -11    1    4    4    0    0 -0.93523561817E+02  0.41037866271E+02  0.26656051772E+03  0.28545625354E+03  0.00000000000E+00 0.  1.
         12    1    4    4    0    0 -0.16431514566E+02 -0.18517115268E+02  0.18526955401E+03  0.18691625363E+03  0.00000000000E+00 0. -1.
         -5    1    5    5    0  502  0.57016184690E+02 -0.11897401926E+02  0.59290295831E+02  0.83245556451E+02  0.47000000000E+01 0.  1.
         13    1    6    6    0    0 -0.16607496610E+02 -0.28779622478E+01  0.93260759275E+02  0.94771624608E+02  0.00000000000E+00 0. -1.
        -14    1    6    6    0    0  0.91481432345E+02  0.46560325583E+02  0.47713436067E+03  0.48805113925E+03  0.00000000000E+00 0.  1.
</event>
<event>
12    1  0.8271773E-002  0.1958153E+03  0.7818608E-02  0.1154079E+00
         21   -1    0    0  503  502  0.00000000000E+00  0.00000000000E+00  0.58922438302E+03  0.58922438302E+03  0.00000000000E+00 0.  1.
         21   -1    0    0  501  503 -0.00000000000E+00 -0.00000000000E+00 -0.92137695664E+02  0.92137695664E+02  0.00000000000E+00 0. -1.
          6    2    1    2  501    0  0.15382507955E+02  0.91951631544E+02  0.61576416079E+02  0.20526881330E+03  0.17219728977E+03 0.  0.
         24    2    3    3    0    0 -0.16165315811E+02  0.11813281631E+03  0.75025011367E+02  0.16186749610E+03  0.79722357211E+02 0.  0.
         -6    2    1    2    0  502 -0.15382507955E+02 -0.91951631544E+02  0.43551027128E+03  0.47609326538E+03  0.16823756078E+03 0.  0.
        -24    2    5    5    0    0 -0.41264736394E+02 -0.11529171658E+03  0.40087414163E+03  0.42673335457E+03  0.80039490814E+02 0.  0.
          5    1    3    3  501    0  0.31547823766E+02 -0.26181184762E+02 -0.13448595288E+02  0.43401317205E+02  0.47000000000E+01 0. -1.
        -13    1    4    4    0    0 -0.27627303704E+02  0.15526652822E+02  0.43688080525E+02  0.53972152429E+02  0.00000000000E+00 0.  1.
         14    1    4    4    0    0  0.11461987894E+02  0.10260616348E+03  0.31336930842E+02  0.10789534367E+03  0.00000000000E+00 0. -1.
         -5    1    5    5    0  502  0.25882228439E+02  0.23340085038E+02  0.34636129645E+02  0.49359910812E+02  0.47000000000E+01 0.  1.
         13    1    6    6    0    0 -0.87075879287E+01 -0.49145392189E+02  0.60325948663E+02  0.78296307339E+02  0.00000000000E+00 0. -1.
        -14    1    6    6    0    0 -0.32557148465E+02 -0.66146324394E+02  0.34054819297E+03  0.34843704723E+03  0.00000000000E+00 0.  1.
</event>
<event>
12    1  0.8271773E-002  0.2905897E+03  0.7818608E-02  0.1090331E+00
         21   -1    0    0  503  502  0.00000000000E+00  0.00000000000E+00  0.62842487665E+03  0.62842487665E+03  0.00000000000E+00 0. -1.
         21   -1    0    0  501  503 -0.00000000000E+00 -0.00000000000E+00 -0.53995290613E+03  0.53995290613E+03  0.00000000000E+00 0.  1.
          6    2    1    2  501    0 -0.20237165533E+03 -0.11355137003E+03 -0.46274895589E+03  0.54525110464E+03  0.17121323085E+03 0.  0.
         24    2    3    3    0    0 -0.46893188663E+02 -0.84974098726E+02 -0.16772610686E+03  0.21051122730E+03  0.82239657707E+02 0.  0.
         -6    2    1    2    0  502  0.20237165533E+03  0.11355137003E+03  0.55122092640E+03  0.62312667814E+03  0.17491182576E+03 0.  0.
        -24    2    5    5    0    0  0.32634523148E+02  0.56742372793E+02  0.13264763400E+03  0.16786450388E+03  0.79362383303E+02 0.  0.
          5    1    3    3  501    0 -0.15547846667E+03 -0.28577271306E+02 -0.29502284903E+03  0.33473987734E+03  0.47000000000E+01 0. -1.
        -13    1    4    4    0    0 -0.61311148745E+02 -0.84688290744E+02 -0.16572985098E+03  0.19595292051E+03  0.00000000000E+00 0.  1.
         14    1    4    4    0    0  0.14417960082E+02 -0.28580798258E+00 -0.19962558796E+01  0.14558306793E+02  0.00000000000E+00 0. -1.
         -5    1    5    5    0  502  0.16973713218E+03  0.56808997239E+02  0.41857329240E+03  0.45526217427E+03  0.47000000000E+01 0.  1.
         13    1    6    6    0    0  0.56793350331E+02  0.31132027303E+02  0.10379960044E+03  0.12234804787E+03  0.00000000000E+00 0. -1.
        -14    1    6    6    0    0 -0.24158827183E+02  0.25610345490E+02  0.28848033562E+02  0.45516456006E+02  0.00000000000E+00 0.  1.
</event>
<event>
12    1  0.8271773E-002  0.2449466E+03  0.7818608E-02  0.1116942E+00
         21   -1    0    0  501  502  0.00000000000E+00  0.00000000000E+00  0.10752109788E+03  0.10752109788E+03  0.00000000000E+00 0.  1.
         21   -1    0    0  502  503 -0.00000000000E+00 -0.00000000000E+00 -0.77324270127E+03  0.77324270127E+03  0.00000000000E+00 0. -1.
         -6    2    1    2    0  503 -0.77380038892E+02 -0.15256138523E+03 -0.56939093888E+03  0.61984262684E+03  0.17531740954E+03 0.  0.
        -24    2    3    3    0    0 -0.38486935372E+02 -0.68824665222E+01 -0.14445175187E+03  0.16892087807E+03  0.78353952610E+02 0.  0.
          6    2    1    2  501    0  0.77380038892E+02  0.15256138523E+03 -0.96330664509E+02  0.26092117231E+03  0.17186510570E+03 0.  0.
         24    2    5    5    0    0  0.99600485531E+01  0.14158336128E+03 -0.29202824432E+02  0.16503473417E+03  0.78984857839E+02 0.  0.
          5    1    5    5  501    0  0.67419990339E+02  0.10978023944E+02 -0.67127840077E+02  0.95886438147E+02  0.47000000000E+01 0. -1.
        -11    1    6    6    0    0  0.27978469389E+02  0.13287109943E+03 -0.40953061517E+02  0.14182622134E+03  0.00000000000E+00 0.  1.
         12    1    6    6    0    0 -0.18018420836E+02  0.87122618553E+01  0.11750237085E+02  0.23208512827E+02  0.00000000000E+00 0. -1.
         -5    1    3    3    0  503 -0.38893103520E+02 -0.14567891870E+03 -0.42493918701E+03  0.45092174877E+03  0.47000000000E+01 0.  1.
         11    1    4    4    0    0 -0.62501041988E+02  0.11043279653E+00 -0.10581262834E+03  0.12289306230E+03  0.00000000000E+00 0. -1.
        -12    1    4    4    0    0  0.24014106615E+02 -0.69928993187E+01 -0.38639123524E+02  0.46027815766E+02  0.00000000000E+00 0.  1.
</event>
<event>
12    1  0.8271773E-002  0.3266356E+03  0.7818608E-02  0.1072701E+00
         21   -1    0    0  503  502  0.00000000000E+00  0.00000000000E+00  0.56345229918E+03  0.56345229918E+03  0.00000000000E+00 0. -1.
         21   -1    0    0  501  503 -0.00000000000E+00 -0.00000000000E+00 -0.20222556811E+03  0.20222556811E+03  0.00000000000E+00 0. -1.
          6    2    1    2  501    0 -0.24781789700E+03 -0.12289609582E+03  0.82612619227E+02  0.33635670535E+03  0.17260888718E+03 0.  0.
         24    2    3    3    0    0 -0.34739093616E+02 -0.26982890365E+02  0.27151177094E+02  0.96148501912E+02  0.81070753078E+02 0.  0.
         -6    2    1    2    0  502  0.24781789700E+03  0.12289609582E+03  0.27861411184E+03  0.42932116195E+03  0.17370571763E+03 0.  0.
        -24    2    5    5    0    0  0.10651599204E+03  0.86559102335E+02  0.22122575810E+03  0.27247053687E+03  0.80381730887E+02 0.  0.
          5    1    3    3  501    0 -0.21307880339E+03 -0.95913205452E+02  0.55461442132E+02  0.24020820343E+03  0.47000000000E+01 0. -1.
        -11    1    4    4    0    0 -0.74958855783E+01 -0.52560369203E+02  0.65976551164E+01  0.53500558543E+02  0.00000000000E+00 0.  1.
         12    1    4    4    0    0 -0.27243208038E+02  0.25577478838E+02  0.20553521978E+02  0.42647943369E+02  0.00000000000E+00 0. -1.
         -5    1    5    5    0  502  0.14130190497E+03  0.36336993482E+02  0.57388353745E+02  0.15685062508E+03  0.47000000000E+01 0.  1.
         13    1    6    6    0    0  0.81821941636E+02  0.52086759961E+02  0.82260778075E+02  0.12717977947E+03  0.00000000000E+00 0. -1.
        -14    1    6    6    0    0  0.24694050403E+02  0.34472342374E+02  0.13896498002E+03  0.14529075740E+03  0.00000000000E+00 0.  1.
</event>
<event>
12    1  0.8271773E-002  0.1810624E+03  0.7818608E-02  0.1167307E+00
         21   -1    0    0  503  502  0.00000000000E+00  0.00000000000E+00  0.30542426118E+03  0.30542426118E+03  0.00000000000E+00 0.  1.
         21   -1    0    0  501  503 -0.00000000000E+00 -0.00000000000E+00 -0.12023511694E+03  0.12023511694E+03  0.00000000000E+00 0.  1.
          6    2    1    2  501    0 -0.21247860660E+02 -0.48422577826E+02  0.19977270224E+02  0.18216110475E+03  0.17316858587E+03 0.  0.
         24    2    3    3    0    0 -0.66862532135E+02 -0.53905104559E+02  0.42727912223E+02  0.13067869936E+03  0.88740574045E+02 0.  0.
         -6    2    1    2    0  502  0.21247860660E+02  0.48422577826E+02  0.16521187401E+03  0.24349827338E+03  0.17088074262E+03 0.  0.
        -24    2    5    5    0    0  0.29792085907E+02 -0.88211350615E+01  0.21185562973E+02  0.88206564903E+02  0.79788402710E+02 0.  0.
          5    1    3    3  501    0  0.45614671475E+02  0.54825267326E+01 -0.22750641999E+02  0.51482405388E+02  0.47000000000E+01 0. -1.
        -11    1    4    4    0    0 -0.15895701639E+02  0.61078592729E+01 -0.22651086596E+02  0.28338154483E+02  0.00000000000E+00 0.  1.
         12    1    4    4    0    0 -0.50966830496E+02 -0.60012963832E+02  0.65378998820E+02  0.10234054488E+03  0.00000000000E+00 0. -1.
         -5    1    5    5    0  502 -0.85442252469E+01  0.57243712888E+02  0.14402631104E+03  0.15529170848E+03  0.47000000000E+01 0.  1.
         13    1    6    6    0    0  0.30633228389E+02 -0.88933291529E+01  0.50038728489E+02  0.59341050999E+02  0.00000000000E+00 0. -1.
        -14    1    6    6    0    0 -0.84114248156E+00  0.72194091420E-01 -0.28853165516E+02  0.28865513904E+02  0.00000000000E+00 0.  1.
</event>
<event>
12    1  0.8271773E-002  0.2657525E+03  0.7818608E-02  0.1103951E+00
         21   -1    0    0  501  502  0.00000000000E+00  0.00000000000E+00  0.27650630140E+03  0.27650630140E+03  0.00000000000E+00 0.  1.
         21   -1    0    0  502  503 -0.00000000000E+00 -0.00000000000E+00 -0.30659576178E+03  0.30659576178E+03  0.00000000000E+00 0. -1.
         -6    2    1    2    0  503  0.44407840346E+02 -0.19766989129E+03 -0.13583189735E+03  0.29845387162E+03  0.17198536840E+03 0.  0.
        -24    2    3    3    0    0  0.40491696708E+01 -0.91437047261E+02 -0.13867830602E+03  0.18468027411E+03  0.80610183587E+02 0.  0.
          6    2    1    2  501    0 -0.44407840346E+02  0.19766989129E+03  0.10574243698E+03  0.28464819156E+03  0.16969881488E+03 0.  0.
         24    2    5    5    0    0 -0.78348318998E+02  0.19404973965E+03  0.11037072387E+03  0.24988366037E+03  0.80413845113E+02 0.  0.
          5    1    5    5  501    0  0.33940478653E+02  0.36201516400E+01 -0.46282868922E+01  0.34764531187E+02  0.47000000000E+01 0. -1.
        -13    1    6    6    0    0 -0.50124760690E+02  0.15382463673E+03  0.11787850824E+03  0.20017455683E+03  0.00000000000E+00 0.  1.
         14    1    6    6    0    0 -0.28223558308E+02  0.40225102918E+02 -0.75077843681E+01  0.49709103537E+02  0.00000000000E+00 0. -1.
         -5    1    3    3    0  503  0.40358670675E+02 -0.10623284403E+03  0.28464086689E+01  0.11377359751E+03  0.47000000000E+01 0.  1.
         11    1    4    4    0    0  0.30124010222E+02 -0.81480462150E+02 -0.73556547698E+02  0.11382920281E+03  0.00000000000E+00 0. -1.
        -12    1    4    4    0    0 -0.26074840551E+02 -0.99565851107E+01 -0.65121758322E+02  0.70851071296E+02  0.00000000000E+00 0.  1.
</event>
<event>
12    1  0.8271773E-002  0.3379700E+03  0.7818608E-02  0.1067727E+00
         21   -1    0    0  503  502  0.00000000000E+00  0.00000000000E+00  0.62524110879E+03  0.62524110879E+03  0.00000000000E+00 0. -1.
         21   -1    0    0  501  503 -0.00000000000E+00 -0.00000000000E+00 -0.36809363210E+03  0.36809363210E+03  0.00000000000E+00 0.  1.
          6    2    1    2  501    0  0.26307147420E+03  0.12265441681E+03 -0.22416304725E+03  0.40555243643E+03  0.17312712220E+03 0.  0.
         24    2    3    3    0    0  0.14251224436E+03  0.12840697218E+03 -0.94262654994E+02  0.22817199303E+03  0.79868141200E+02 0.  0.
         -6    2    1    2    0  502 -0.26307147420E+03 -0.12265441681E+03  0.48131052394E+03  0.58778230446E+03  0.17198113408E+03 0.  0.
        -24    2    5    5    0    0 -0.22009104555E+03 -0.89189743923E+02  0.26987213231E+03  0.36938934433E+03  0.84986123321E+02 0.  0.
          5    1    3    3  501    0  0.12055922984E+03 -0.57525553723E+01 -0.12990039225E+03  0.17738044340E+03  0.47000000000E+01 0. -1.
        -13    1    4    4    0    0  0.10010331184E+03  0.63681529811E+02 -0.93053236736E+02  0.15078101720E+03  0.00000000000E+00 0.  1.
         14    1    4    4    0    0  0.42408932523E+02  0.64725442369E+02 -0.12094182581E+01  0.77390975832E+02  0.00000000000E+00 0. -1.
         -5    1    5    5    0  502 -0.42980428654E+02 -0.33464672885E+02  0.21143839163E+03  0.21839296013E+03  0.47000000000E+01 0.  1.
         11    1    6    6    0    0 -0.11431976211E+02 -0.32860451331E+02  0.51464111413E+02  0.62121285444E+02  0.00000000000E+00 0. -1.
        -12    1    6    6    0    0 -0.20865906933E+03 -0.56329292592E+02  0.21840802090E+03  0.30726805889E+03  0.00000000000E+00 0.  1.
</event>
<event>
12    1  0.8271773E-002  0.3697342E+03  0.7818608E-02  0.1055200E+00
         21   -1    0    0  501  502  0.00000000000E+00  0.00000000000E+00  0.51207002700E+03  0.51207002700E+03  0.00000000000E+00 0.  1.
         21   -1    0    0  502  503 -0.00000000000E+00 -0.00000000000E+00 -0.27929042314E+03  0.27929042314E+03  0.00000000000E+00 0.  1.
         -6    2    1    2    0  503  0.83679750357E+02  0.31621804638E+03  0.20855449195E+03  0.42083343298E+03  0.16312464169E+03 0.  0.
        -24    2    3    3    0    0 -0.66186605328E+01  0.11274676906E+03  0.48945616602E+02  0.14687824177E+03  0.80136782561E+02 0.  0.
          6    2    1    2  501    0 -0.83679750357E+02 -0.31621804638E+03  0.24225111910E+02  0.37052701717E+03  0.17235794421E+03 0.  0.
         24    2    5    5    0    0 -0.10404510927E+03 -0.32246646943E+03  0.22173803526E+02  0.34861609523E+03  0.78939822772E+02 0.  0.
          5    1    5    5  501    0  0.20365358913E+02  0.62484230534E+01  0.20513083834E+01  0.21910921943E+02  0.47000000000E+01 0. -1.
        -11    1    6    6    0    0 -0.80420749912E+02 -0.12252861758E+03  0.75755585845E+01  0.14675880972E+03  0.00000000000E+00 0.  1.
         12    1    6    6    0    0 -0.23624359358E+02 -0.19993785185E+03  0.14598244942E+02  0.20185728550E+03  0.00000000000E+00 0. -1.
         -5    1    3    3    0  503  0.90298410890E+02  0.20347127732E+03  0.15960887534E+03  0.27395519121E+03  0.47000000000E+01 0.  1.
         11    1    4    4    0    0 -0.11559310019E+02 -0.86653806791E+01  0.14748636118E+02  0.20645307887E+02  0.00000000000E+00 0. -1.
        -12    1    4    4    0    0  0.49406494859E+01  0.12141214974E+03  0.34196980484E+02  0.12623293388E+03  0.00000000000E+00 0.  1.
</event>
<event>
12    1  0.8271773E-002  0.1988175E+03  0.7818608E-02  0.1151106E+00
         21   -1    0    0  503  502  0.00000000000E+00  0.00000000000E+00  0.11970290099E+04  0.11970290099E+04  0.00000000000E+00 0. -1.
         21   -1    0    0  501  503 -0.00000000000E+00 -0.00000000000E+00 -0.53080443254E+03  0.53080443254E+03  0.00000000000E+00 0.  1.
          6    2    1    2  501    0  0.80585807412E+02 -0.51436406610E+02 -0.50364909464E+03  0.54147096625E+03  0.17432332169E+03 0.  0.
         24    2    3    3    0    0  0.90271347273E+02 -0.42563339159E+02 -0.50955274928E+03  0.52632223210E+03  0.86084456959E+02 0.  0.
         -6    2    1    2    0  502 -0.80585807412E+02  0.51436406610E+02  0.11698736720E+04  0.11863624762E+04  0.17237093776E+03 0.  0.
        -24    2    5    5    0    0  0.21104039971E+02  0.30433990210E+02  0.72389734214E+03  0.72843354791E+03  0.72225089153E+02 0.  0.
          5    1    3    3  501    0 -0.96855398612E+01 -0.88730674507E+01  0.59036546372E+01  0.15148734154E+02  0.47000000000E+01 0. -1.
        -13    1    4    4    0    0  0.20234767372E+02 -0.55460964497E+02 -0.19146822540E+03  0.20036328439E+03  0.00000000000E+00 0.  1.
         14    1    4    4    0    0  0.70036579900E+02  0.12897625338E+02 -0.31808452388E+03  0.32595894771E+03  0.00000000000E+00 0. -1.
         -5    1    5    5    0  502 -0.10168984738E+03  0.21002416400E+02  0.44597632989E+03  0.45792892831E+03  0.47000000000E+01 0.  1.
         13    1    6    6    0    0 -0.44833361869E+01 -0.18781702349E+02  0.34018285742E+03  0.34073043470E+03  0.00000000000E+00 0. -1.
        -14    1    6    6    0    0  0.25587376157E+02  0.49215692558E+02  0.38371448472E+03  0.38770311322E+03  0.00000000000E+00 0.  1.
</event>
<event>
12    1  0.8271773E-002  0.2010393E+03  0.7818608E-02  0.1149120E+00
         21   -1    0    0  501  502  0.00000000000E+00  0.00000000000E+00  0.94477827430E+03  0.94477827430E+03  0.00000000000E+00 0.  1.
         21   -1    0    0  502  503 -0.00000000000E+00 -0.00000000000E+00 -0.16248469906E+03  0.16248469906E+03  0.00000000000E+00 0.  1.
         -6    2    1    2    0  503  0.94099270412E+02  0.41594788420E+02 -0.84866964737E+02  0.21710331481E+03  0.17130863516E+03 0.  0.
        -24    2    3    3    0    0  0.41366688349E+02  0.59935057276E+02  0.94030931354E+01  0.10744008267E+03  0.78431748721E+02 0.  0.
          6    2    1    2  501    0 -0.94099270412E+02 -0.41594788420E+02  0.86716053997E+03  0.89015965855E+03  0.17271947346E+03 0.  0.
         24    2    5    5    0    0 -0.28815189827E+01  0.29880444610E+02  0.34097753350E+03  0.35134611621E+03  0.79229230097E+02 0.  0.
          5    1    5    5  501    0 -0.91217751429E+02 -0.71475233030E+02  0.52618300647E+03  0.53881354234E+03  0.47000000000E+01 0. -1.
        -11    1    6    6    0    0 -0.21474471583E+02  0.28734999940E+02  0.32449779643E+03  0.32647461316E+03  0.00000000000E+00 0.  1.
         12    1    6    6    0    0  0.18592952601E+02  0.11454446695E+01  0.16479737069E+02  0.24871503046E+02  0.00000000000E+00 0. -1.
         -5    1    3    3    0  503  0.52732582063E+02 -0.18340268855E+02 -0.94270057873E+02  0.10966323214E+03  0.47000000000E+01 0.  1.
         13    1    4    4    0    0 -0.22490909155E+02  0.18839880394E+02  0.11398973518E+02  0.31475684030E+02  0.00000000000E+00 0. -1.
        -14    1    4    4    0    0  0.63857597503E+02  0.41095176881E+02 -0.19958803828E+01  0.75964398637E+02  0.00000000000E+00 0.  1.
</event>
<event>
12    1  0.8271773E-002  0.1879969E+03  0.7818608E-02  0.1160514E+00
         21   -1    0    0  501  502  0.00000000000E+00  0.00000000000E+00  0.39478461597E+03  0.39478461597E+03  0.00000000000E+00 0.  1.
         21   -1    0    0  502  503 -0.00000000000E+00 -0.00000000000E+00 -0.15533090237E+03  0.15533090237E+03  0.00000000000E+00 0. -1.
         -6    2    1    2    0  503  0.66706640089E+02  0.31870333440E+02 -0.59774959315E+02  0.19727112751E+03  0.17285068123E+03 0.  0.
        -24    2    3    3    0    0 -0.10711218047E+02 -0.30818853764E+02 -0.29433647220E+02  0.93030328539E+02  0.81998600598E+02 0.  0.
          6    2    1    2  501    0 -0.66706640089E+02 -0.31870333440E+02  0.29922867292E+03  0.35284439083E+03  0.17174362129E+03 0.  0.
         24    2    5    5    0    0 -0.91309164289E+02 -0.68565417308E+02  0.19460273938E+03  0.23917606038E+03  0.79349743232E+02 0.  0.
          5    1    5    5  501    0  0.24602524200E+02  0.36695083868E+02  0.10462593354E+03  0.11366833044E+03  0.47000000000E+01 0. -1.
        -11    1    6    6    0    0 -0.33274121589E+02  0.46019602787E+01  0.10308744397E+03  0.10842216706E+03  0.00000000000E+00 0.  1.
         12    1    6    6    0    0 -0.58035042701E+02 -0.73167377587E+02  0.91515295410E+02  0.13075389332E+03  0.00000000000E+00 0. -1.
         -5    1    3    3    0  503  0.77417858137E+02  0.62689187205E+02 -0.30341312095E+02  0.10424079897E+03  0.47000000000E+01 0.  1.
         11    1    4    4    0    0 -0.54642707745E+01  0.23650496290E+02 -0.29636711272E+02  0.38308470146E+02  0.00000000000E+00 0. -1.
        -12    1    4    4    0    0 -0.52469472726E+01 -0.54469350054E+02  0.20306405172E+00  0.54721858393E+02  0.00000000000E+00 0.  1.
</event>
<event>
12    1  0.8271773E-002  0.1845913E+03  0.7818608E-02  0.1163907E+00
         21   -1    0    0  501  502  0.00000000000E+00  0.00000000000E+00  0.25946158949E+03  0.25946158949E+03  0.00000000000E+00 0.  1.
         21   -1    0    0  502  503 -0.00000000000E+00 -0.00000000000E+00 -0.21368836290E+03  0.21368836290E+03  0.00000000000E+00 0. -1.
         -6    2    1    2    0  503  0.65400864016E+02 -0.14056178770E+02  0.17110503784E+03  0.25169600858E+03  0.17204388273E+03 0.  0.
        -24    2    3    3    0    0 -0.29794182944E+02  0.63445121914E+00  0.53833186708E+02  0.99864889753E+02  0.78656775605E+02 0.  0.
          6    2    1    2  501    0 -0.65400864016E+02  0.14056178770E+02 -0.12533181125E+03  0.22145394381E+03  0.16987918396E+03 0.  0.
         24    2    5    5    0    0 -0.39593265614E+02  0.68189934645E+02 -0.11440976616E+03  0.16031576646E+03  0.79962844586E+02 0.  0.
          5    1    5    5  501    0 -0.25807598402E+02 -0.54133755875E+02 -0.10922045086E+02  0.61138177347E+02  0.47000000000E+01 0. -1.
        -13    1    6    6    0    0 -0.32371932841E+01  0.59807055908E+02 -0.27840839708E+02  0.66049040207E+02  0.00000000000E+00 0.  1.
         14    1    6    6    0    0 -0.36356072330E+02  0.83828787370E+01 -0.86568926457E+02  0.94266726256E+02  0.00000000000E+00 0. -1.
         -5    1    3    3    0  503  0.95195046960E+02 -0.14690629989E+02  0.11727185113E+03  0.15183111882E+03  0.47000000000E+01 0.  1.
         11    1    4    4    0    0  0.20675091787E+02 -0.17042189718E+01 -0.59599769100E+01  0.21584371834E+02  0.00000000000E+00 0. -1.
        -12    1    4    4    0    0 -0.50469274731E+02  0.23386701909E+01  0.59793163618E+02  0.78280517919E+02  0.00000000000E+00 0.  1.
</event>
<event>
12    1  0.8271773E-002  0.2043072E+03  0.7818608E-02  0.1146235E+00
         21   -1    0    0  501  502  0.00000000000E+00  0.00000000000E+00  0.78713224417E+02  0.78713224417E+02  0.00000000000E+00 0.  1.
         21   -1    0    0  502  503 -0.00000000000E+00 -0.00000000000E+00 -0.52950624639E+03  0.52950624639E+03  0.00000000000E+00 0.  1.
         -6    2    1    2    0  503 -0.71552689120E+02  0.81869106663E+02 -0.23183982314E+03  0.30901638543E+03  0.17297134133E+03 0.  0.
        -24    2    3    3    0    0  0.18918726922E+01  0.56558691219E+01 -0.16606521273E+03  0.18431293475E+03  0.79737287378E+02 0.  0.
          6    2    1    2  501    0  0.71552689120E+02 -0.81869106663E+02 -0.21895319883E+03  0.29920308538E+03  0.17250984052E+03 0.  0.
         24    2    5    5    0    0  0.10082959860E+03 -0.29736360557E+02 -0.19393516040E+03  0.23421883427E+03  0.78719481663E+02 0.  0.
          5    1    5    5  501    0 -0.29276909482E+02 -0.52132746106E+02 -0.25018038426E+02  0.64984251108E+02  0.47000000000E+01 0. -1.
        -11    1    6    6    0    0  0.26869187440E+02 -0.40242389789E+02 -0.38757921523E+02  0.61996609991E+02  0.00000000000E+00 0.  1.
         12    1    6    6    0    0  0.73960411161E+02  0.10506029232E+02 -0.15517723888E+03  0.17222222428E+03  0.00000000000E+00 0. -1.
         -5    1    3    3    0  503 -0.73444561812E+02  0.76213237541E+02 -0.65774610413E+02  0.12470345068E+03  0.47000000000E+01 0.  1.
         11    1    4    4    0    0  0.27834504398E+02  0.27290119491E+02 -0.49811681689E+02  0.63251196744E+02  0.00000000000E+00 0. -1.
        -12    1    4    4    0    0 -0.25942631706E+02 -0.21634250369E+02 -0.11625353104E+03  0.12106173800E+03  0.00000000000E+00 0.  1.
</event>
<event>
12    1  0.8271773E-002  0.1737886E+03  0.7818608E-02  0.1174883E+00
         21   -1    0    0  503  502  0.00000000000E+00  0.00000000000E+00  0.26170941924E+03  0.26170941924E+03  0.00000000000E+00 0.  1.
         21   -1    0    0  501  503 -0.00000000000E+00 -0.00000000000E+00 -0.11309853247E+03  0.11309853247E+03  0.00000000000E+00 0.  1.
          6    2    1    2  501    0  0.72583550797E+01 -0.88036423905E+01  0.78849572437E+02  0.18754048476E+03  0.16977629549E+03 0.  0.
         24    2    3    3    0    0  0.50640767593E+02  0.32827397198E+02  0.14107637451E+02  0.99060061395E+02  0.77277066326E+02 0.  0.
         -6    2    1    2    0  502 -0.72583550797E+01  0.88036423905E+01  0.69761314332E+02  0.18726746694E+03  0.17341359624E+03 0.  0.
        -24    2    5    5    0    0  0.29207129994E+02  0.10937363437E+02  0.10492308807E+03  0.13634866197E+03  0.81298344697E+02 0.  0.
          5    1    3    3  501    0 -0.43382412514E+02 -0.41631039589E+02  0.64741934986E+02  0.88480423363E+02  0.47000000000E+01 0. -1.
        -13    1    4    4    0    0 -0.77565680999E+01  0.37106321577E+02  0.14271924088E+02  0.40505941130E+02  0.00000000000E+00 0.  1.
         14    1    4    4    0    0  0.58397335693E+02 -0.42789243787E+01 -0.16428663667E+00  0.58554120265E+02  0.00000000000E+00 0. -1.
         -5    1    5    5    0  502 -0.36465485074E+02 -0.21337210469E+01 -0.35161773739E+02  0.50918804971E+02  0.47000000000E+01 0.  1.
         11    1    6    6    0    0  0.15047352058E+02 -0.61753301303E+01  0.11189331568E+03  0.11306932210E+03  0.00000000000E+00 0. -1.
        -12    1    6    6    0    0  0.14159777937E+02  0.17112693568E+02 -0.69702276048E+01  0.23279339879E+02  0.00000000000E+00 0.  1.
</event>
<event>
12    1  0.8271773E-002  0.1803498E+03  0.7818608E-02  0.1169778E+00
         21   -1    0    0  501  502  0.00000000000E+00  0.00000000000E+00  0.36098787673E+03  0.36098787673E+03  0.00000000000E+00 0.  1.
         21   -1    0    0  502  503 -0.00000000000E+00 -0.00000000000E+00 -0.68365764975E+03  0.68365764975E+03  0.00000000000E+00 0. -1.
         -6    2    1    2    0  503  0.58964873977E+02 -0.27773412989E+02 -0.64934528448E+03  0.67149284502E+03  0.15813008442E+03 0.  0.
        -24    2    3    3    0    0  0.45999549522E+02 -0.73239820593E+02 -0.39302486427E+03  0.41080617164E+03  0.82541727919E+02 0.  0.
          6    2    1    2  501    0 -0.58964873977E+02  0.27773412989E+02  0.32667551146E+03  0.37315268146E+03  0.16816008761E+03 0.  0.
         24    2    5    5    0    0 -0.55381487936E+02 -0.34795802824E+02  0.26960783399E+03  0.28826123764E+03  0.78283458515E+02 0.  0.
          5    1    5    5  501    0 -0.35833860411E+01  0.62569215813E+02  0.57067677465E+02  0.84891443822E+02  0.47000000000E+01 0. -1.
        -13    1    6    6    0    0  0.88322247239E+01  0.37361906669E+01  0.12749311779E+01  0.96743353147E+01  0.00000000000E+00 0.  1.
         14    1    6    6    0    0 -0.64213712660E+02 -0.38531993491E+02  0.26833290281E+03  0.27858690233E+03  0.00000000000E+00 0. -1.
         -5    1    3    3    0  503  0.12965324455E+02  0.45466407604E+02 -0.25632042021E+03  0.26068667338E+03  0.47000000000E+01 0.  1.
         13    1    4    4    0    0  0.92466161994E+01 -0.52015475504E+02 -0.33373969734E+03  0.33789539088E+03  0.00000000000E+00 0. -1.
        -14    1    4    4    0    0  0.36752933323E+02 -0.21224345088E+02 -0.59285166935E+02  0.72910780758E+02  0.00000000000E+00 0.  1.
</event>
<event>
12    1  0.8271773E-002  0.2735570E+03  0.7818608E-02  0.1099301E+00
         21   -1    0    0  501  502  0.00000000000E+00  0.00000000000E+00  0.12942183981E+04  0.12942183981E+04  0.00000000000E+00 0.  1.
         21   -1    0    0  502  503 -0.00000000000E+00 -0.00000000000E+00 -0.57910824849E+02  0.57910824849E+02  0.00000000000E+00 0.  1.
         -6    2    1    2    0  503  0.35307361627E+02 -0.20845879580E+03  0.58418812751E+03  0.64506525753E+03  0.17358496139E+03 0.  0.
        -24    2    3    3    0    0 -0.17907053386E+02 -0.23162847824E+01  0.99847959893E+02  0.11597736618E+03  0.56170335892E+02 0.  0.
          6    2    1    2  501    0 -0.35307361627E+02  0.20845879580E+03  0.65211944572E+03  0.70706396540E+03  0.17314156157E+03 0.  0.
         24    2    5    5    0    0  0.38914535801E+02  0.15744337996E+03  0.46863406610E+03  0.50261241308E+03  0.81844919692E+02 0.  0.
          5    1    5    5  501    0 -0.74221897428E+02  0.51015415844E+02  0.18348537962E+03  0.20445155232E+03  0.47000000000E+01 0. -1.
        -11    1    6    6    0    0  0.84355944469E+01  0.16452640316E+02  0.16960494579E+03  0.17060974844E+03  0.00000000000E+00 0.  1.
         12    1    6    6    0    0  0.30478941354E+02  0.14099073964E+03  0.29902912031E+03  0.33200266464E+03  0.00000000000E+00 0. -1.
         -5    1    3    3    0  503  0.53214415012E+02 -0.20614251102E+03  0.48434016762E+03  0.52908789136E+03  0.47000000000E+01 0.  1.
         13    1    4    4    0    0 -0.24367917697E+02  0.14419447916E+02  0.92245758315E+02  0.96493501429E+02  0.00000000000E+00 0. -1.
        -14    1    4    4    0    0  0.64608643116E+01 -0.16735732699E+02  0.76022015780E+01  0.19483864746E+02  0.00000000000E+00 0.  1.
</event>
<event>
12    1  0.8271773E-002  0.1844136E+03  0.7818608E-02  0.1163965E+00
         21   -1    0    0  501  502  0.00000000000E+00  0.00000000000E+00  0.85770933183E+03  0.85770933183E+03  0.00000000000E+00 0. -1.
         21   -1    0    0  502  503 -0.00000000000E+00 -0.00000000000E+00 -0.59977851334E+02  0.59977851334E+02  0.00000000000E+00 0. -1.
         -6    2    1    2    0  503 -0.29486206827E+02 -0.51920172287E+02  0.12845549535E+03  0.22346911153E+03  0.17283659577E+03 0.  0.
        -24    2    3    3    0    0 -0.69744201804E+02 -0.15634118585E+01  0.10777357130E+03  0.15559907791E+03  0.87916053334E+02 0.  0.
          6    2    1    2  501    0  0.29486206827E+02  0.51920172287E+02  0.66927598515E+03  0.69421807164E+03  0.17447993011E+03 0.  0.
         24    2    5    5    0    0  0.43201366240E+02 -0.21650765674E+02  0.29121821871E+03  0.30879550708E+03  0.90617330474E+02 0.  0.
          5    1    5    5  501    0 -0.13715159413E+02  0.73570937962E+02  0.37805776643E+03  0.38542256456E+03  0.47000000000E+01 0. -1.
        -11    1    6    6    0    0  0.13228932613E+02 -0.55578493624E+02  0.17398947231E+03  0.18312921691E+03  0.00000000000E+00 0.  1.
         12    1    6    6    0    0  0.29972433627E+02  0.33927727949E+02  0.11722874640E+03  0.12566629016E+03  0.00000000000E+00 0. -1.
         -5    1    3    3    0  503  0.40257994977E+02 -0.50356760429E+02  0.20681924045E+02  0.67870033613E+02  0.47000000000E+01 0.  1.
         13    1    4    4    0    0 -0.17457689646E+02 -0.14278995451E+02  0.98433264675E+02  0.10098399989E+03  0.00000000000E+00 0. -1.
        -14    1    4    4    0    0 -0.52286512158E+02  0.12715583592E+02  0.93403066290E+01  0.54615078025E+02  0.00000000000E+00 0.  1.
</event>
<event>
12    1  0.8271773E-002  0.2137970E+03  0.7818608E-02  0.1142174E+00
         21   -1    0    0  501  502  0.00000000000E+00  0.00000000000E+00  0.48578247428E+03  0.48578247428E+03  0.00000000000E+00 0. -1.
         21   -1    0    0  502  503 -0.00000000000E+00 -0.00000000000E+00 -0.29371494096E+03  0.29371494096E+03  0.00000000000E+00 0. -1.
         -6    2    1    2    0  503  0.64957581436E+02  0.68056985038E+02 -0.23004223733E+03  0.31405191353E+03  0.19198419945E+03 0.  0.
        -24    2    3    3    0    0  0.68639890123E+02 -0.49181122493E+01 -0.21497449406E+03  0.23929864532E+03  0.79461853818E+02 0.  0.
          6    2    1    2  501    0 -0.64957581436E+02 -0.68056985038E+02  0.42210977065E+03  0.46544550171E+03  0.17208026031E+03 0.  0.
         24    2    5    5    0    0 -0.64061609260E+02  0.21867411896E+02  0.20796980623E+03  0.23314135992E+03  0.80755061263E+02 0.  0.
          5    1    5    5  501    0 -0.89597217548E+00 -0.89924396934E+02  0.21413996442E+03  0.23230414179E+03  0.47000000000E+01 0. -1.
        -13    1    6    6    0    0 -0.31772683579E+02  0.27967792032E+02  0.29312229837E+02  0.51486965641E+02  0.00000000000E+00 0.  1.
         14    1    6    6    0    0 -0.32288925681E+02 -0.61003801361E+01  0.17865757639E+03  0.18165439428E+03  0.00000000000E+00 0. -1.
         -5    1    3    3    0  503 -0.36823086875E+01  0.72975097288E+02 -0.15067743272E+02  0.74753268214E+02  0.47000000000E+01 0.  1.
         13    1    4    4    0    0  0.28818121649E+02  0.36294879362E+02 -0.76634490476E+02  0.89558067943E+02  0.00000000000E+00 0. -1.
        -14    1    4    4    0    0  0.39821768474E+02 -0.41212991611E+02 -0.13834000358E+03  0.14974057738E+03  0.00000000000E+00 0.  1.
</event>
<event>
12    1  0.8271773E-002  0.1726080E+03  0.7818608E-02  0.1175884E+00
         21   -1    0    0  501  502  0.00000000000E+00  0.00000000000E+00  0.17214744860E+03  0.17214744860E+03  0.00000000000E+00 0. -1.
         21   -1    0    0  502  503 -0.00000000000E+00 -0.00000000000E+00 -0.17498432074E+03  0.17498432074E+03  0.00000000000E+00 0. -1.
         -6    2    1    2    0  503 -0.20480339799E+01  0.17140129529E+01 -0.29985543469E+02  0.17519319327E+03  0.17258733982E+03 0.  0.
        -24    2    3    3    0    0 -0.58960417834E+02 -0.25272486584E+02 -0.43068046974E+02  0.11069100345E+03  0.79262930340E+02 0.  0.
          6    2    1    2  501    0  0.20480339799E+01 -0.17140129529E+01  0.27148671329E+02  0.17193857607E+03  0.16976068833E+03 0.  0.
         24    2    5    5    0    0  0.42381638972E+02  0.24543862207E+02  0.61613114781E+02  0.11255706748E+03  0.80463115975E+02 0.  0.
          5    1    5    5  501    0 -0.40333604992E+02 -0.26257875160E+02 -0.34464443452E+02  0.59381508587E+02  0.47000000000E+01 0. -1.
        -13    1    6    6    0    0  0.51893694232E+02  0.13557759922E+02  0.47261321728E+01  0.53843334597E+02  0.00000000000E+00 0.  1.
         14    1    6    6    0    0 -0.95120552601E+01  0.10986102285E+02  0.56886982608E+02  0.58713732882E+02  0.00000000000E+00 0. -1.
         -5    1    3    3    0  503  0.56912383854E+02  0.26986499537E+02  0.13082503505E+02  0.64502189816E+02  0.47000000000E+01 0.  1.
         11    1    4    4    0    0 -0.60401051178E+02 -0.49168095193E+02 -0.35427759095E+02  0.85562343837E+02  0.00000000000E+00 0. -1.
        -12    1    4    4    0    0  0.14406333449E+01  0.23895608609E+02 -0.76402878789E+01  0.25128659616E+02  0.00000000000E+00 0.  1.
</event>
<event>
12    1  0.8271773E-002  0.1755679E+03  0.7818608E-02  0.1173623E+00
         21   -1    0    0  501  502  0.00000000000E+00  0.00000000000E+00  0.14240026426E+03  0.14240026426E+03  0.00000000000E+00 0.  1.
         21   -1    0    0  502  503 -0.00000000000E+00 -0.00000000000E+00 -0.48165701506E+03  0.48165701506E+03  0.00000000000E+00 0.  1.
         -6    2    1    2    0  503  0.24922012339E+02 -0.25786675776E+02 -0.40296277442E+03  0.43728862973E+03  0.16600086980E+03 0.  0.
        -24    2    3    3    0    0  0.26944720019E+02 -0.57179929109E+02 -0.20438102643E+03  0.23617565567E+03  0.10005885335E+03 0.  0.
          6    2    1    2  501    0 -0.24922012339E+02  0.25786675776E+02  0.63706023619E+02  0.18676864959E+03  0.17186626102E+03 0.  0.
         24    2    5    5    0    0 -0.73074252347E+02 -0.92788795244E+01  0.16894955965E+02  0.11086346240E+03  0.81113030999E+02 0.  0.
          5    1    5    5  501    0  0.48152240008E+02  0.35065555301E+02  0.46811067654E+02  0.75905187183E+02  0.47000000000E+01 0. -1.
        -13    1    6    6    0    0 -0.36415469169E+01  0.20971763679E+02 -0.17620878312E+02  0.27632790092E+02  0.00000000000E+00 0.  1.
         14    1    6    6    0    0 -0.69432705430E+02 -0.30250643204E+02  0.34515834277E+02  0.83230672311E+02  0.00000000000E+00 0. -1.
         -5    1    3    3    0  503 -0.20227076800E+01  0.31393253333E+02 -0.19858174799E+03  0.20111297406E+03  0.47000000000E+01 0.  1.
         11    1    4    4    0    0 -0.12478346074E+02  0.23583223334E+02 -0.65807848874E+02  0.71010918295E+02  0.00000000000E+00 0. -1.
        -12    1    4    4    0    0  0.39423066093E+02 -0.80763152443E+02 -0.13857317756E+03  0.16516473737E+03  0.00000000000E+00 0.  1.
</event>
<event>
12    1  0.8271773E-002  0.1839218E+03  0.7818608E-02  0.1165014E+00
         21   -1    0    0  501  502  0.00000000000E+00  0.00000000000E+00  0.17284660570E+04  0.17284660570E+04  0.00000000000E+00 0.  1.
         21   -1    0    0  502  503 -0.00000000000E+00 -0.00000000000E+00 -0.34093151964E+02  0.34093151964E+02  0.00000000000E+00 0.  1.
         -6    2    1    2    0  503  0.43360839172E+02 -0.25993452487E+02  0.25845291883E+03  0.31490820745E+03  0.17266570570E+03 0.  0.
        -24    2    3    3    0    0  0.85022446661E+02 -0.28083400835E+02  0.24096521233E+03  0.26943329897E+03  0.80700527897E+02 0.  0.
          6    2    1    2  501    0 -0.43360839172E+02  0.25993452487E+02  0.14359199862E+04  0.14476510015E+04  0.17683719473E+03 0.  0.
         24    2    5    5    0    0  0.13516396927E+02  0.33538588308E+02  0.12483845071E+04  0.12514786411E+04  0.80170952980E+02 0.  0.
          5    1    5    5  501    0 -0.56877236099E+02 -0.75451358205E+01  0.18753547913E+03  0.19617236042E+03  0.47000000000E+01 0. -1.
        -13    1    6    6    0    0 -0.65423395994E+01  0.56151131520E+02  0.90625185850E+03  0.90801331643E+03  0.00000000000E+00 0.  1.
         14    1    6    6    0    0  0.20058736526E+02 -0.22612543212E+02  0.34213264859E+03  0.34346532467E+03  0.00000000000E+00 0. -1.
         -5    1    3    3    0  503 -0.41661607489E+02  0.20899483476E+01  0.17487706497E+02  0.45474908479E+02  0.47000000000E+01 0.  1.
         11    1    4    4    0    0  0.28127814737E+02 -0.58195802769E+01  0.18291640151E+03  0.18515790941E+03  0.00000000000E+00 0. -1.
        -12    1    4    4    0    0  0.56894631925E+02 -0.22263820558E+02  0.58048810817E+02  0.84275389557E+02  0.00000000000E+00 0.  1.
</event>
<event>
12    1  0.8271773E-002  0.2930155E+03  0.7818608E-02  0.1088901E+00
         21   -1    0    0  503  502  0.00000000000E+00  0.00000000000E+00  0.34745344705E+03  0.34745344705E+03  0.00000000000E+00 0.  1.
         21   -1    0    0  501  503 -0.00000000000E+00 -0.00000000000E+00 -0.10684896173E+04  0.10684896173E+04  0.00000000000E+00 0. -1.
          6    2    1    2  501    0  0.36511243368E+01  0.23842294174E+03 -0.98166157658E+03  0.10244596293E+04  0.17029166553E+03 0.  0.
         24    2    3    3    0    0 -0.26531325644E+02  0.49941163681E+02 -0.25083613986E+03  0.26910258137E+03  0.79368754384E+02 0.  0.
         -6    2    1    2    0  502 -0.36511243368E+01 -0.23842294174E+03  0.26062540635E+03  0.39148343498E+03  0.16874491865E+03 0.  0.
        -24    2    5    5    0    0  0.30854944425E+02 -0.17846651333E+03  0.25332596533E+03  0.32176389734E+03  0.80966887983E+02 0.  0.
          5    1    3    3  501    0  0.30182449981E+02  0.18848177806E+03 -0.73082543672E+03  0.75535704796E+03  0.47000000000E+01 0. -1.
        -11    1    4    4    0    0 -0.33861287455E+02  0.60577074564E+01 -0.19347554338E+03  0.19650971603E+03  0.00000000000E+00 0.  1.
         12    1    4    4    0    0  0.73299618107E+01  0.43883456224E+02 -0.57360596473E+02  0.72592865338E+02  0.00000000000E+00 0. -1.
         -5    1    5    5    0  502 -0.34506068762E+02 -0.59956428413E+02  0.72994410262E+01  0.69719537640E+02  0.47000000000E+01 0.  1.
         11    1    6    6    0    0 -0.18878441853E+02 -0.88611167011E+02  0.15527033576E+03  0.17976988528E+03  0.00000000000E+00 0. -1.
        -12    1    6    6    0    0  0.49733386278E+02 -0.89855346317E+02  0.98055629564E+02  0.14199401206E+03  0.00000000000E+00 0.  1.
</event>
<event>
12    1  0.8271773E-002  0.1948521E+03  0.7818608E-02  0.1154338E+00
         21   -1    0    0  503  502  0.00000000000E+00  0.00000000000E+00  0.18137387068E+04  0.18137387068E+04  0.00000000000E+00 0. -1.
         21   -1    0    0  501  503 -0.00000000000E+00 -0.00000000000E+00 -0.22180274065E+02  0.22180274065E+02  0.00000000000E+00 0. -1.
          6    2    1    2  501    0 -0.91518213347E+01  0.89686447789E+02  0.67225663013E+03  0.69992594725E+03  0.17274240972E+03 0.  0.
         24    2    3    3    0    0  0.56155763308E+02  0.66507868014E+02  0.51579877998E+03  0.52874336622E+03  0.77099932751E+02 0.  0.
         -6    2    1    2    0  502  0.91518213347E+01 -0.89686447789E+02  0.11193018026E+04  0.11359930336E+04  0.17180288815E+03 0.  0.
        -24    2    5    5    0    0 -0.49972011647E+02 -0.95646875188E+01  0.55989662659E+03  0.56777532443E+03  0.79346716149E+02 0.  0.
          5    1    3    3  501    0 -0.65307584642E+02  0.23178579775E+02  0.15645785015E+03  0.17118258102E+03  0.47000000000E+01 0. -1.
        -11    1    4    4    0    0  0.21809120783E+02  0.45483242442E+02  0.44026364130E+03  0.44314381068E+03  0.00000000000E+00 0.  1.
         12    1    4    4    0    0  0.34346642525E+02  0.21024625572E+02  0.75535138687E+02  0.85599555546E+02  0.00000000000E+00 0. -1.
         -5    1    5    5    0  502  0.59123832982E+02 -0.80121760270E+02  0.55940517598E+03  0.56821770916E+03  0.47000000000E+01 0.  1.
         11    1    6    6    0    0  0.17764883348E+02  0.10188674174E+02  0.19862434524E+03  0.19967731640E+03  0.00000000000E+00 0. -1.
        -12    1    6    6    0    0 -0.67736894995E+02 -0.19753361693E+02  0.36127228135E+03  0.36809800803E+03  0.00000000000E+00 0.  1.
</event>
<event>
12    1  0.8271773E-002  0.1979349E+03  0.7818608E-02  0.1151853E+00
         21   -1    0    0  501  502  0.00000000000E+00  0.00000000000E+00  0.11552185455E+03  0.11552185455E+03  0.00000000000E+00 0.  1.
         21   -1    0    0  502  503 -0.00000000000E+00 -0.00000000000E+00 -0.82269678654E+03  0.82269678654E+03  0.00000000000E+00 0.  1.
         -6    2    1    2    0  503  0.87967648860E+02  0.34998777515E+02 -0.71491297977E+03  0.74180777703E+03  0.17382458901E+03 0.  0.
        -24    2    3    3    0    0  0.32744071782E+02  0.81947443933E+02 -0.53056044021E+03  0.54366194793E+03  0.79286664178E+02 0.  0.
          6    2    1    2  501    0 -0.87967648860E+02 -0.34998777515E+02  0.77380477740E+01  0.19641086407E+03  0.17191314222E+03 0.  0.
         24    2    5    5    0    0 -0.46038161188E+02  0.45416873734E+02  0.18564521114E+02  0.10495562131E+03  0.80553313375E+02 0.  0.
          5    1    5    5  501    0 -0.41929487672E+02 -0.80415651248E+02 -0.10826473340E+02  0.91455242754E+02  0.47000000000E+01 0. -1.
        -11    1    6    6    0    0 -0.61937326148E+02  0.49799680791E+02 -0.85318977854E+00  0.79479359019E+02  0.00000000000E+00 0.  1.
         12    1    6    6    0    0  0.15899164961E+02 -0.43828070574E+01  0.19417710893E+02  0.25476262294E+02  0.00000000000E+00 0. -1.
         -5    1    3    3    0  503  0.55223577077E+02 -0.46948666419E+02 -0.18435253956E+03  0.19814582909E+03  0.47000000000E+01 0.  1.
         11    1    4    4    0    0 -0.17665245777E+02  0.42495034325E+02 -0.32840436181E+03  0.33161319894E+03  0.00000000000E+00 0. -1.
        -12    1    4    4    0    0  0.50409317560E+02  0.39452409608E+02 -0.20215607839E+03  0.21204874900E+03  0.00000000000E+00 0.  1.
</event>
<event>
12    1  0.8271773E-002  0.2289851E+03  0.7818608E-02  0.1127396E+00
         21   -1    0    0  503  502  0.00000000000E+00  0.00000000000E+00  0.62976766357E+02  0.62976766357E+02  0.00000000000E+00 0. -1.
         21   -1    0    0  501  503 -0.00000000000E+00 -0.00000000000E+00 -0.83209532064E+03  0.83209532064E+03  0.00000000000E+00 0. -1.
          6    2    1    2  501    0  0.12202569684E+03 -0.89227419752E+02 -0.39360575589E+03  0.45536762762E+03  0.17199529670E+03 0.  0.
         24    2    3    3    0    0 -0.41507419315E+01 -0.52331879754E+02 -0.14148255603E+03  0.17099116502E+03  0.80404045649E+02 0.  0.
         -6    2    1    2    0  502 -0.12202569684E+03  0.89227419752E+02 -0.37551279839E+03  0.43970445938E+03  0.17169259366E+03 0.  0.
        -24    2    5    5    0    0 -0.56389579991E+02  0.97561077565E+02 -0.14686480707E+03  0.20162979961E+03  0.79920935610E+02 0.  0.
          5    1    3    3  501    0  0.12617643877E+03 -0.36895539999E+02 -0.25212319986E+03  0.28437646260E+03  0.47000000000E+01 0. -1.
        -11    1    4    4    0    0  0.21155902818E+02  0.11004916816E+02 -0.17831393359E+02  0.29776484132E+02  0.00000000000E+00 0.  1.
         12    1    4    4    0    0 -0.25306644749E+02 -0.63336796569E+02 -0.12365116267E+03  0.14121468089E+03  0.00000000000E+00 0. -1.
         -5    1    5    5    0  502 -0.65636116846E+02 -0.83336578133E+01 -0.22864799133E+03  0.23807465977E+03  0.47000000000E+01 0.  1.
         13    1    6    6    0    0 -0.63227655834E+02  0.35066036834E+02 -0.57556417823E+02  0.92412686543E+02  0.00000000000E+00 0. -1.
        -14    1    6    6    0    0  0.68380758436E+01  0.62495040732E+02 -0.89308389246E+02  0.10921711307E+03  0.00000000000E+00 0.  1.
</event>
<event>
12    1  0.8271773E-002  0.2376757E+03  0.7818608E-02  0.1121604E+00
         21   -1    0    0  503  502  0.00000000000E+00  0.00000000000E+00  0.12904013068E+03  0.12904013068E+03  0.00000000000E+00 0.  1.
         21   -1    0    0  501  503 -0.00000000000E+00 -0.00000000000E+00 -0.10199408561E+04  0.10199408561E+04  0.00000000000E+00 0. -1.
          6    2    1    2  501    0  0.16018974349E+03 -0.33615706630E+02 -0.87990456398E+03  0.91105103192E+03  0.17026794002E+03 0.  0.
         24    2    3    3    0    0  0.51235749908E+02 -0.98932194523E+01 -0.63243300239E+03  0.63957728934E+03  0.79778622875E+02 0.  0.
         -6    2    1    2    0  502 -0.16018974349E+03  0.33615706630E+02 -0.10996161455E+02  0.23792995487E+03  0.17233391485E+03 0.  0.
        -24    2    5    5    0    0 -0.27550617972E+02 -0.23702765364E+01 -0.45402844950E+02  0.96176512335E+02  0.80148914115E+02 0.  0.
          5    1    3    3  501    0  0.10895399358E+03 -0.23722487177E+02 -0.24747156159E+03  0.27147374258E+03  0.47000000000E+01 0. -1.
        -13    1    4    4    0    0 -0.12903137142E+02  0.19416171454E+02 -0.11303180181E+03  0.11541086120E+03  0.00000000000E+00 0.  1.
         14    1    4    4    0    0  0.64138887050E+02 -0.29309390907E+02 -0.51940120058E+03  0.52416642814E+03  0.00000000000E+00 0. -1.
         -5    1    5    5    0  502 -0.13263912552E+03  0.35985983166E+02  0.34406683496E+02  0.14175344254E+03  0.47000000000E+01 0.  1.
         13    1    6    6    0    0  0.11363248881E+02 -0.62815109901E+01  0.17691005464E+02  0.21944304039E+02  0.00000000000E+00 0. -1.
        -14    1    6    6    0    0 -0.38913866853E+02  0.39112344537E+01 -0.63093850414E+02  0.74232208296E+02  0.00000000000E+00 0.  1.
</event>
<event>
12    1  0.8271773E-002  0.1936140E+03  0.7818608E-02  0.1155442E+00
         21   -1    0    0  501  502  0.00000000000E+00  0.00000000000E+00  0.45124967909E+03  0.45124967909E+03  0.00000000000E+00 0. -1.
         21   -1    0    0  502  503 -0.00000000000E+00 -0.00000000000E+00 -0.10911456030E+03  0.10911456030E+03  0.00000000000E+00 0. -1.
         -6    2    1    2    0  503 -0.83233408992E+02 -0.26898842580E+02  0.33473819716E+02  0.19648631848E+03  0.17272819295E+03 0.  0.
        -24    2    3    3    0    0  0.20296907797E+02 -0.27287943656E+02  0.36626339852E+02  0.92800705797E+02  0.78191341531E+02 0.  0.
          6    2    1    2  501    0  0.83233408992E+02  0.26898842580E+02  0.30866129907E+03  0.36387792091E+03  0.17170904366E+03 0.  0.
         24    2    5    5    0    0  0.84576599017E+02  0.24750056869E+02  0.99312167079E+02  0.15446070455E+03  0.78926778124E+02 0.  0.
          5    1    5    5  501    0 -0.13431900255E+01  0.21487857112E+01  0.20934913199E+03  0.20941721635E+03  0.47000000000E+01 0. -1.
        -13    1    6    6    0    0  0.52854532400E+01  0.36606321955E+02  0.41673312612E+02  0.55719151170E+02  0.00000000000E+00 0.  1.
         14    1    6    6    0    0  0.79291145777E+02 -0.11856265086E+02  0.57638854467E+02  0.98741553384E+02  0.00000000000E+00 0. -1.
         -5    1    3    3    0  503 -0.10353031679E+03  0.38910107584E+00 -0.31525201358E+01  0.10368561268E+03  0.47000000000E+01 0.  1.
         11    1    4    4    0    0 -0.10118173146E+02  0.60814826641E+01 -0.18251221726E+02  0.21736350974E+02  0.00000000000E+00 0. -1.
        -12    1    4    4    0    0  0.30415080942E+02 -0.33369426320E+02  0.54877561578E+02  0.71064354823E+02  0.00000000000E+00 0.  1.
</event>
<event>
12    1  0.8271773E-002  0.2169907E+03  0.7818608E-02  0.1136437E+00
         21   -1    0    0  503  502  0.00000000000E+00  0.00000000000E+00  0.60412733194E+03  0.60412733194E+03  0.00000000000E+00 0. -1.
         21   -1    0    0  501  503 -0.00000000000E+00 -0.00000000000E+00 -0.22800638484E+03  0.22800638484E+03  0.00000000000E+00 0. -1.
          6    2    1    2  501    0  0.11450545445E+03  0.61397799552E+02 -0.15032537010E+03  0.26272112269E+03  0.17188217628E+03 0.  0.
         24    2    3    3    0    0  0.61921884145E+02  0.14615112724E+01 -0.69209703168E+01  0.98573925346E+02  0.76370564858E+02 0.  0.
         -6    2    1    2    0  502 -0.11450545445E+03 -0.61397799552E+02  0.52644631719E+03  0.56941259409E+03  0.17379237192E+03 0.  0.
        -24    2    5    5    0    0 -0.70609683738E+02 -0.39705281124E+02  0.50015189998E+03  0.51363723736E+03  0.84315192951E+02 0.  0.
          5    1    3    3  501    0  0.52583570303E+02  0.59936288279E+02 -0.14340439978E+03  0.16414719734E+03  0.47000000000E+01 0. -1.
        -13    1    4    4    0    0 -0.70563578504E+01  0.19208982804E+02  0.13455928885E+02  0.24491615477E+02  0.00000000000E+00 0.  1.
         14    1    4    4    0    0  0.68978241995E+02 -0.17747471532E+02 -0.20376899202E+02  0.74082309869E+02  0.00000000000E+00 0. -1.
         -5    1    5    5    0  502 -0.43895770709E+02 -0.21692518427E+02  0.26294417211E+02  0.55775356730E+02  0.47000000000E+01 0.  1.
         11    1    6    6    0    0 -0.37336202356E+02 -0.64992917739E+02  0.33448776298E+03  0.34278292686E+03  0.00000000000E+00 0. -1.
        -12    1    6    6    0    0 -0.33273481382E+02  0.25287636614E+02  0.16566413700E+03  0.17085431050E+03  0.00000000000E+00 0.  1.
</event>
<event>
12    1  0.8271773E-002  0.1868105E+03  0.7818608E-02  0.1162008E+00
         21   -1    0    0  503  502  0.00000000000E+00  0.00000000000E+00  0.17887883199E+04  0.17887883199E+04  0.00000000000E+00 0.  1.
         21   -1    0    0  501  503 -0.00000000000E+00 -0.00000000000E+00 -0.19271076550E+02  0.19271076550E+02  0.00000000000E+00 0.  1.
          6    2    1    2  501    0 -0.52740051656E+00 -0.72721860932E+02  0.83333835363E+03  0.85342382787E+03  0.16908776166E+03 0.  0.
         24    2    3    3    0    0  0.43211154075E+02 -0.53829554810E+02  0.74934341466E+03  0.75674280512E+03  0.79870490149E+02 0.  0.
         -6    2    1    2    0  502  0.52740051656E+00  0.72721860932E+02  0.93617888976E+03  0.95463556862E+03  0.17207384470E+03 0.  0.
        -24    2    5    5    0    0 -0.47821006172E+02  0.51458099150E+02  0.34216626165E+03  0.35826084720E+03  0.79613437457E+02 0.  0.
          5    1    3    3  501    0 -0.43738554591E+02 -0.18892306122E+02  0.83994938969E+02  0.96681022754E+02  0.47000000000E+01 0. -1.
        -13    1    4    4    0    0 -0.22195020677E+02 -0.16216089317E+02  0.28341756394E+03  0.28474742501E+03  0.00000000000E+00 0.  1.
         14    1    4    4    0    0  0.65406174752E+02 -0.37613465493E+02  0.46592585072E+03  0.47199538011E+03  0.00000000000E+00 0. -1.
         -5    1    5    5    0  502  0.48348406689E+02  0.21263761782E+02  0.59401262811E+03  0.59637472142E+03  0.47000000000E+01 0.  1.
         13    1    6    6    0    0 -0.23888077682E+02 -0.17001590860E+02  0.15057248591E+03  0.15340067751E+03  0.00000000000E+00 0. -1.
        -14    1    6    6    0    0 -0.23932928490E+02  0.68459690011E+02  0.19159377574E+03  0.20486016969E+03  0.00000000000E+00 0.  1.
</event>
<event>
12    1  0.8271773E-002  0.2374353E+03  0.7818608E-02  0.1122590E+00
         21   -1    0    0  503  502  0.00000000000E+00  0.00000000000E+00  0.88391345236E+02  0.88391345236E+02  0.00000000000E+00 0.  1.
         21   -1    0    0  501  503 -0.00000000000E+00 -0.00000000000E+00 -0.13363504989E+04  0.13363504989E+04  0.00000000000E+00 0.  1.
          6    2    1    2  501    0 -0.16117146945E+03 -0.34540908681E+02 -0.11412617565E+04  0.11644345917E+04  0.16205000597E+03 0.  0.
         24    2    3    3    0    0 -0.17379937061E+03 -0.49269710638E+02 -0.85837583352E+03  0.88084521082E+03  0.80283798149E+02 0.  0.
         -6    2    1    2    0  502  0.16117146945E+03  0.34540908681E+02 -0.10669739716E+03  0.26030725249E+03  0.17089825687E+03 0.  0.
        -24    2    5    5    0    0  0.11184346847E+03  0.39712194359E+01 -0.13814296553E+03  0.19413572273E+03  0.77977354989E+02 0.  0.
          5    1    3    3  501    0  0.12627901166E+02  0.14728801957E+02 -0.28288592300E+03  0.28358938084E+03  0.47000000000E+01 0. -1.
        -11    1    4    4    0    0 -0.13601273967E+03 -0.71345614592E+02 -0.68846365532E+03  0.70538774214E+03  0.00000000000E+00 0.  1.
         12    1    4    4    0    0 -0.37786630938E+02  0.22075903954E+02 -0.16991217820E+03  0.17545746868E+03  0.00000000000E+00 0. -1.
         -5    1    5    5    0  502  0.49328000973E+02  0.30569689245E+02  0.31445568367E+02  0.66171529757E+02  0.47000000000E+01 0.  1.
         11    1    6    6    0    0  0.21446193953E+02 -0.99221551317E+01  0.51101418252E+01  0.24176475074E+02  0.00000000000E+00 0. -1.
        -12    1    6    6    0    0  0.90397274521E+02  0.13893374568E+02 -0.14325310735E+03  0.16995924765E+03  0.00000000000E+00 0.  1.
</event>
<event>
12    1  0.8271773E-002  0.2092391E+03  0.7818608E-02  0.1145074E+00
         21   -1    0    0  503  502  0.00000000000E+00  0.00000000000E+00  0.75586726309E+02  0.75586726309E+02  0.00000000000E+00 0. -1.
         21   -1    0    0  501  503 -0.00000000000E+00 -0.00000000000E+00 -0.54290087332E+03  0.54290087332E+03  0.00000000000E+00 0. -1.
          6    2    1    2  501    0 -0.57176052909E+02 -0.67870127294E+02 -0.20693793826E+03  0.28445650086E+03  0.17382961595E+03 0.  0.
         24    2    3    3    0    0  0.29407312829E+02 -0.52183440158E+02 -0.70608730600E+02  0.12212814770E+03  0.79635357411E+02 0.  0.
         -6    2    1    2    0  502  0.57176052909E+02  0.67870127294E+02 -0.26037620876E+03  0.33403109878E+03  0.18948759764E+03 0.  0.
        -24    2    5    5    0    0  0.11101089523E+03  0.73905126836E+02 -0.18292395170E+03  0.23939731205E+03  0.77874991368E+02 0.  0.
          5    1    3    3  501    0 -0.86583365739E+02 -0.15686687136E+02 -0.13632920766E+03  0.16232835315E+03  0.47000000000E+01 0. -1.
        -11    1    4    4    0    0  0.35528359726E+02 -0.13115676280E+01 -0.60091648807E+02  0.69821134414E+02  0.00000000000E+00 0.  1.
         12    1    4    4    0    0 -0.61210468970E+01 -0.50871872530E+02 -0.10517081793E+02  0.52307013289E+02  0.00000000000E+00 0. -1.
         -5    1    5    5    0  502 -0.53834842320E+02 -0.60349995423E+01 -0.77452257057E+02  0.94633786727E+02  0.47000000000E+01 0.  1.
         13    1    6    6    0    0  0.85160265226E+02  0.87965958202E+02 -0.12826004431E+03  0.17731587505E+03  0.00000000000E+00 0. -1.
        -14    1    6    6    0    0  0.25850630003E+02 -0.14060831366E+02 -0.54663907385E+02  0.62081437007E+02  0.00000000000E+00 0.  1.
</event>
<event>
12    1  0.8271773E-002  0.2438678E+03  0.7818608E-02  0.1117562E+00
         21   -1    0    0  503  502  0.00000000000E+00  0.00000000000E+00  0.82304641983E+03  0.82304641983E+03  0.00000000000E+00 0.  1.
         21   -1    0    0  501  503 -0.00000000000E+00 -0.00000000000E+00 -0.80481542222E+02  0.80481542222E+02  0.00000000000E+00 0.  1.
          6    2    1    2  501    0 -0.26507562149E+02  0.16400541198E+03  0.51934045257E+03  0.57292144846E+03  0.17585236541E+03 0.  0.
         24    2    3    3    0    0 -0.85014128741E+01  0.18488178260E+03  0.42350326423E+03  0.47308708098E+03  0.10100902838E+03 0.  0.
         -6    2    1    2    0  502  0.26507562149E+02 -0.16400541198E+03  0.22322442503E+03  0.33060651358E+03  0.17852477947E+03 0.  0.
        -24    2    5    5    0    0  0.45876696498E+02 -0.38350097984E+02  0.16185368843E+03  0.18935185486E+03  0.77987865615E+02 0.  0.
          5    1    3    3  501    0 -0.18006149275E+02 -0.20876370621E+02  0.95837188338E+02  0.99834367482E+02  0.47000000000E+01 0. -1.
        -11    1    4    4    0    0 -0.51529681972E+02  0.62682077864E+02  0.15451668523E+03  0.17452723863E+03  0.00000000000E+00 0.  1.
         12    1    4    4    0    0  0.43028269098E+02  0.12219970474E+03  0.26898657901E+03  0.29855984235E+03  0.00000000000E+00 0. -1.
         -5    1    5    5    0  502 -0.19369134349E+02 -0.12565531400E+03  0.61370736600E+02  0.14125465873E+03  0.47000000000E+01 0.  1.
         11    1    6    6    0    0 -0.17440820885E+02  0.79655735417E+01  0.23766872520E+02  0.30536810973E+02  0.00000000000E+00 0. -1.
        -12    1    6    6    0    0  0.63317517383E+02 -0.46315671526E+02  0.13808681591E+03  0.15881504389E+03  0.00000000000E+00 0.  1.
</event>
<event>
12    1  0.8271773E-002  0.2008447E+03  0.7818608E-02  0.1149109E+00
         21   -1    0    0  503  502  0.00000000000E+00  0.00000000000E+00  0.18673267027E+03  0.18673267027E+03  0.00000000000E+00 0. -1.
         21   -1    0    0  501  503 -0.00000000000E+00 -0.00000000000E+00 -0.22017011208E+03  0.22017011208E+03  0.00000000000E+00 0. -1.
          6    2    1    2  501    0 -0.69603488573E+01 -0.10450854245E+03  0.12548560341E+02  0.20123633775E+03  0.17137127928E+03 0.  0.
         24    2    3    3    0    0  0.24415184018E+02 -0.13363848548E+03  0.76879501882E+01  0.15789244343E+03  0.80097272741E+02 0.  0.
         -6    2    1    2    0  502  0.69603488573E+01  0.10450854245E+03 -0.45986002145E+02  0.20566644460E+03  0.17091954873E+03 0.  0.
        -24    2    5    5    0    0 -0.16468256004E+02  0.13194984982E+03 -0.62331102351E+02  0.16577688235E+03  0.76908010498E+02 0.  0.
          5    1    3    3  501    0 -0.31375532875E+02  0.29129943029E+02  0.48606101524E+01  0.43343894323E+02  0.47000000000E+01 0. -1.
        -11    1    4    4    0    0  0.83076014484E+01 -0.84810936748E+01  0.27689665534E+02  0.30127442127E+02  0.00000000000E+00 0.  1.
         12    1    4    4    0    0  0.16107582570E+02 -0.12515739181E+03 -0.20001715346E+02  0.12776500130E+03  0.00000000000E+00 0. -1.
         -5    1    5    5    0  502  0.23428604862E+02 -0.27441307364E+02  0.16345100206E+02  0.39889562248E+02  0.47000000000E+01 0.  1.
         13    1    6    6    0    0  0.14396865326E+02  0.44939663556E+02  0.10310275483E+02  0.48302638357E+02  0.00000000000E+00 0. -1.
        -14    1    6    6    0    0 -0.30865121331E+02  0.87010186261E+02 -0.72641377834E+02  0.11747424399E+03  0.00000000000E+00 0.  1.
</event>
<event>
12    1  0.8271773E-002  0.4528363E+03  0.7818608E-02  0.1026916E+00
         21   -1    0    0  501  502  0.00000000000E+00  0.00000000000E+00  0.52136357532E+03  0.52136357532E+03  0.00000000000E+00 0.  1.
         21   -1    0    0  502  503 -0.00000000000E+00 -0.00000000000E+00 -0.61700690230E+03  0.61700690230E+03  0.00000000000E+00 0. -1.
         -6    2    1    2    0  503  0.27812507000E+03 -0.31246441042E+03 -0.39088383846E+03  0.59820637704E+03  0.17341606623E+03 0.  0.
        -24    2    3    3    0    0  0.27936040891E+03 -0.25007178171E+03 -0.29621453352E+03  0.48472186939E+03  0.81450025933E+02 0.  0.
          6    2    1    2  501    0 -0.27812507000E+03  0.31246441042E+03  0.29524051149E+03  0.54016410058E+03  0.17211256081E+03 0.  0.
         24    2    5    5    0    0 -0.80064894562E+02  0.58883232827E+02  0.11241554428E+03  0.17005829765E+03  0.80030916252E+02 0.  0.
          5    1    5    5  501    0 -0.19806017544E+03  0.25358117759E+03  0.18282496721E+03  0.37010580292E+03  0.47000000000E+01 0. -1.
        -13    1    6    6    0    0 -0.52285289302E+01  0.52206905115E+02  0.45815258024E+02  0.69655841997E+02  0.00000000000E+00 0.  1.
         14    1    6    6    0    0 -0.74836365632E+02  0.66763277112E+01  0.66600286253E+02  0.10040245566E+03  0.00000000000E+00 0. -1.
         -5    1    3    3    0  503 -0.12353389059E+01 -0.62392628711E+02 -0.94669304942E+02  0.11348450766E+03  0.47000000000E+01 0.  1.
         13    1    4    4    0    0  0.16935225551E+03 -0.15280525090E+03 -0.22902919187E+03  0.32323985193E+03  0.00000000000E+00 0. -1.
        -14    1    4    4    0    0  0.11000815340E+03 -0.97266530807E+02 -0.67185341652E+02  0.16148201746E+03  0.00000000000E+00 0.  1.
</event>
<event>
12    1  0.8271773E-002  0.2284307E+03  0.7818608E-02  0.1128287E+00
         21   -1    0    0  503  502  0.00000000000E+00  0.00000000000E+00  0.34094521609E+04  0.34094521609E+04  0.00000000000E+00 0. -1.
         21   -1    0    0  501  503 -0.00000000000E+00 -0.00000000000E+00 -0.16624686639E+02  0.16624686639E+02  0.00000000000E+00 0.  1.
          6    2    1    2  501    0 -0.42718662910E+02 -0.14434765377E+03  0.22043296302E+04  0.22158257600E+04  0.16779019875E+03 0.  0.
         24    2    3    3    0    0 -0.75676321044E+02 -0.47832664998E+02  0.10000617314E+04  0.10072379013E+04  0.79936560200E+02 0.  0.
         -6    2    1    2    0  502  0.42718662910E+02  0.14434765377E+03  0.11884978440E+04  0.12102510875E+04  0.17181222378E+03 0.  0.
        -24    2    5    5    0    0  0.74254935235E+02  0.11211706154E+03  0.10961840649E+04  0.11074052253E+04  0.81503362359E+02 0.  0.
          5    1    3    3  501    0  0.32957658134E+02 -0.96514988767E+02  0.12042678988E+04  0.12085878588E+04  0.47000000000E+01 0. -1.
        -11    1    4    4    0    0 -0.69465502415E+02 -0.62548424036E+02  0.63668984055E+03  0.64351512371E+03  0.00000000000E+00 0.  1.
         12    1    4    4    0    0 -0.62108186285E+01  0.14715759037E+02  0.36337189088E+03  0.36372277756E+03  0.00000000000E+00 0. -1.
         -5    1    5    5    0  502 -0.31536272326E+02  0.32230592230E+02  0.92313779138E+02  0.10284586217E+03  0.47000000000E+01 0.  1.
         13    1    6    6    0    0  0.32515418932E+02  0.59894208952E+02  0.83586610721E+03  0.83863980225E+03  0.00000000000E+00 0. -1.
        -14    1    6    6    0    0  0.41739516303E+02  0.52222852583E+02  0.26031795768E+03  0.26876542308E+03  0.00000000000E+00 0.  1.
</event>
<event>
12    1  0.8271773E-002  0.2173087E+03  0.7818608E-02  0.1136095E+00
         21   -1    0    0  501  502  0.00000000000E+00  0.00000000000E+00  0.41875123554E+03  0.41875123554E+03  0.00000000000E+00 0. -1.
         21   -1    0    0  502  503 -0.00000000000E+00 -0.00000000000E+00 -0.18003109229E+03  0.18003109229E+03  0.00000000000E+00 0. -1.
         -6    2    1    2    0  503  0.77699802944E+01  0.12879023040E+03 -0.64168734027E+02  0.22658490507E+03  0.17485936274E+03 0.  0.
        -24    2    3    3    0    0 -0.18030507118E+02  0.73438688892E+02 -0.10462872066E+03  0.15317810146E+03  0.82450114416E+02 0.  0.
          6    2    1    2  501    0 -0.77699802944E+01 -0.12879023040E+03  0.30288887727E+03  0.37219742276E+03  0.17361438157E+03 0.  0.
         24    2    5    5    0    0  0.57435041058E+02 -0.10106438737E+03  0.20548074599E+03  0.25165344231E+03  0.87145417081E+02 0.  0.
          5    1    5    5  501    0 -0.65205021353E+02 -0.27725843032E+02  0.97408131281E+02  0.12054398044E+03  0.47000000000E+01 0. -1.
        -13    1    6    6    0    0  0.28070175766E+02  0.10457115311E+02  0.41495619920E+02  0.51177851662E+02  0.00000000000E+00 0.  1.
         14    1    6    6    0    0  0.29364865292E+02 -0.11152150268E+03  0.16398512607E+03  0.20047559065E+03  0.00000000000E+00 0. -1.
         -5    1    3    3    0  503  0.25800487412E+02  0.55351541508E+02  0.40459986633E+02  0.73406803611E+02  0.47000000000E+01 0.  1.
         11    1    4    4    0    0 -0.15518024386E+02  0.55675239575E+02 -0.12260149165E+02  0.59083437951E+02  0.00000000000E+00 0. -1.
        -12    1    4    4    0    0 -0.25124827316E+01  0.17763449317E+02 -0.92368571494E+02  0.94094663510E+02  0.00000000000E+00 0.  1.
</event>
<event>
12    1  0.8271773E-002  0.2038317E+03  0.7818608E-02  0.1146993E+00
         21   -1    0    0  501  502  0.00000000000E+00  0.00000000000E+00  0.31183459579E+03  0.31183459579E+03  0.00000000000E+00 0. -1.
         21   -1    0    0  502  503 -0.00000000000E+00 -0.00000000000E+00 -0.15860954268E+03  0.15860954268E+03  0.00000000000E+00 0. -1.
         -6    2    1    2    0  503  0.10312436252E+03  0.35194316429E+02 -0.19707842809E+02  0.20478227528E+03  0.17226174023E+03 0.  0.
        -24    2    3    3    0    0  0.13798602340E+03  0.27549510659E+02 -0.34872840989E+02  0.16572020130E+03  0.80299140015E+02 0.  0.
          6    2    1    2  501    0 -0.10312436252E+03 -0.35194316429E+02  0.17293289592E+03  0.26566186318E+03  0.16969727459E+03 0.  0.
         24    2    5    5    0    0 -0.83889685858E+02  0.82423591759E+01  0.18259039750E+03  0.21695791149E+03  0.81400652445E+02 0.  0.
          5    1    5    5  501    0 -0.19234676663E+02 -0.43436675605E+02 -0.96575015816E+01  0.48703951695E+02  0.47000000000E+01 0. -1.
        -11    1    6    6    0    0 -0.91435136743E+01  0.35436355632E+02  0.71587611036E+02  0.80399783561E+02  0.00000000000E+00 0.  1.
         12    1    6    6    0    0 -0.74746172184E+02 -0.27193996456E+02  0.11100278647E+03  0.13655812793E+03  0.00000000000E+00 0. -1.
         -5    1    3    3    0  503 -0.34861660879E+02  0.76448057698E+01  0.15164998180E+02  0.39062073989E+02  0.47000000000E+01 0.  1.
         13    1    4    4    0    0  0.62448050283E+02  0.47973276643E+02 -0.37937953272E+02  0.87409853875E+02  0.00000000000E+00 0. -1.
        -14    1    4    4    0    0  0.75537973118E+02 -0.20423765984E+02  0.30651122826E+01  0.78310347420E+02  0.00000000000E+00 0.  1.
</event>
<event>
12    1  0.8271773E-002  0.1879967E+03  0.7818608E-02  0.1160470E+00
         21   -1    0    0  503  502  0.00000000000E+00  0.00000000000E+00  0.33119659500E+02  0.33119659500E+02  0.00000000000E+00 0.  1.
         21   -1    0    0  501  503 -0.00000000000E+00 -0.00000000000E+00 -0.10679802199E+04  0.10679802199E+04  0.00000000000E+00 0.  1.
          6    2    1    2  501    0 -0.58187578905E+02  0.46730373938E+02 -0.47889415990E+03  0.51447291923E+03  0.17254925686E+03 0.  0.
         24    2    3    3    0    0 -0.87806372152E+02  0.79894586109E+02 -0.34863986573E+03  0.37675796350E+03  0.79395863871E+02 0.  0.
         -6    2    1    2    0  502  0.58187578905E+02 -0.46730373938E+02 -0.55596640046E+03  0.58662696013E+03  0.17164798201E+03 0.  0.
        -24    2    5    5    0    0  0.62474099525E+02 -0.17932673457E+02 -0.54525458638E+03  0.55524998174E+03  0.82312723002E+02 0.  0.
          5    1    3    3  501    0  0.29618793247E+02 -0.33164212170E+02 -0.13025429417E+03  0.13771495573E+03  0.47000000000E+01 0. -1.
        -13    1    4    4    0    0 -0.87358944042E+02  0.87375558960E+02 -0.34794513996E+03  0.36923149084E+03  0.00000000000E+00 0.  1.
         14    1    4    4    0    0 -0.44742810955E+00 -0.74809728514E+01 -0.69472577287E+00  0.75264726543E+01  0.00000000000E+00 0. -1.
         -5    1    5    5    0  502 -0.42865206208E+01 -0.28797700481E+02 -0.10711814077E+02  0.31376978389E+02  0.47000000000E+01 0.  1.
         13    1    6    6    0    0  0.74811654837E+02 -0.32590617456E+02 -0.49046759994E+03  0.49720961237E+03  0.00000000000E+00 0. -1.
        -14    1    6    6    0    0 -0.12337555312E+02  0.14657943999E+02 -0.54786986440E+02  0.58040369370E+02  0.00000000000E+00 0.  1.
</event>
<event>
12    1  0.8271773E-002  0.1772827E+03  0.7818608E-02  0.1171217E+00
         21   -1    0    0  501  502  0.00000000000E+00  0.00000000000E+00  0.15120967544E+03  0.15120967544E+03  0.00000000000E+00 0.  1.
         21   -1    0    0  502  503 -0.00000000000E+00 -0.00000000000E+00 -0.24362343299E+03  0.24362343299E+03  0.00000000000E+00 0.  1.
         -6    2    1    2    0  503 -0.30606972077E+02  0.10924907461E+02  0.33440178667E+02  0.17742020500E+03  0.17118277731E+03 0.  0.
        -24    2    3    3    0    0 -0.24322229087E+02 -0.87213503749E+01  0.86640912057E+02  0.12016741926E+03  0.79157616370E+02 0.  0.
          6    2    1    2  501    0  0.30606972077E+02 -0.10924907461E+02 -0.12585393622E+03  0.21741290343E+03  0.17427856143E+03 0.  0.
         24    2    5    5    0    0 -0.33507882958E+02 -0.20239028529E+02 -0.12233942576E+03  0.15235977691E+03  0.81940039226E+02 0.  0.
          5    1    5    5  501    0  0.64114855035E+02  0.93141210679E+01 -0.35145104651E+01  0.65053126529E+02  0.47000000000E+01 0. -1.
        -11    1    6    6    0    0 -0.18596810693E+02 -0.49116384942E+02 -0.47683180886E+02  0.70936213439E+02  0.00000000000E+00 0.  1.
         12    1    6    6    0    0 -0.14911072265E+02  0.28877356413E+02 -0.74656244870E+02  0.81423563466E+02  0.00000000000E+00 0. -1.
         -5    1    3    3    0  503 -0.62847429894E+01  0.19646257836E+02 -0.53200733390E+02  0.57252785737E+02  0.47000000000E+01 0.  1.
         11    1    4    4    0    0 -0.17420264264E+02 -0.36083442059E+02  0.14344315333E+02  0.42558662810E+02  0.00000000000E+00 0. -1.
        -12    1    4    4    0    0 -0.69019648238E+01  0.27362091684E+02  0.72296596724E+02  0.77608756450E+02  0.00000000000E+00 0.  1.
</event>
<event>
12    1  0.8271773E-002  0.1835118E+03  0.7818608E-02  0.1164660E+00
         21   -1    0    0  501  502  0.00000000000E+00  0.00000000000E+00  0.19920784607E+04  0.19920784607E+04  0.00000000000E+00 0.  1.
         21   -1    0    0  502  503 -0.00000000000E+00 -0.00000000000E+00 -0.39820297075E+02  0.39820297075E+02  0.00000000000E+00 0.  1.
         -6    2    1    2    0  503 -0.47422579928E+02  0.40083915208E+02  0.20303079286E+03  0.27307159694E+03  0.17172935934E+03 0.  0.
        -24    2    3    3    0    0  0.18216404261E+02 -0.27933788934E+02  0.12608874833E+03  0.15110007346E+03  0.76293681237E+02 0.  0.
          6    2    1    2  501    0  0.47422579928E+02 -0.40083915208E+02  0.17492273708E+04  0.17588271609E+04  0.17268747991E+03 0.  0.
         24    2    5    5    0    0 -0.26501827164E+02  0.21271495986E+02  0.77911426342E+03  0.78395751032E+03  0.80096935932E+02 0.  0.
          5    1    5    5  501    0  0.73924407092E+02 -0.61355411194E+02  0.97011310738E+03  0.97486965054E+03  0.47000000000E+01 0. -1.
        -13    1    6    6    0    0 -0.11249132932E+02  0.13269426633E+02  0.74947491034E+03  0.74967677162E+03  0.00000000000E+00 0.  1.
         14    1    6    6    0    0 -0.15252694232E+02  0.80020693529E+01  0.29639353079E+02  0.34280738706E+02  0.00000000000E+00 0. -1.
         -5    1    3    3    0  503 -0.65638984189E+02  0.68017704142E+02  0.76942044532E+02  0.12197152348E+03  0.47000000000E+01 0.  1.
         13    1    4    4    0    0 -0.19397049354E+02  0.15079561010E+02  0.52219748821E+02  0.57710838244E+02  0.00000000000E+00 0. -1.
        -14    1    4    4    0    0  0.37613453616E+02 -0.43013349944E+02  0.73868999506E+02  0.93389235217E+02  0.00000000000E+00 0.  1.
</event>
<event>
12    1  0.8271773E-002  0.2037555E+03  0.7818608E-02  0.1146624E+00
         21   -1    0    0  503  502  0.00000000000E+00  0.00000000000E+00  0.63290073460E+03  0.63290073460E+03  0.00000000000E+00 0. -1.
         21   -1    0    0  501  503 -0.00000000000E+00 -0.00000000000E+00 -0.73805863376E+02  0.73805863376E+02  0.00000000000E+00 0. -1.
          6    2    1    2  501    0  0.42427123679E+02  0.10280095174E+03  0.39761360635E+03  0.44678055825E+03  0.17072841230E+03 0.  0.
         24    2    3    3    0    0  0.48591648762E+02  0.86619886367E+02  0.14433590861E+03  0.19286815126E+03  0.80629499641E+02 0.  0.
         -6    2    1    2    0  502 -0.42427123679E+02 -0.10280095174E+03  0.16148126487E+03  0.25992603973E+03  0.17063777637E+03 0.  0.
        -24    2    5    5    0    0 -0.56600367802E+02 -0.10927131070E+03  0.18172108861E+03  0.23395515490E+03  0.81047143592E+02 0.  0.
          5    1    3    3  501    0 -0.61645250838E+01  0.16181065373E+02  0.25327769775E+03  0.25391240699E+03  0.47000000000E+01 0. -1.
        -11    1    4    4    0    0  0.44653836731E+02  0.13329267685E+02  0.25306276663E+02  0.53028691765E+02  0.00000000000E+00 0.  1.
         12    1    4    4    0    0  0.39378120318E+01  0.73290618681E+02  0.11902963194E+03  0.13983945949E+03  0.00000000000E+00 0. -1.
         -5    1    5    5    0  502  0.14173244123E+02  0.64703589603E+01 -0.20239823734E+02  0.25970884829E+02  0.47000000000E+01 0.  1.
         13    1    6    6    0    0 -0.33093214491E+02 -0.70181479976E+02  0.44713140195E+02  0.89553703905E+02  0.00000000000E+00 0. -1.
        -14    1    6    6    0    0 -0.23507153310E+02 -0.39089830725E+02  0.13700794841E+03  0.14440145100E+03  0.00000000000E+00 0.  1.
</event>
<event>
12    1  0.8271773E-002  0.2088899E+03  0.7818608E-02  0.1142452E+00
         21   -1    0    0  503  502  0.00000000000E+00  0.00000000000E+00  0.20301688278E+03  0.20301688278E+03  0.00000000000E+00 0. -1.
         21   -1    0    0  501  503 -0.00000000000E+00 -0.00000000000E+00 -0.23586650767E+03  0.23586650767E+03  0.00000000000E+00 0. -1.
          6    2    1    2  501    0 -0.38552126882E+02  0.11286952074E+03 -0.81831087367E+02  0.22432766821E+03  0.17146655845E+03 0.  0.
         24    2    3    3    0    0  0.18044029362E+02  0.88513315142E+02 -0.10378244141E+03  0.15875098335E+03  0.79188923572E+02 0.  0.
         -6    2    1    2    0  502  0.38552126882E+02 -0.11286952074E+03  0.48981462482E+02  0.21455572224E+03  0.17149104665E+03 0.  0.
        -24    2    5    5    0    0  0.57339214712E+02 -0.14814534909E+02  0.44317963585E+02  0.11449787329E+03  0.87398084090E+02 0.  0.
          5    1    3    3  501    0 -0.56596156245E+02  0.24356205595E+02  0.21951354044E+02  0.65576684859E+02  0.47000000000E+01 0. -1.
        -13    1    4    4    0    0 -0.20208854794E+01 -0.33970944592E+01  0.10212364805E+02  0.10950644904E+02  0.00000000000E+00 0.  1.
         14    1    4    4    0    0  0.20064914842E+02  0.91910409601E+02 -0.11399480622E+03  0.14780033845E+03  0.00000000000E+00 0. -1.
         -5    1    5    5    0  502 -0.18787087829E+02 -0.98054985828E+02  0.46634988979E+01  0.10005784895E+03  0.47000000000E+01 0.  1.
         13    1    6    6    0    0 -0.10192783441E+02 -0.33599883560E+02  0.19329952459E+02  0.40081068743E+02  0.00000000000E+00 0. -1.
        -14    1    6    6    0    0  0.67531998153E+02  0.18785348651E+02  0.24988011125E+02  0.74416804543E+02  0.00000000000E+00 0.  1.
</event>
<event>
12    1  0.8271773E-002  0.1964502E+03  0.7818608E-02  0.1152906E+00
         21   -1    0    0  503  502  0.00000000000E+00  0.00000000000E+00  0.19859849492E+03  0.19859849492E+03  0.00000000000E+00 0. -1.
         21   -1    0    0  501  503 -0.00000000000E+00 -0.00000000000E+00 -0.19395387032E+03  0.19395387032E+03  0.00000000000E+00 0. -1.
          6    2    1    2  501    0  0.64384766221E+02 -0.68001903829E+02  0.94264793587E+01  0.19667624501E+03  0.17269345614E+03 0.  0.
         24    2    3    3    0    0 -0.26153507688E+02 -0.20363311661E+01  0.14323498105E+02  0.84450104512E+02  0.78984206935E+02 0.  0.
         -6    2    1    2    0  502 -0.64384766221E+02  0.68001903829E+02 -0.47818547502E+01  0.19587612023E+03  0.17197363546E+03 0.  0.
        -24    2    5    5    0    0 -0.10022343962E+03  0.31577570745E+02  0.27800635188E+02  0.13509083252E+03  0.80217061092E+02 0.  0.
          5    1    3    3  501    0  0.90538273908E+02 -0.65965572663E+02 -0.48970187463E+01  0.11222614050E+03  0.47000000000E+01 0. -1.
        -11    1    4    4    0    0 -0.11415763460E+02  0.26638553417E+02 -0.21626181830E+02  0.36161083004E+02  0.00000000000E+00 0.  1.
         12    1    4    4    0    0 -0.14737744228E+02 -0.28674884583E+02  0.35949679935E+02  0.48289021508E+02  0.00000000000E+00 0. -1.
         -5    1    5    5    0  502  0.35838673396E+02  0.36424333084E+02 -0.32582489939E+02  0.60785287710E+02  0.47000000000E+01 0.  1.
         13    1    6    6    0    0 -0.71997904739E+02  0.53907185173E+02  0.38064521802E+02  0.97665709029E+02  0.00000000000E+00 0. -1.
        -14    1    6    6    0    0 -0.28225534878E+02 -0.22329614428E+02 -0.10263886613E+02  0.37425123488E+02  0.00000000000E+00 0.  1.
</event>
<event>
12    1  0.8271773E-002  0.2202259E+03  0.7818608E-02  0.1134145E+00
         21   -1    0    0  501  502  0.00000000000E+00  0.00000000000E+00  0.17568110293E+04  0.17568110293E+04  0.00000000000E+00 0.  1.
         21   -1    0    0  502  503 -0.00000000000E+00 -0.00000000000E+00 -0.27484548005E+02  0.27484548005E+02  0.00000000000E+00 0.  1.
         -6    2    1    2    0  503  0.63194287067E+02  0.11929371257E+03  0.80000237453E+03  0.82976095697E+03  0.17399695023E+03 0.  0.
        -24    2    3    3    0    0  0.38625503229E+02  0.11904366758E+03  0.78778421441E+03  0.80192103782E+03  0.82523076376E+02 0.  0.
          6    2    1    2  501    0 -0.63194287067E+02 -0.11929371257E+03  0.92932410678E+03  0.95453462035E+03  0.17108050216E+03 0.  0.
         24    2    5    5    0    0 -0.10208844862E+03 -0.68360755273E+02  0.75097513239E+03  0.76496308079E+03  0.78164066602E+02 0.  0.
          5    1    5    5  501    0  0.38894161550E+02 -0.50932957297E+02  0.17834897440E+03  0.18957153956E+03  0.47000000000E+01 0. -1.
        -13    1    6    6    0    0 -0.88056825213E+02 -0.38227025489E+02  0.36006018849E+03  0.37263742335E+03  0.00000000000E+00 0.  1.
         14    1    6    6    0    0 -0.14031623404E+02 -0.30133729784E+02  0.39091494390E+03  0.39232565744E+03  0.00000000000E+00 0. -1.
         -5    1    3    3    0  503  0.24568783838E+02  0.25004498645E+00  0.12218160120E+02  0.27839919154E+02  0.47000000000E+01 0.  1.
         13    1    4    4    0    0 -0.13418855606E+02  0.18451339960E+02  0.31237524259E+03  0.31320729528E+03  0.00000000000E+00 0. -1.
        -14    1    4    4    0    0  0.52044358835E+02  0.10059232762E+03  0.47540897181E+03  0.48871374254E+03  0.00000000000E+00 0.  1.
</event>
<event>
12    1  0.8271773E-002  0.2393659E+03  0.7818608E-02  0.1120282E+00
         21   -1    0    0  503  502  0.00000000000E+00  0.00000000000E+00  0.64258078656E+03  0.64258078656E+03  0.00000000000E+00 0. -1.
         21   -1    0    0  501  503 -0.00000000000E+00 -0.00000000000E+00 -0.11823037193E+03  0.11823037193E+03  0.00000000000E+00 0.  1.
          6    2    1    2  501    0 -0.74148145483E+02  0.15051266003E+03  0.72925876217E+02  0.24985112080E+03  0.17016283623E+03 0.  0.
         24    2    3    3    0    0 -0.52004700117E+02  0.93662440334E+01  0.41580049553E+02  0.10350463546E+03  0.78689857539E+02 0.  0.
         -6    2    1    2    0  502  0.74148145483E+02 -0.15051266003E+03  0.45142453841E+03  0.51096003769E+03  0.17071624976E+03 0.  0.
        -24    2    5    5    0    0  0.28639167776E+02 -0.16345514236E+03  0.29709147681E+03  0.34946898902E+03  0.79545227342E+02 0.  0.
          5    1    3    3  501    0 -0.22143445366E+02  0.14114641600E+03  0.31345826664E+02  0.14634648534E+03  0.47000000000E+01 0. -1.
        -13    1    4    4    0    0 -0.62579057509E+02 -0.23369464811E+00  0.33218776566E+01  0.62667598671E+02  0.00000000000E+00 0.  1.
         14    1    4    4    0    0  0.10574357393E+02  0.95999386815E+01  0.38258171896E+02  0.40837036790E+02  0.00000000000E+00 0. -1.
         -5    1    5    5    0  502  0.45508977707E+02  0.12942482333E+02  0.15433306159E+03  0.16149104867E+03  0.47000000000E+01 0.  1.
         11    1    6    6    0    0 -0.80329912773E+01 -0.27727142649E+02  0.11363005484E+02  0.31023237774E+02  0.00000000000E+00 0. -1.
        -12    1    6    6    0    0  0.36672159053E+02 -0.13572799972E+03  0.28572847133E+03  0.31844575124E+03  0.00000000000E+00 0.  1.
</event>
<event>
12    1  0.8271773E-002  0.1834755E+03  0.7818608E-02  0.1164703E+00
         21   -1    0    0  501  502  0.00000000000E+00  0.00000000000E+00  0.25330900965E+02  0.25330900965E+02  0.00000000000E+00 0.  1.
         21   -1    0    0  502  503 -0.00000000000E+00 -0.00000000000E+00 -0.13329147493E+04  0.13329147493E+04  0.00000000000E+00 0.  1.
         -6    2    1    2    0  503  0.38072366568E+02 -0.50901774133E+02 -0.71311465434E+03  0.73610668161E+03  0.17111411623E+03 0.  0.
        -24    2    3    3    0    0  0.74241141739E+02  0.11032189477E+00 -0.32107502972E+03  0.33908329249E+03  0.79853273181E+02 0.  0.
          6    2    1    2  501    0 -0.38072366568E+02  0.50901774133E+02 -0.59446919404E+03  0.62213896870E+03  0.17211268984E+03 0.  0.
         24    2    5    5    0    0 -0.50207742615E+02  0.27631503633E+02 -0.17647631740E+03  0.20329662633E+03  0.83074125105E+02 0.  0.
          5    1    5    5  501    0  0.12135376047E+02  0.23270270500E+02 -0.41799287664E+03  0.41884234237E+03  0.47000000000E+01 0. -1.
        -11    1    6    6    0    0 -0.45035631772E+02  0.37542969821E+02 -0.52149510742E+02  0.78468173055E+02  0.00000000000E+00 0.  1.
         12    1    6    6    0    0 -0.51721108431E+01 -0.99114661877E+01 -0.12432680666E+03  0.12482845328E+03  0.00000000000E+00 0. -1.
         -5    1    3    3    0  503 -0.36168775171E+02 -0.51012096028E+02 -0.39203962462E+03  0.39702338912E+03  0.47000000000E+01 0.  1.
         13    1    4    4    0    0  0.18267871041E+02 -0.81973788311E+01 -0.90575370016E+01  0.21976148630E+02  0.00000000000E+00 0. -1.
        -14    1    4    4    0    0  0.55973270698E+02  0.83077007258E+01 -0.31201749272E+03  0.31710714386E+03  0.00000000000E+00 0.  1.
</event>
<event>
12    1  0.8271773E-002  0.2120232E+03  0.7818608E-02  0.1143608E+00
         21   -1    0    0  503  502  0.00000000000E+00  0.00000000000E+00  0.75167967133E+02  0.75167967133E+02  0.00000000000E+00 0.  1.
         21   -1    0    0  501  503 -0.00000000000E+00 -0.00000000000E+00 -0.56218180908E+03  0.56218180908E+03  0.00000000000E+00 0.  1.
          6    2    1    2  501    0  0.86691834843E+02  0.18831652153E+02 -0.28178592248E+03  0.34226957880E+03  0.17284401381E+03 0.  0.
         24    2    3    3    0    0  0.37867744489E+02 -0.12404444301E+02 -0.46382538496E+02  0.99790035925E+02  0.78859844543E+02 0.  0.
         -6    2    1    2    0  502 -0.86691834843E+02 -0.18831652153E+02 -0.20522791946E+03  0.29508019741E+03  0.19257133386E+03 0.  0.
        -24    2    5    5    0    0 -0.85980367631E+02 -0.60383520252E+02 -0.70063814115E+02  0.15359348672E+03  0.87425556779E+02 0.  0.
          5    1    3    3  501    0  0.48824090354E+02  0.31236096454E+02 -0.23540338399E+03  0.24247954288E+03  0.47000000000E+01 0. -1.
        -13    1    4    4    0    0  0.42877637568E+02 -0.46222884213E+01 -0.65573396872E+02  0.78483932948E+02  0.00000000000E+00 0.  1.
         14    1    4    4    0    0 -0.50098930790E+01 -0.77821558802E+01  0.19190858377E+02  0.21306102976E+02  0.00000000000E+00 0. -1.
         -5    1    5    5    0  502 -0.71146721138E+00  0.41551868100E+02 -0.13516410535E+03  0.14148671069E+03  0.47000000000E+01 0.  1.
         11    1    6    6    0    0  0.17507884133E+02 -0.14007671729E+02 -0.54550025676E+01  0.23075916603E+02  0.00000000000E+00 0. -1.
        -12    1    6    6    0    0 -0.10348825176E+03 -0.46375848524E+02 -0.64608811547E+02  0.13051757012E+03  0.00000000000E+00 0.  1.
</event>
<event>
12    1  0.8271773E-002  0.2162367E+03  0.7818608E-02  0.1137564E+00
         21   -1    0    0  501  502  0.00000000000E+00  0.00000000000E+00  0.10039106947E+03  0.10039106947E+03  0.00000000000E+00 0.  1.
         21   -1    0    0  502  503 -0.00000000000E+00 -0.00000000000E+00 -0.93573641512E+03  0.93573641512E+03  0.00000000000E+00 0.  1.
         -6    2    1    2    0  503 -0.25614040101E+02  0.12060583694E+03 -0.79054722461E+03  0.81958723227E+03  0.17764140846E+03 0.  0.
        -24    2    3    3    0    0  0.24880162061E+02  0.13301475192E+03 -0.48479791132E+03  0.50941247797E+03  0.78486375905E+02 0.  0.
          6    2    1    2  501    0  0.25614040101E+02 -0.12060583694E+03 -0.44798121037E+02  0.21654025233E+03  0.17228163650E+03 0.  0.
         24    2    5    5    0    0  0.11789949618E+02 -0.89261134930E+02  0.38554242156E+02  0.12630000481E+03  0.79741510558E+02 0.  0.
          5    1    5    5  501    0  0.13824090483E+02 -0.31344702015E+02 -0.83352363193E+02  0.90240247517E+02  0.47000000000E+01 0. -1.
        -11    1    6    6    0    0  0.44472181418E+02 -0.37924544684E+02  0.10900977406E+02  0.59454834269E+02  0.00000000000E+00 0.  1.
         12    1    6    6    0    0 -0.32682231800E+02 -0.51336590246E+02  0.27653264751E+02  0.66845170543E+02  0.00000000000E+00 0. -1.
         -5    1    3    3    0  503 -0.50494202162E+02 -0.12408914976E+02 -0.30574931329E+03  0.31017475429E+03  0.47000000000E+01 0.  1.
         11    1    4    4    0    0  0.43633977565E+02  0.98045331754E+02 -0.41944616578E+03  0.43295715384E+03  0.00000000000E+00 0. -1.
        -12    1    4    4    0    0 -0.18753815504E+02  0.34969420167E+02 -0.65351745542E+02  0.76455324132E+02  0.00000000000E+00 0.  1.
</event>
<event>
12    1  0.8271773E-002  0.2146128E+03  0.7818608E-02  0.1140455E+00
         21   -1    0    0  501  502  0.00000000000E+00  0.00000000000E+00  0.50171804519E+02  0.50171804519E+02  0.00000000000E+00 0.  1.
         21   -1    0    0  502  503 -0.00000000000E+00 -0.00000000000E+00 -0.11195860162E+04  0.11195860162E+04  0.00000000000E+00 0.  1.
         -6    2    1    2    0  503 -0.32319514524E+02  0.10921499822E+03 -0.82582278467E+03  0.85325372131E+03  0.18189605385E+03 0.  0.
        -24    2    3    3    0    0 -0.27313760269E+02  0.14835096684E+03 -0.72532934219E+03  0.74519029736E+03  0.80323556777E+02 0.  0.
          6    2    1    2  501    0  0.32319514524E+02 -0.10921499822E+03 -0.24359142702E+03  0.31650409941E+03  0.16692990976E+03 0.  0.
         24    2    5    5    0    0  0.19937245085E+02 -0.13448945314E+03 -0.24019959174E+03  0.28776887338E+03  0.81425879599E+02 0.  0.
          5    1    5    5  501    0  0.12382269439E+02  0.25274454929E+02 -0.33918352832E+01  0.28735226030E+02  0.47000000000E+01 0. -1.
        -13    1    6    6    0    0 -0.28305647886E+02 -0.58458985537E+02 -0.71885004753E+02  0.96881972526E+02  0.00000000000E+00 0.  1.
         14    1    6    6    0    0  0.48242892971E+02 -0.76030467608E+02 -0.16831458699E+03  0.19088690086E+03  0.00000000000E+00 0. -1.
         -5    1    3    3    0  503 -0.50057542545E+01 -0.39135968625E+02 -0.10049344247E+03  0.10806342395E+03  0.47000000000E+01 0.  1.
         13    1    4    4    0    0 -0.49427462594E+02  0.52475306355E+02 -0.33265662676E+03  0.34037797103E+03  0.00000000000E+00 0. -1.
        -14    1    4    4    0    0  0.22113702325E+02  0.95875660486E+02 -0.39267271544E+03  0.40481232633E+03  0.00000000000E+00 0.  1.
</event>
<event>
12    1  0.8271773E-002  0.1801067E+03  0.7818608E-02  0.1168621E+00
         21   -1    0    0  501  502  0.00000000000E+00  0.00000000000E+00  0.14820694505E+04  0.14820694505E+04  0.00000000000E+00 0.  1.
         21   -1    0    0  502  503 -0.00000000000E+00 -0.00000000000E+00 -0.32274203404E+02  0.32274203404E+02  0.00000000000E+00 0.  1.
         -6    2    1    2    0  503  0.23936894717E+02  0.48127394218E+02  0.29114059388E+03  0.34234670736E+03  0.17189881219E+03 0.  0.
        -24    2    3    3    0    0  0.16852535353E+02  0.90997706339E+02  0.26363689586E+03  0.29070762125E+03  0.80261557975E+02 0.  0.
          6    2    1    2  501    0 -0.23936894717E+02 -0.48127394218E+02  0.11586546532E+04  0.11719969465E+04  0.16794944563E+03 0.  0.
         24    2    5    5    0    0 -0.15256192457E+02 -0.28378951683E+02  0.11392722017E+04  0.11426179575E+04  0.81219029451E+02 0.  0.
          5    1    5    5  501    0 -0.86807022594E+01 -0.19748442535E+02  0.19382451467E+02  0.29378989077E+02  0.47000000000E+01 0. -1.
        -11    1    6    6    0    0 -0.96681978863E+00  0.10688462501E+02  0.21102560974E+02  0.23674797798E+02  0.00000000000E+00 0.  1.
         12    1    6    6    0    0 -0.14289372669E+02 -0.39067414184E+02  0.11181696408E+04  0.11189431597E+04  0.00000000000E+00 0. -1.
         -5    1    3    3    0  503  0.70843593633E+01 -0.42870312121E+02  0.27503698015E+02  0.51639086102E+02  0.47000000000E+01 0.  1.
         13    1    4    4    0    0 -0.13441442000E+02  0.82879508815E+02  0.14083435431E+03  0.16396341268E+03  0.00000000000E+00 0. -1.
        -14    1    4    4    0    0  0.30293977354E+02  0.81181975241E+01  0.12280254155E+03  0.12674420857E+03  0.00000000000E+00 0.  1.
</event>
<event>
12    1  0.8271773E-002  0.2043123E+03  0.7818608E-02  0.1146438E+00
         21   -1    0    0  501  502  0.00000000000E+00  0.00000000000E+00  0.24972522789E+03  0.24972522789E+03  0.00000000000E+00 0.  1.
         21   -1    0    0  502  503 -0.00000000000E+00 -0.00000000000E+00 -0.75544269552E+03  0.75544269552E+03  0.00000000000E+00 0.  1.
         -6    2    1    2    0  503 -0.84746022290E+02  0.68313119691E+02 -0.69660527652E+03  0.72555804542E+03  0.17125126388E+03 0.  0.
        -24    2    3    3    0    0 -0.17513095479E+02  0.85442364062E+01 -0.14005220514E+03  0.16176198555E+03  0.78565942472E+02 0.  0.
          6    2    1    2  501    0  0.84746022290E+02 -0.68313119691E+02  0.19088780890E+03  0.27960987799E+03  0.17290158376E+03 0.  0.
         24    2    5    5    0    0  0.91815023951E+02 -0.56755984182E+02  0.60021476186E+02  0.14796024752E+03  0.81476480525E+02 0.  0.
          5    1    5    5  501    0 -0.70690016611E+01 -0.11557135509E+02  0.13086633271E+03  0.13164963047E+03  0.47000000000E+01 0. -1.
        -13    1    6    6    0    0  0.16007717952E+02 -0.56610578247E+02  0.19345515177E+02  0.61929424032E+02  0.00000000000E+00 0.  1.
         14    1    6    6    0    0  0.75807305999E+02 -0.14540593424E+00  0.40675961009E+02  0.86030823487E+02  0.00000000000E+00 0. -1.
         -5    1    3    3    0  503 -0.67232926812E+02  0.59768883285E+02 -0.55655307138E+03  0.56379605987E+03  0.47000000000E+01 0.  1.
         13    1    4    4    0    0 -0.53132306437E+01 -0.28252337709E+02 -0.18520033710E+02  0.34196734560E+02  0.00000000000E+00 0. -1.
        -14    1    4    4    0    0 -0.12199864835E+02  0.36796574116E+02 -0.12153217143E+03  0.12756525099E+03  0.00000000000E+00 0.  1.
</event>
<event>
12    1  0.8271773E-002  0.1863480E+03  0.7818608E-02  0.1166121E+00
         21   -1    0    0  501  502  0.00000000000E+00  0.00000000000E+00  0.77497267874E+02  0.77497267874E+02  0.00000000000E+00 0. -1.
         21   -1    0    0  502  503 -0.00000000000E+00 -0.00000000000E+00 -0.42442606249E+03  0.42442606249E+03  0.00000000000E+00 0. -1.
         -6    2    1    2    0  503  0.33609938945E+02 -0.59101695174E+02 -0.11362111451E+03  0.20332986248E+03  0.15430695690E+03 0.  0.
        -24    2    3    3    0    0  0.56915829953E+02 -0.84043609793E+02 -0.70600844202E+02  0.14821092456E+03  0.81726733140E+02 0.  0.
          6    2    1    2  501    0 -0.33609938945E+02  0.59101695174E+02 -0.23330768010E+03  0.29859346788E+03  0.17350200891E+03 0.  0.
         24    2    5    5    0    0 -0.73127490145E+02  0.14648836941E+02 -0.20568825909E+03  0.23284686435E+03  0.79672982071E+02 0.  0.
          5    1    5    5  501    0  0.39517551201E+02  0.44452858233E+02 -0.27619421007E+02  0.65746603523E+02  0.47000000000E+01 0. -1.
        -11    1    6    6    0    0 -0.70483571762E+02 -0.12319358113E+02 -0.95241031512E+02  0.11912411408E+03  0.00000000000E+00 0.  1.
         12    1    6    6    0    0 -0.26439183836E+01  0.26968195054E+02 -0.11044722758E+03  0.11372275027E+03  0.00000000000E+00 0. -1.
         -5    1    3    3    0  503 -0.23305891008E+02  0.24941914619E+02 -0.43020270312E+02  0.55118937928E+02  0.47000000000E+01 0.  1.
         13    1    4    4    0    0  0.53712363934E+02 -0.69664122412E+02 -0.13202007363E+02  0.88951677832E+02  0.00000000000E+00 0. -1.
        -14    1    4    4    0    0  0.32034660187E+01 -0.14379487382E+02 -0.57398836839E+02  0.59259246725E+02  0.00000000000E+00 0.  1.
</event>
<event>
12    1  0.8271773E-002  0.2145792E+03  0.7818608E-02  0.1138098E+00
         21   -1    0    0  501  502  0.00000000000E+00  0.00000000000E+00  0.29276367474E+03  0.29276367474E+03  0.00000000000E+00 0. -1.
         21   -1    0    0  502  503 -0.00000000000E+00 -0.00000000000E+00 -0.18420168133E+03  0.18420168133E+03  0.00000000000E+00 0.  1.
         -6    2    1    2    0  503  0.10841050937E+03  0.68528408034E+02 -0.37649521757E+02  0.21730784419E+03  0.17133660266E+03 0.  0.
        -24    2    3    3    0    0  0.46631694328E+02  0.62313902586E+02 -0.84052426950E+02  0.13965115307E+03  0.79875507551E+02 0.  0.
          6    2    1    2  501    0 -0.10841050937E+03 -0.68528408034E+02  0.14621151516E+03  0.25965751187E+03  0.17203265695E+03 0.  0.
         24    2    5    5    0    0 -0.59419530497E+02  0.26315363028E+02  0.10246853072E+03  0.14419758113E+03  0.77909971630E+02 0.  0.
          5    1    5    5  501    0 -0.48990978870E+02 -0.94843771063E+02  0.43742984445E+02  0.11545993075E+03  0.47000000000E+01 0. -1.
        -11    1    6    6    0    0  0.66227465908E+01  0.42317384543E+01  0.64315733483E+02  0.64794150633E+02  0.00000000000E+00 0.  1.
         12    1    6    6    0    0 -0.66042277088E+02  0.22083624574E+02  0.38152797235E+02  0.79403430493E+02  0.00000000000E+00 0. -1.
         -5    1    3    3    0  503  0.61778815039E+02  0.62145054488E+01  0.46402905193E+02  0.77656691121E+02  0.47000000000E+01 0.  1.
         13    1    4    4    0    0 -0.37245847404E+01  0.60313962013E+02 -0.38007665067E+02  0.71387878166E+02  0.00000000000E+00 0. -1.
        -14    1    4    4    0    0  0.50356279069E+02  0.19999405728E+01 -0.46044761883E+02  0.68263274905E+02  0.00000000000E+00 0.  1.
</event>
<event>
12    1  0.8271773E-002  0.2075275E+03  0.7818608E-02  0.1143967E+00
         21   -1    0    0  501  502  0.00000000000E+00  0.00000000000E+00  0.99811051721E+03  0.99811051721E+03  0.00000000000E+00 0.  1.
         21   -1    0    0  502  503 -0.00000000000E+00 -0.00000000000E+00 -0.12483324456E+03  0.12483324456E+03  0.00000000000E+00 0.  1.
         -6    2    1    2    0  503  0.93678708819E+02 -0.61120761211E+02 -0.19527322093E+02  0.20633712587E+03  0.17228536000E+03 0.  0.
        -24    2    3    3    0    0  0.12884564028E+03 -0.51315585458E+02 -0.38400565873E+02  0.16497115108E+03  0.80662190010E+02 0.  0.
          6    2    1    2  501    0 -0.93678708819E+02  0.61120761211E+02  0.89280459474E+03  0.91660663590E+03  0.17480341143E+03 0.  0.
         24    2    5    5    0    0 -0.34626009787E+02 -0.27649986901E+02  0.24223582403E+03  0.25734243817E+03  0.74722511402E+02 0.  0.
          5    1    5    5  501    0 -0.59052699032E+02  0.88770748113E+02  0.65056877072E+03  0.65926419773E+03  0.47000000000E+01 0. -1.
        -11    1    6    6    0    0 -0.10680377528E+02  0.19429735002E+02  0.14501223554E+03  0.14669742166E+03  0.00000000000E+00 0.  1.
         12    1    6    6    0    0 -0.23945632259E+02 -0.47079721903E+02  0.97223588488E+02  0.11064501650E+03  0.00000000000E+00 0. -1.
         -5    1    3    3    0  503 -0.35166931465E+02 -0.98051757531E+01  0.18873243780E+02  0.41365974798E+02  0.47000000000E+01 0.  1.
         13    1    4    4    0    0  0.59845344026E+02  0.47329742931E+01 -0.46174384173E+02  0.75735988810E+02  0.00000000000E+00 0. -1.
        -14    1    4    4    0    0  0.69000296258E+02 -0.56048559751E+02  0.77738182999E+01  0.89235162267E+02  0.00000000000E+00 0.  1.
</event>
<event>
12    1  0.8271773E-002  0.1920863E+03  0.7818608E-02  0.1156625E+00
         21   -1    0    0  501  502  0.00000000000E+00  0.00000000000E+00  0.80426679717E+02  0.80426679717E+02  0.00000000000E+00 0. -1.
         21   -1    0    0  502  503 -0.00000000000E+00 -0.00000000000E+00 -0.46392747540E+03  0.46392747540E+03  0.00000000000E+00 0. -1.
         -6    2    1    2    0  503 -0.52142650638E+02 -0.65813466442E+02 -0.16218223386E+03  0.25139652517E+03  0.17276245977E+03 0.  0.
        -24    2    3    3    0    0  0.10184550541E+02 -0.40463439263E+02 -0.16139796048E+03  0.18394277087E+03  0.77747194927E+02 0.  0.
          6    2    1    2  501    0  0.52142650638E+02  0.65813466442E+02 -0.22131856181E+03  0.29295762994E+03  0.17260358849E+03 0.  0.
         24    2    5    5    0    0  0.69061043178E+02  0.10443721283E+03 -0.15376248380E+03  0.21318332664E+03  0.78279436775E+02 0.  0.
          5    1    5    5  501    0 -0.16918392540E+02 -0.38623746393E+02 -0.67556078015E+02  0.79774303309E+02  0.47000000000E+01 0. -1.
        -13    1    6    6    0    0  0.24333619612E+02  0.12270142470E+02  0.13584306888E+01  0.27286017913E+02  0.00000000000E+00 0.  1.
         14    1    6    6    0    0  0.44727423567E+02  0.92167070365E+02 -0.15512091449E+03  0.18589730872E+03  0.00000000000E+00 0. -1.
         -5    1    3    3    0  503 -0.62327201179E+02 -0.25350027179E+02 -0.78427338136E+00  0.67453754302E+02  0.47000000000E+01 0.  1.
         11    1    4    4    0    0  0.41677062202E+02 -0.77741829901E+01 -0.68711396760E+02  0.80738290046E+02  0.00000000000E+00 0. -1.
        -12    1    4    4    0    0 -0.31492511661E+02 -0.32689256273E+02 -0.92686563723E+02  0.10320448082E+03  0.00000000000E+00 0.  1.
</event>
<event>
12    1  0.8271773E-002  0.1938376E+03  0.7818608E-02  0.1155170E+00
         21   -1    0    0  503  502  0.00000000000E+00  0.00000000000E+00  0.23983430659E+03  0.23983430659E+03  0.00000000000E+00 0.  1.
         21   -1    0    0  501  503 -0.00000000000E+00 -0.00000000000E+00 -0.15825121390E+03  0.15825121390E+03  0.00000000000E+00 0.  1.
          6    2    1    2  501    0  0.76674955160E+02  0.42260032881E+02  0.18203367484E+02  0.19469050324E+03  0.17293949906E+03 0.  0.
         24    2    3    3    0    0  0.70676215341E+02 -0.53091406716E+01  0.63847534868E+02  0.12832566942E+03  0.85835047227E+02 0.  0.
         -6    2    1    2    0  502 -0.76674955160E+02 -0.42260032881E+02  0.63379725206E+02  0.20339501726E+03  0.17230085418E+03 0.  0.
        -24    2    5    5    0    0 -0.82874156664E+02 -0.18641972195E+02 -0.18382930683E+02  0.11793470607E+03  0.79718340334E+02 0.  0.
          5    1    3    3  501    0  0.59987398190E+01  0.47569173553E+02 -0.45644167383E+02  0.66364833820E+02  0.47000000000E+01 0. -1.
        -13    1    4    4    0    0  0.18578540563E+02 -0.35849973462E+02 -0.88882135089E-01  0.40378096373E+02  0.00000000000E+00 0.  1.
         14    1    4    4    0    0  0.52097674779E+02  0.30540832790E+02  0.63936417003E+02  0.87947573042E+02  0.00000000000E+00 0. -1.
         -5    1    5    5    0  502  0.61992015032E+01 -0.23618060686E+02  0.81762655890E+02  0.85460311186E+02  0.47000000000E+01 0.  1.
         13    1    6    6    0    0 -0.51301913223E+02 -0.45863519941E+02  0.69336293134E+01  0.69162301706E+02  0.00000000000E+00 0. -1.
        -14    1    6    6    0    0 -0.31572243440E+02  0.27221547746E+02 -0.25316559997E+02  0.48772404366E+02  0.00000000000E+00 0.  1.
</event>
<event>
12    1  0.8271773E-002  0.1825762E+03  0.7818608E-02  0.1165380E+00
         21   -1    0    0  501  502  0.00000000000E+00  0.00000000000E+00  0.31031071151E+03  0.31031071151E+03  0.00000000000E+00 0.  1.
         21   -1    0    0  502  503 -0.00000000000E+00 -0.00000000000E+00 -0.26113683894E+03  0.26113683894E+03  0.00000000000E+00 0.  1.
         -6    2    1    2    0  503 -0.49333519349E+02 -0.33164337979E+02 -0.19470546015E+03  0.26691627726E+03  0.17262796242E+03 0.  0.
        -24    2    3    3    0    0 -0.16595446738E+02  0.47906522405E+02 -0.85161865645E+02  0.12668020880E+03  0.78897960679E+02 0.  0.
          6    2    1    2  501    0  0.49333519349E+02  0.33164337979E+02  0.24387933272E+03  0.30453127319E+03  0.17241954058E+03 0.  0.
         24    2    5    5    0    0  0.52324014094E+02  0.48304306202E+02  0.26073669862E+03  0.28119841049E+03  0.77574555142E+02 0.  0.
          5    1    5    5  501    0 -0.29904947446E+01 -0.15139968223E+02 -0.16857365897E+02  0.23332862696E+02  0.47000000000E+01 0. -1.
        -11    1    6    6    0    0  0.47579506535E+02  0.26768543740E+02  0.25138612064E+03  0.25724569195E+03  0.00000000000E+00 0.  1.
         12    1    6    6    0    0  0.47445075588E+01  0.21535762462E+02  0.93505779775E+01  0.23952718537E+02  0.00000000000E+00 0. -1.
         -5    1    3    3    0  503 -0.32738072611E+02 -0.81070860384E+02 -0.10954359450E+03  0.14023606846E+03  0.47000000000E+01 0.  1.
         13    1    4    4    0    0 -0.39210794760E+02  0.25937383911E+02 -0.14331007801E+02  0.49148876838E+02  0.00000000000E+00 0. -1.
        -14    1    4    4    0    0  0.22615348022E+02  0.21969138494E+02 -0.70830857844E+02  0.77531331958E+02  0.00000000000E+00 0.  1.
</event>
<event>
12    1  0.8271773E-002  0.2269838E+03  0.7818608E-02  0.1128853E+00
         21   -1    0    0  503  502  0.00000000000E+00  0.00000000000E+00  0.65161797757E+03  0.65161797757E+03  0.00000000000E+00 0.  1.
         21   -1    0    0  501  503 -0.00000000000E+00 -0.00000000000E+00 -0.84170009202E+02  0.84170009202E+02  0.00000000000E+00 0. -1.
          6    2    1    2  501    0 -0.83295719187E+02 -0.12201064314E+03  0.37530047491E+03  0.43839545944E+03  0.17180034494E+03 0.  0.
         24    2    3    3    0    0 -0.20735975695E+02  0.56153172340E+01  0.16642145728E+03  0.18570070035E+03  0.79543297602E+02 0.  0.
         -6    2    1    2    0  502  0.83295719187E+02  0.12201064314E+03  0.19214749347E+03  0.29739252733E+03  0.17232783348E+03 0.  0.
        -24    2    5    5    0    0 -0.30019262758E+01  0.84375647377E+01  0.33645861775E+02  0.84106369790E+02  0.76561304616E+02 0.  0.
          5    1    3    3  501    0 -0.62559743492E+02 -0.12762596037E+03  0.20887901763E+03  0.25269475909E+03  0.47000000000E+01 0. -1.
        -13    1    4    4    0    0  0.28704618634E+02  0.32792846255E+01  0.35721905101E+02  0.45943044551E+02  0.00000000000E+00 0.  1.
         14    1    4    4    0    0 -0.49440594329E+02  0.23360326085E+01  0.13069955218E+03  0.13975765580E+03  0.00000000000E+00 0. -1.
         -5    1    5    5    0  502  0.86297645463E+02  0.11357307840E+03  0.15850163169E+03  0.21328615754E+03  0.47000000000E+01 0.  1.
         13    1    6    6    0    0 -0.29201220175E+02 -0.21424239843E+02  0.23267133699E+02  0.43047285897E+02  0.00000000000E+00 0. -1.
        -14    1    6    6    0    0  0.26199293899E+02  0.29861804581E+02  0.10378728076E+02  0.41059083893E+02  0.00000000000E+00 0.  1.
</event>
<event>
12    1  0.8271773E-002  0.1967884E+03  0.7818608E-02  0.1152728E+00
         21   -1    0    0  501  502  0.00000000000E+00  0.00000000000E+00  0.90010361108E+02  0.90010361108E+02  0.00000000000E+00 0. -1.
         21   -1    0    0  502  503 -0.00000000000E+00 -0.00000000000E+00 -0.13439306622E+04  0.13439306622E+04  0.00000000000E+00 0. -1.
         -6    2    1    2    0  503  0.37028427007E+02 -0.86758618257E+02 -0.12183599682E+04  0.12339654530E+04  0.17138134287E+03 0.  0.
        -24    2    3    3    0    0 -0.41942065585E+02 -0.36525155582E+02 -0.64435968995E+03  0.65236580636E+03  0.85372779128E+02 0.  0.
          6    2    1    2  501    0 -0.37028427007E+02  0.86758618257E+02 -0.35560332895E+02  0.19997557037E+03  0.17270648286E+03 0.  0.
         24    2    5    5    0    0 -0.58592889337E+02  0.43139459575E+02  0.36789187260E+02  0.11265890469E+03  0.77746027890E+02 0.  0.
          5    1    5    5  501    0  0.21564462330E+02  0.43619158681E+02 -0.72349520156E+02  0.87316665685E+02  0.47000000000E+01 0. -1.
        -11    1    6    6    0    0 -0.34708794615E+02 -0.13948999839E+02 -0.53544484282E+01  0.37788161349E+02  0.00000000000E+00 0.  1.
         12    1    6    6    0    0 -0.23884094721E+02  0.57088459414E+02  0.42143635689E+02  0.74870743338E+02  0.00000000000E+00 0. -1.
         -5    1    3    3    0  503  0.78970492591E+02 -0.50233462675E+02 -0.57400027828E+03  0.58159964661E+03  0.47000000000E+01 0.  1.
         13    1    4    4    0    0 -0.21535310038E+02 -0.57151637879E+02 -0.26717316891E+03  0.27406492201E+03  0.00000000000E+00 0. -1.
        -14    1    4    4    0    0 -0.20406755546E+02  0.20626482297E+02 -0.37718652104E+03  0.37830088435E+03  0.00000000000E+00 0.  1.
</event>
<event>
12    1  0.8271773E-002  0.2145502E+03  0.7818608E-02  0.1138257E+00
         21   -1    0    0  503  502  0.00000000000E+00  0.00000000000E+00  0.50109143478E+02  0.50109143478E+02  0.00000000000E+00 0.  1.
         21   -1    0    0  501  503 -0.00000000000E+00 -0.00000000000E+00 -0.14073296104E+04  0.14073296104E+04  0.00000000000E+00 0.  1.
          6    2    1    2  501    0  0.61704642486E+02  0.10985099692E+03 -0.11117062038E+04  0.11322201559E+04  0.17365797866E+03 0.  0.
         24    2    3    3    0    0 -0.23849575886E+00  0.92875861518E+02 -0.42256393062E+03  0.44007546712E+03  0.80499433337E+02 0.  0.
         -6    2    1    2    0  502 -0.61704642486E+02 -0.10985099692E+03 -0.24551426314E+03  0.32521859794E+03  0.17209061163E+03 0.  0.
        -24    2    5    5    0    0 -0.49762604059E+02 -0.16930134732E+02 -0.19979917952E+03  0.22086890804E+03  0.78105161027E+02 0.  0.
          5    1    3    3  501    0  0.61943138245E+02  0.16975135403E+02 -0.68914227313E+03  0.69214468879E+03  0.47000000000E+01 0. -1.
        -11    1    4    4    0    0  0.12551756509E+02  0.24398005103E+02 -0.28062654219E+03  0.28196465280E+03  0.00000000000E+00 0.  1.
         12    1    4    4    0    0 -0.12790252268E+02  0.68477856415E+02 -0.14193738843E+03  0.15811081432E+03  0.00000000000E+00 0. -1.
         -5    1    5    5    0  502 -0.11942038427E+02 -0.92920862189E+02 -0.45715083627E+02  0.10434968990E+03  0.47000000000E+01 0.  1.
         13    1    6    6    0    0 -0.65540288763E+02 -0.23160931038E+02 -0.18734316199E+03  0.19982346840E+03  0.00000000000E+00 0. -1.
        -14    1    6    6    0    0  0.15777684704E+02  0.62307963061E+01 -0.12456017527E+02  0.21045439645E+02  0.00000000000E+00 0.  1.
</event>
<event>
12    1  0.8271773E-002  0.1773150E+03  0.7818608E-02  0.1170448E+00
         21   -1    0    0  503  502  0.00000000000E+00  0.00000000000E+00  0.92105293377E+03  0.92105293377E+03  0.00000000000E+00 0. -1.
         21   -1    0    0  501  503 -0.00000000000E+00 -0.00000000000E+00 -0.99160557309E+02  0.99160557309E+02  0.00000000000E+00 0. -1.
          6    2    1    2  501    0  0.90084604522E+01 -0.39637616497E+02 -0.22158549752E+01  0.17724552948E+03  0.17250731784E+03 0.  0.
         24    2    3    3    0    0 -0.24799103124E+02  0.21389102571E+02 -0.40677693176E+02  0.97441928105E+02  0.82266429399E+02 0.  0.
         -6    2    1    2    0  502 -0.90084604522E+01  0.39637616497E+02  0.82410823144E+03  0.84296796160E+03  0.17259291455E+03 0.  0.
        -24    2    5    5    0    0  0.34861715108E+02 -0.30052740380E+02  0.50416743654E+03  0.51256587265E+03  0.80127793843E+02 0.  0.
          5    1    3    3  501    0  0.33807563576E+02 -0.61026719068E+02  0.38461838201E+02  0.79803601379E+02  0.47000000000E+01 0. -1.
        -13    1    4    4    0    0 -0.11171096330E+02  0.78785060673E+01  0.25285484083E+02  0.28744042102E+02  0.00000000000E+00 0.  1.
         14    1    4    4    0    0 -0.13628006794E+02  0.13510596504E+02 -0.65963177260E+02  0.68697886003E+02  0.00000000000E+00 0. -1.
         -5    1    5    5    0  502 -0.43870175560E+02  0.69690356878E+02  0.31994079489E+03  0.33040208895E+03  0.47000000000E+01 0.  1.
         11    1    6    6    0    0  0.18706918696E+02  0.23906405284E+02  0.10039914022E+03  0.10488780853E+03  0.00000000000E+00 0. -1.
        -12    1    6    6    0    0  0.16154796411E+02 -0.53959145665E+02  0.40376829633E+03  0.40767806412E+03  0.00000000000E+00 0.  1.
</event>
<event>
12    1  0.8271773E-002  0.2106000E+03  0.7818608E-02  0.1143645E+00
         21   -1    0    0  501  502  0.00000000000E+00  0.00000000000E+00  0.20839568113E+03  0.20839568113E+03  0.00000000000E+00 0. -1.
         21   -1    0    0  502  503 -0.00000000000E+00 -0.00000000000E+00 -0.33605430673E+03  0.33605430673E+03  0.00000000000E+00 0.  1.
         -6    2    1    2    0  503  0.11497120693E+03 -0.34833024978E+02 -0.23793389345E+03  0.31774974731E+03  0.17297585441E+03 0.  0.
        -24    2    3    3    0    0  0.41356921023E+01 -0.52076739885E+02 -0.86410841657E+02  0.12916771668E+03  0.80550448103E+02 0.  0.
          6    2    1    2  501    0 -0.11497120693E+03  0.34833024978E+02  0.11027526785E+03  0.22670024055E+03  0.15748220952E+03 0.  0.
         24    2    5    5    0    0 -0.73821215587E+02 -0.38345916453E+02  0.67130272185E+02  0.13219066481E+03  0.77768356285E+02 0.  0.
          5    1    5    5  501    0 -0.41149991342E+02  0.73178941431E+02  0.43144995662E+02  0.94509575743E+02  0.47000000000E+01 0. -1.
        -11    1    6    6    0    0  0.11132322082E+02 -0.21636284010E+02  0.31510802426E+01  0.24535417000E+02  0.00000000000E+00 0.  1.
         12    1    6    6    0    0 -0.84953537668E+02 -0.16709632443E+02  0.63979191943E+02  0.10765524781E+03  0.00000000000E+00 0. -1.
         -5    1    3    3    0  503  0.11083551483E+03  0.17243714907E+02 -0.15152305180E+03  0.18858203063E+03  0.47000000000E+01 0.  1.
         11    1    4    4    0    0  0.40373801077E+02 -0.40951364961E+02 -0.58988219658E+02  0.82381236723E+02  0.00000000000E+00 0. -1.
        -12    1    4    4    0    0 -0.36238108974E+02 -0.11125374924E+02 -0.27422621999E+02  0.46786479954E+02  0.00000000000E+00 0.  1.
</event>
<event>
12    1  0.8271773E-002  0.2145169E+03  0.7818608E-02  0.1138405E+00
         21   -1    0    0  503  502  0.00000000000E+00  0.00000000000E+00  0.77832016713E+02  0.77832016713E+02  0.00000000000E+00 0.  1.
         21   -1    0    0  501  503 -0.00000000000E+00 -0.00000000000E+00 -0.75810270354E+03  0.75810270354E+03  0.00000000000E+00 0.  1.
          6    2    1    2  501    0  0.10998151907E+03 -0.56441506908E+02 -0.53809557943E+03  0.57858036331E+03  0.17299365875E+03 0.  0.
         24    2    3    3    0    0  0.99262759630E+02 -0.99768489811E+02 -0.45876030058E+03  0.48743051020E+03  0.85560749643E+02 0.  0.
         -6    2    1    2    0  502 -0.10998151907E+03  0.56441506908E+02 -0.14217510740E+03  0.25735435695E+03  0.17531664392E+03 0.  0.
        -24    2    5    5    0    0 -0.35920746809E+02  0.62750288126E+02 -0.14830300892E+03  0.18262524692E+03  0.78296230111E+02 0.  0.
          5    1    3    3  501    0  0.10718759438E+02  0.43326982904E+02 -0.79335278849E+02  0.91149853107E+02  0.47000000000E+01 0. -1.
        -13    1    4    4    0    0  0.43179052118E+02 -0.42468071391E+02 -0.33172553319E+03  0.33720883292E+03  0.00000000000E+00 0.  1.
         14    1    4    4    0    0  0.56083707512E+02 -0.57300418420E+02 -0.12703476739E+03  0.15022167728E+03  0.00000000000E+00 0. -1.
         -5    1    5    5    0  502 -0.74060772259E+02 -0.63087812180E+01  0.61279015124E+01  0.74729110024E+02  0.47000000000E+01 0.  1.
         11    1    6    6    0    0  0.14488348857E+02 -0.59642083976E+01 -0.60448509637E+01  0.16793577867E+02  0.00000000000E+00 0. -1.
        -12    1    6    6    0    0 -0.50409095666E+02  0.68714496523E+02 -0.14225815795E+03  0.16583166906E+03  0.00000000000E+00 0.  1.
</event>
<event>
12    1  0.8271773E-002  0.1986112E+03  0.7818608E-02  0.1150935E+00
         21   -1    0    0  503  502  0.00000000000E+00  0.00000000000E+00  0.23457685488E+03  0.23457685488E+03  0.00000000000E+00 0. -1.
         21   -1    0    0  501  503 -0.00000000000E+00 -0.00000000000E+00 -0.18373769156E+03  0.18373769156E+03  0.00000000000E+00 0. -1.
          6    2    1    2  501    0 -0.50862950655E+02 -0.85950793178E+02 -0.35622380904E+02  0.20178047235E+03  0.17167360427E+03 0.  0.
         24    2    3    3    0    0 -0.42134910619E+02 -0.81217336929E+02 -0.86605116887E+02  0.14962768087E+03  0.80724160573E+02 0.  0.
         -6    2    1    2    0  502  0.50862950655E+02  0.85950793178E+02  0.86461544225E+02  0.21653407408E+03  0.17157164105E+03 0.  0.
        -24    2    5    5    0    0 -0.21567782765E+01 -0.19985282198E+02  0.40354084157E+02  0.89327424903E+02  0.77115974575E+02 0.  0.
          5    1    3    3  501    0 -0.87280400365E+01 -0.47334562483E+01  0.50982735983E+02  0.52152791481E+02  0.47000000000E+01 0. -1.
        -11    1    4    4    0    0 -0.47751174900E+02 -0.19441571058E+02 -0.12619984716E+02  0.53079312390E+02  0.00000000000E+00 0.  1.
         12    1    4    4    0    0  0.56162642811E+01 -0.61775765871E+02 -0.73985132171E+02  0.96548368478E+02  0.00000000000E+00 0. -1.
         -5    1    5    5    0  502  0.53019728932E+02  0.10593607538E+03  0.46107460067E+02  0.12720664918E+03  0.47000000000E+01 0.  1.
         11    1    6    6    0    0  0.29285580306E+02  0.43176848968E+01 -0.38897848546E+01  0.29856624775E+02  0.00000000000E+00 0. -1.
        -12    1    6    6    0    0 -0.31442358582E+02 -0.24302967094E+02  0.44243869012E+02  0.59470800129E+02  0.00000000000E+00 0.  1.
</event>
<event>
12    1  0.8271773E-002  0.2033452E+03  0.7818608E-02  0.1147111E+00
         21   -1    0    0  501  502  0.00000000000E+00  0.00000000000E+00  0.30423405011E+03  0.30423405011E+03  0.00000000000E+00 0. -1.
         21   -1    0    0  502  503 -0.00000000000E+00 -0.00000000000E+00 -0.20755544008E+03  0.20755544008E+03  0.00000000000E+00 0. -1.
         -6    2    1    2    0  503  0.74303296109E+02 -0.78455717744E+02 -0.10261771289E+03  0.22706452207E+03  0.17132315291E+03 0.  0.
        -24    2    3    3    0    0  0.38254766030E+02 -0.29880925969E+02 -0.13056412995E+03  0.16026557639E+03  0.79257593233E+02 0.  0.
          6    2    1    2  501    0 -0.74303296109E+02  0.78455717744E+02  0.19929632292E+03  0.28472496811E+03  0.17225853732E+03 0.  0.
         24    2    5    5    0    0 -0.66005384311E+02  0.24103601042E+02  0.20333535300E+03  0.22939494286E+03  0.79618337645E+02 0.  0.
          5    1    5    5  501    0 -0.82979117974E+01  0.54352116703E+02 -0.40390300862E+01  0.55330025251E+02  0.47000000000E+01 0. -1.
        -11    1    6    6    0    0 -0.49590618182E+02 -0.20707390420E+02  0.73379962279E+02  0.90954077939E+02  0.00000000000E+00 0.  1.
         12    1    6    6    0    0 -0.16414766129E+02  0.44810991462E+02  0.12995539072E+03  0.13844086492E+03  0.00000000000E+00 0. -1.
         -5    1    3    3    0  503  0.36048530079E+02 -0.48574791775E+02  0.27946417065E+02  0.66798945677E+02  0.47000000000E+01 0.  1.
         13    1    4    4    0    0  0.29783016110E+01  0.20117523301E+02 -0.55518183946E+01  0.21080979857E+02  0.00000000000E+00 0. -1.
        -14    1    4    4    0    0  0.35276464418E+02 -0.49998449271E+02 -0.12501231156E+03  0.13918459653E+03  0.00000000000E+00 0.  1.
</event>
<event>
12    1  0.8271773E-002  0.2114896E+03  0.7818608E-02  0.1141321E+00
         21   -1    0    0  503  502  0.00000000000E+00  0.00000000000E+00  0.62103082695E+02  0.62103082695E+02  0.00000000000E+00 0.  1.
         21   -1    0    0  501  503 -0.00000000000E+00 -0.00000000000E+00 -0.71633147260E+03  0.71633147260E+03  0.00000000000E+00 0.  1.
          6    2    1    2  501    0  0.60336031225E+02  0.10320431298E+03 -0.38099355161E+03  0.43575673987E+03  0.17445997561E+03 0.  0.
         24    2    3    3    0    0 -0.80312775266E+01  0.11109528526E+03 -0.20202348629E+03  0.24395285401E+03  0.79327436250E+02 0.  0.
         -6    2    1    2    0  502 -0.60336031225E+02 -0.10320431298E+03 -0.27323483830E+03  0.34267781543E+03  0.16875793743E+03 0.  0.
        -24    2    5    5    0    0 -0.59741527008E+02 -0.62818035391E+01 -0.89042734607E+02  0.13448764435E+03  0.80930876627E+02 0.  0.
          5    1    3    3  501    0  0.68367308751E+02 -0.78909722790E+01 -0.17897006532E+03  0.19180388586E+03  0.47000000000E+01 0. -1.
        -13    1    4    4    0    0  0.28949062123E+02  0.60548053910E+02 -0.14266640771E+03  0.15766362586E+03  0.00000000000E+00 0.  1.
         14    1    4    4    0    0 -0.36980339650E+02  0.50547231348E+02 -0.59357078581E+02  0.86289228152E+02  0.00000000000E+00 0. -1.
         -5    1    5    5    0  502 -0.59450421636E+00 -0.96922509440E+02 -0.18419210369E+03  0.20819017108E+03  0.47000000000E+01 0.  1.
         11    1    6    6    0    0  0.96292272008E+01  0.18105378675E+02 -0.43241002624E+02  0.47857194458E+02  0.00000000000E+00 0. -1.
        -12    1    6    6    0    0 -0.69370754209E+02 -0.24387182214E+02 -0.45801731982E+02  0.86630449892E+02  0.00000000000E+00 0.  1.
</event>
<event>
12    1  0.8271773E-002  0.2155407E+03  0.7818608E-02  0.1137537E+00
         21   -1    0    0  503  502  0.00000000000E+00  0.00000000000E+00  0.46103866346E+03  0.46103866346E+03  0.00000000000E+00 0.  1.
         21   -1    0    0  501  503 -0.00000000000E+00 -0.00000000000E+00 -0.14627103257E+03  0.14627103257E+03  0.00000000000E+00 0.  1.
          6    2    1    2  501    0  0.72548417772E+02  0.10132852949E+03 -0.12891780675E+02  0.21592584505E+03  0.17586082208E+03 0.  0.
         24    2    3    3    0    0 -0.30069721659E+02  0.39617595771E+02 -0.20093043160E+02  0.95873064736E+02  0.79461765039E+02 0.  0.
         -6    2    1    2    0  502 -0.72548417772E+02 -0.10132852949E+03  0.32765941156E+03  0.39138385098E+03  0.17403989489E+03 0.  0.
        -24    2    5    5    0    0 -0.28968907269E+01 -0.33595497554E+02  0.25646300647E+03  0.27084291630E+03  0.80284258677E+02 0.  0.
          5    1    3    3  501    0  0.10261813943E+03  0.61710933716E+02  0.72012624851E+01  0.12005278032E+03  0.47000000000E+01 0. -1.
        -13    1    4    4    0    0  0.49706536602E+01  0.40083479182E+02  0.17906262076E+02  0.44181748751E+02  0.00000000000E+00 0.  1.
         14    1    4    4    0    0 -0.35040375320E+02 -0.46588341077E+00 -0.37999305236E+02  0.51691315986E+02  0.00000000000E+00 0. -1.
         -5    1    5    5    0  502 -0.69651527045E+02 -0.67733031933E+02  0.71196405091E+02  0.12054093468E+03  0.47000000000E+01 0.  1.
         11    1    6    6    0    0 -0.24598255896E+02  0.14894221943E+02  0.13873384150E+03  0.14168271178E+03  0.00000000000E+00 0. -1.
        -12    1    6    6    0    0  0.21701365169E+02 -0.48489719498E+02  0.11772916498E+03  0.12916020453E+03  0.00000000000E+00 0.  1.
</event>
<event>
12    1  0.8271773E-002  0.1774748E+03  0.7818608E-02  0.1170343E+00
         21   -1    0    0  503  502  0.00000000000E+00  0.00000000000E+00  0.93982407815E+02  0.93982407815E+02  0.00000000000E+00 0.  1.
         21   -1    0    0  501  503 -0.00000000000E+00 -0.00000000000E+00 -0.47256848272E+03  0.47256848272E+03  0.00000000000E+00 0.  1.
          6    2    1    2  501    0  0.38429774755E+02  0.24965058699E+02 -0.34248038002E+03  0.38573321324E+03  0.17145611495E+03 0.  0.
         24    2    3    3    0    0  0.56916646565E+02 -0.35803449756E+02 -0.14997711336E+03  0.18296691001E+03  0.80388829803E+02 0.  0.
         -6    2    1    2    0  502 -0.38429774755E+02 -0.24965058699E+02 -0.36105694888E+02  0.18081767730E+03  0.17114704051E+03 0.  0.
        -24    2    5    5    0    0  0.23474657680E+02 -0.57701950067E+02  0.36242903455E+01  0.10016766466E+03  0.78357201127E+02 0.  0.
          5    1    3    3  501    0 -0.18486871810E+02  0.60768508455E+02 -0.19250326666E+03  0.20276630323E+03  0.47000000000E+01 0. -1.
        -13    1    4    4    0    0  0.50091590653E+02 -0.24236786417E+02 -0.15786917555E+03  0.16738956317E+03  0.00000000000E+00 0.  1.
         14    1    4    4    0    0  0.68250559122E+01 -0.11566663339E+02  0.78920621903E+01  0.15577346841E+02  0.00000000000E+00 0. -1.
         -5    1    5    5    0  502 -0.61904432436E+02  0.32736891368E+02 -0.39729985234E+02  0.80650012637E+02  0.47000000000E+01 0.  1.
         13    1    6    6    0    0 -0.38313393183E+01  0.14267768812E+02 -0.14912766863E+02  0.20991403082E+02  0.00000000000E+00 0. -1.
        -14    1    6    6    0    0  0.27305996999E+02 -0.71969718880E+02  0.18537057209E+02  0.79176261579E+02  0.00000000000E+00 0.  1.
</event>
<event>
12    1  0.8271773E-002  0.1830890E+03  0.7818608E-02  0.1165634E+00
         21   -1    0    0  503  502  0.00000000000E+00  0.00000000000E+00  0.65564953694E+03  0.65564953694E+03  0.00000000000E+00 0.  1.
         21   -1    0    0  501  503 -0.00000000000E+00 -0.00000000000E+00 -0.21618996467E+03  0.21618996467E+03  0.00000000000E+00 0.  1.
          6    2    1    2  501    0  0.13891808987E+02 -0.62237837534E+02 -0.16176077346E+03  0.24431155230E+03  0.17162475340E+03 0.  0.
         24    2    3    3    0    0  0.21440224110E+02 -0.10769709907E+03 -0.13488377814E+03  0.19075797252E+03  0.78336594999E+02 0.  0.
         -6    2    1    2    0  502 -0.13891808987E+02  0.62237837534E+02  0.60122034572E+03  0.62752794931E+03  0.16810381400E+03 0.  0.
        -24    2    5    5    0    0 -0.58120110534E+01 -0.25856313506E+02  0.38586214598E+03  0.39466080526E+03  0.78518960065E+02 0.  0.
          5    1    3    3  501    0 -0.75484151231E+01  0.45459261533E+02 -0.26876995311E+02  0.53553579777E+02  0.47000000000E+01 0. -1.
        -13    1    4    4    0    0 -0.18088981090E+02 -0.24653036291E+02 -0.75038894523E+02  0.81029742233E+02  0.00000000000E+00 0.  1.
         14    1    4    4    0    0  0.39529205199E+02 -0.83044062776E+02 -0.59844883622E+02  0.10972823029E+03  0.00000000000E+00 0. -1.
         -5    1    5    5    0  502 -0.80797979331E+01  0.88094151039E+02  0.21535819974E+03  0.23286714405E+03  0.47000000000E+01 0.  1.
         11    1    6    6    0    0 -0.22489238879E+02 -0.31130811674E+01  0.29699911926E+02  0.37383711803E+02  0.00000000000E+00 0. -1.
        -12    1    6    6    0    0  0.16677227825E+02 -0.22743232338E+02  0.35616223405E+03  0.35727709346E+03  0.00000000000E+00 0.  1.
</event>
<event>
12    1  0.8271773E-002  0.1874155E+03  0.7818608E-02  0.1161701E+00
         21   -1    0    0  501  502  0.00000000000E+00  0.00000000000E+00  0.13317929894E+03  0.13317929894E+03  0.00000000000E+00 0.  1.
         21   -1    0    0  502  503 -0.00000000000E+00 -0.00000000000E+00 -0.46364346799E+03  0.46364346799E+03  0.00000000000E+00 0.  1.
         -6    2    1    2    0  503  0.62998498547E+02 -0.12492428024E+02 -0.36282847989E+03  0.40663338348E+03  0.17199224157E+03 0.  0.
        -24    2    3    3    0    0 -0.16180481988E+02  0.35734039599E+02 -0.17006224036E+03  0.19268007960E+03  0.81643847860E+02 0.  0.
          6    2    1    2  501    0 -0.62998498547E+02  0.12492428024E+02  0.32364310849E+02  0.19018938345E+03  0.17606726380E+03 0.  0.
         24    2    5    5    0    0 -0.70918341692E+02 -0.52652955571E+02  0.58326322262E+01  0.11924810569E+03  0.79902103815E+02 0.  0.
          5    1    5    5  501    0  0.79198431448E+01  0.65145383596E+02  0.26531678623E+02  0.70941277757E+02  0.47000000000E+01 0. -1.
        -11    1    6    6    0    0 -0.17633879044E+02 -0.34839469706E+02 -0.32856487392E+02  0.51032255518E+02  0.00000000000E+00 0.  1.
         12    1    6    6    0    0 -0.53284462647E+02 -0.17813485866E+02  0.38689119618E+02  0.68215850175E+02  0.00000000000E+00 0. -1.
         -5    1    3    3    0  503  0.79178980535E+02 -0.48226467623E+02 -0.19276623953E+03  0.21395330388E+03  0.47000000000E+01 0.  1.
         11    1    4    4    0    0 -0.25979835843E+02  0.47688921341E+02 -0.16862664150E+03  0.17715566407E+03  0.00000000000E+00 0. -1.
        -12    1    4    4    0    0  0.97993538550E+01 -0.11954881743E+02 -0.14355988665E+01  0.15524415530E+02  0.00000000000E+00 0.  1.
</event>
<event>
12    1  0.8271773E-002  0.1817504E+03  0.7818608E-02  0.1166492E+00
         21   -1    0    0  503  502  0.00000000000E+00  0.00000000000E+00  0.17814068960E+04  0.17814068960E+04  0.00000000000E+00 0. -1.
         21   -1    0    0  501  503 -0.00000000000E+00 -0.00000000000E+00 -0.19529268544E+02  0.19529268544E+02  0.00000000000E+00 0. -1.
          6    2    1    2  501    0  0.31412587358E+01  0.57892016893E+02  0.66657707810E+03  0.69091115421E+03  0.17225524328E+03 0.  0.
         24    2    3    3    0    0 -0.13281896020E+02 -0.31177436054E+02  0.26351745366E+03  0.27777408456E+03  0.81046606297E+02 0.  0.
         -6    2    1    2    0  502 -0.31412587358E+01 -0.57892016893E+02  0.10953005494E+04  0.11100250104E+04  0.17061909923E+03 0.  0.
        -24    2    5    5    0    0 -0.27050289611E+02 -0.18455377638E+02  0.22021518145E+03  0.23371263372E+03  0.71095357726E+02 0.  0.
          5    1    3    3  501    0  0.16423154756E+02  0.89069452947E+02  0.40305962444E+03  0.41313706965E+03  0.47000000000E+01 0. -1.
        -13    1    4    4    0    0  0.23141730894E+02  0.12836282112E+02  0.12799237881E+03  0.13069949840E+03  0.00000000000E+00 0.  1.
         14    1    4    4    0    0 -0.36423626914E+02 -0.44013718166E+02  0.13552507485E+03  0.14707458617E+03  0.00000000000E+00 0. -1.
         -5    1    5    5    0  502  0.23909030876E+02 -0.39436639255E+02  0.87508536796E+03  0.87631237666E+03  0.47000000000E+01 0.  1.
         13    1    6    6    0    0 -0.29657771861E+01 -0.36285375998E+02  0.17952251102E+03  0.18317684436E+03  0.00000000000E+00 0. -1.
        -14    1    6    6    0    0 -0.24084512425E+02  0.17829998360E+02  0.40692670423E+02  0.50535789362E+02  0.00000000000E+00 0.  1.
</event>
<event>
12    1  0.8271773E-002  0.2009751E+03  0.7818608E-02  0.1148986E+00
         21   -1    0    0  501  502  0.00000000000E+00  0.00000000000E+00  0.79240948845E+02  0.79240948845E+02  0.00000000000E+00 0. -1.
         21   -1    0    0  502  503 -0.00000000000E+00 -0.00000000000E+00 -0.51793985948E+03  0.51793985948E+03  0.00000000000E+00 0. -1.
         -6    2    1    2    0  503 -0.27496457988E+02  0.99872545001E+02 -0.25892764627E+03  0.32777204852E+03  0.17222197694E+03 0.  0.
        -24    2    3    3    0    0  0.13871804526E+02  0.64261701353E+02 -0.25219779222E+03  0.27257380340E+03  0.79817032496E+02 0.  0.
          6    2    1    2  501    0  0.27496457988E+02 -0.99872545001E+02 -0.17977126436E+03  0.26940875980E+03  0.17185107483E+03 0.  0.
         24    2    5    5    0    0 -0.22629023523E+02 -0.75797262323E+01 -0.12986110311E+03  0.15303160358E+03  0.77364337007E+02 0.  0.
          5    1    5    5  501    0  0.50125481510E+02 -0.92292818769E+02 -0.49910161254E+02  0.11637715622E+03  0.47000000000E+01 0. -1.
        -13    1    6    6    0    0  0.66223924751E+01  0.30187946008E+02 -0.69440979949E+02  0.76008011831E+02  0.00000000000E+00 0.  1.
         14    1    6    6    0    0 -0.29251415998E+02 -0.37767672240E+02 -0.60420123157E+02  0.77023591753E+02  0.00000000000E+00 0. -1.
         -5    1    3    3    0  503 -0.41368262514E+02  0.35610843649E+02 -0.67298540492E+01  0.55198245120E+02  0.47000000000E+01 0.  1.
         13    1    4    4    0    0 -0.10799679037E+02  0.68638207999E+02 -0.12576972733E+03  0.14368667641E+03  0.00000000000E+00 0. -1.
        -14    1    4    4    0    0  0.24671483563E+02 -0.43765066463E+01 -0.12642806489E+03  0.12888712699E+03  0.00000000000E+00 0.  1.
</event>
<event>
12    1  0.8271773E-002  0.1730286E+03  0.7818608E-02  0.1174932E+00
         21   -1    0    0  501  502  0.00000000000E+00  0.00000000000E+00  0.52718428939E+03  0.52718428939E+03  0.00000000000E+00 0.  1.
         21   -1    0    0  502  503 -0.00000000000E+00 -0.00000000000E+00 -0.65201383539E+03  0.65201383539E+03  0.00000000000E+00 0.  1.
         -6    2    1    2    0  503  0.11883983289E+02 -0.13845194550E+01 -0.62586436267E+03  0.64912756412E+03  0.17180584413E+03 0.  0.
        -24    2    3    3    0    0 -0.31751045984E+02 -0.40676502642E+02 -0.22649751993E+03  0.24543976295E+03  0.79226535434E+02 0.  0.
          6    2    1    2  501    0 -0.11883983289E+02  0.13845194550E+01  0.50103481668E+03  0.53007056066E+03  0.17261450055E+03 0.  0.
         24    2    5    5    0    0 -0.40200305645E+02 -0.59911617772E+01  0.49088547670E+03  0.49874463070E+03  0.78266830959E+02 0.  0.
          5    1    5    5  501    0  0.28316322356E+02  0.73756812322E+01  0.10149339979E+02  0.31325929953E+02  0.47000000000E+01 0. -1.
        -13    1    6    6    0    0 -0.36466333202E+02 -0.28156926973E+02  0.14530928901E+03  0.15243816932E+03  0.00000000000E+00 0.  1.
         14    1    6    6    0    0 -0.37339724439E+01  0.22165765195E+02  0.34557618769E+03  0.34630646138E+03  0.00000000000E+00 0. -1.
         -5    1    3    3    0  503  0.43635029273E+02  0.39291983187E+02 -0.39936684275E+03  0.40368780116E+03  0.47000000000E+01 0.  1.
         11    1    4    4    0    0 -0.55672306809E+02 -0.22136494474E+02 -0.18214491000E+03  0.19174513911E+03  0.00000000000E+00 0. -1.
        -12    1    4    4    0    0  0.23921260825E+02 -0.18540008168E+02 -0.44352609923E+02  0.53694623840E+02  0.00000000000E+00 0.  1.
</event>
<event>
12    1  0.8271773E-002  0.2766492E+03  0.7818608E-02  0.1097949E+00
         21   -1    0    0  503  502  0.00000000000E+00  0.00000000000E+00  0.21800286521E+03  0.21800286521E+03  0.00000000000E+00 0.  1.
         21   -1    0    0  501  503 -0.00000000000E+00 -0.00000000000E+00 -0.35241026431E+03  0.35241026431E+03  0.00000000000E+00 0. -1.
          6    2    1    2  501    0 -0.47920925842E+02  0.21090463130E+03 -0.32516390862E+02  0.27559696606E+03  0.16768778545E+03 0.  0.
         24    2    3    3    0    0 -0.65316496777E+02  0.76914613151E+02  0.19781468495E+02  0.13063805138E+03  0.80578480413E+02 0.  0.
         -6    2    1    2    0  502  0.47920925842E+02 -0.21090463130E+03 -0.10189100824E+03  0.29481616347E+03  0.17250395371E+03 0.  0.
        -24    2    5    5    0    0  0.68569598530E+02 -0.21288408645E+03 -0.11936240740E+03  0.26729116183E+03  0.84709838782E+02 0.  0.
          5    1    3    3  501    0  0.17395570935E+02  0.13399001814E+03 -0.52297859357E+02  0.14495891468E+03  0.47000000000E+01 0. -1.
        -13    1    4    4    0    0 -0.63895063554E+02  0.92995089553E+02  0.15144372849E+02  0.11384207419E+03  0.00000000000E+00 0.  1.
         14    1    4    4    0    0 -0.14214332236E+01 -0.16080476402E+02  0.46370956457E+01  0.16795977190E+02  0.00000000000E+00 0. -1.
         -5    1    5    5    0  502 -0.20648672688E+02  0.19794551545E+01  0.17471399159E+02  0.27525001636E+02  0.47000000000E+01 0.  1.
         11    1    6    6    0    0 -0.11809490397E+02 -0.87220648248E+02 -0.61101375591E+02  0.10714608553E+03  0.00000000000E+00 0. -1.
        -12    1    6    6    0    0  0.80379088927E+02 -0.12566343820E+03 -0.58261031805E+02  0.16014507630E+03  0.00000000000E+00 0.  1.
</event>
<event>
12    1  0.8271773E-002  0.1814887E+03  0.7818608E-02  0.1166435E+00
         21   -1    0    0  501  502  0.00000000000E+00  0.00000000000E+00  0.59437185942E+02  0.59437185942E+02  0.00000000000E+00 0. -1.
         21   -1    0    0  502  503 -0.00000000000E+00 -0.00000000000E+00 -0.72668701557E+03  0.72668701557E+03  0.00000000000E+00 0. -1.
         -6    2    1    2    0  503  0.29217015441E+02 -0.48526564991E+02 -0.52541267737E+03  0.55578544455E+03  0.17213517167E+03 0.  0.
        -24    2    3    3    0    0  0.16718972698E+02 -0.17003264840E+02 -0.51289826049E+03  0.51933520237E+03  0.77947365242E+02 0.  0.
          6    2    1    2  501    0 -0.29217015441E+02  0.48526564991E+02 -0.14183715226E+03  0.23033875697E+03  0.17242303703E+03 0.  0.
         24    2    5    5    0    0 -0.47126135938E+02  0.35043752745E+02 -0.16830866321E+03  0.19533370426E+03  0.79865590941E+02 0.  0.
          5    1    5    5  501    0  0.17909120497E+02  0.13482812245E+02  0.26471510946E+02  0.35005052704E+02  0.47000000000E+01 0. -1.
        -13    1    6    6    0    0  0.13217111755E+02 -0.14793426423E+02 -0.46435158991E+02  0.50495163125E+02  0.00000000000E+00 0.  1.
         14    1    6    6    0    0 -0.60343247693E+02  0.49837179169E+02 -0.12187350421E+03  0.14483854114E+03  0.00000000000E+00 0. -1.
         -5    1    3    3    0  503  0.12498042743E+02 -0.31523300151E+02 -0.12514416886E+02  0.36450242177E+02  0.47000000000E+01 0.  1.
         11    1    4    4    0    0  0.47509849410E+02 -0.17639304527E+02 -0.32657677921E+03  0.33048558755E+03  0.00000000000E+00 0. -1.
        -12    1    4    4    0    0 -0.30790876711E+02  0.63603968769E+00 -0.18632148128E+03  0.18884961483E+03  0.00000000000E+00 0.  1.
</event>
<event>
12    1  0.8271773E-002  0.1876827E+03  0.7818608E-02  0.1161677E+00
         21   -1    0    0  503  502  0.00000000000E+00  0.00000000000E+00  0.49562626642E+03  0.49562626642E+03  0.00000000000E+00 0. -1.
         21   -1    0    0  501  503 -0.00000000000E+00 -0.00000000000E+00 -0.25688946464E+03  0.25688946464E+03  0.00000000000E+00 0. -1.
          6    2    1    2  501    0  0.54938870743E+02  0.31570556356E+02 -0.20258683314E+03  0.27294159927E+03  0.17158295983E+03 0.  0.
         24    2    3    3    0    0 -0.20822493031E+02  0.60266610570E+02 -0.10097861905E+03  0.14290480856E+03  0.78482241547E+02 0.  0.
         -6    2    1    2    0  502 -0.54938870743E+02 -0.31570556356E+02  0.44132363492E+03  0.47957413178E+03  0.17666300572E+03 0.  0.
        -24    2    5    5    0    0 -0.82165439522E+02 -0.29377298126E+02  0.16998007363E+03  0.20681871995E+03  0.79161685141E+02 0.  0.
          5    1    3    3  501    0  0.75761363773E+02 -0.28696054214E+02 -0.10160821409E+03  0.13003679071E+03  0.47000000000E+01 0. -1.
        -11    1    4    4    0    0 -0.17737345856E+02 -0.15123126562E+02 -0.11919448549E+02  0.26180062046E+02  0.00000000000E+00 0.  1.
         12    1    4    4    0    0 -0.30851471752E+01  0.75389737132E+02 -0.89059170506E+02  0.11672474652E+03  0.00000000000E+00 0. -1.
         -5    1    5    5    0  502  0.27226568779E+02 -0.21932582301E+01  0.27134356129E+03  0.27275541183E+03  0.47000000000E+01 0.  1.
         11    1    6    6    0    0 -0.70297403804E+02 -0.97759129459E+01  0.16965464001E+03  0.18390212161E+03  0.00000000000E+00 0. -1.
        -12    1    6    6    0    0 -0.11868035718E+02 -0.19601385180E+02  0.32543362508E+00  0.22916598347E+02  0.00000000000E+00 0.  1.
</event>
<event>
12    1  0.8271773E-002  0.3234436E+03  0.7818608E-02  0.1074278E+00
         21   -1    0    0  503  502  0.00000000000E+00  0.00000000000E+00  0.39128726869E+03  0.39128726869E+03  0.00000000000E+00 0.  1.
         21   -1    0    0  501  503 -0.00000000000E+00 -0.00000000000E+00 -0.39562050232E+03  0.39562050232E+03  0.00000000000E+00 0.  1.
          6    2    1    2  501    0  0.27245191857E+03 -0.20128796680E+02 -0.22746508339E+03  0.39396554883E+03  0.16980363103E+03 0.  0.
         24    2    3    3    0    0  0.76520856607E+02  0.36243034447E+02 -0.10011681196E+03  0.15353585719E+03  0.79880437924E+02 0.  0.
         -6    2    1    2    0  502 -0.27245191857E+03  0.20128796680E+02  0.22313184976E+03  0.39294222218E+03  0.17314892783E+03 0.  0.
        -24    2    5    5    0    0 -0.14861490859E+03 -0.52962118473E+02  0.93842673474E+02  0.19951092166E+03  0.78145911259E+02 0.  0.
          5    1    3    3  501    0  0.19593106196E+03 -0.56371831127E+02 -0.12734827143E+03  0.24042969164E+03  0.47000000000E+01 0. -1.
        -13    1    4    4    0    0  0.83932079333E+02  0.68048072121E+01 -0.84902589195E+02  0.11957988541E+03  0.00000000000E+00 0.  1.
         14    1    4    4    0    0 -0.74112227253E+01  0.29438227235E+02 -0.15214222765E+02  0.33955971777E+02  0.00000000000E+00 0. -1.
         -5    1    5    5    0  502 -0.12383700998E+03  0.73090915153E+02  0.12928917629E+03  0.19343130053E+03  0.47000000000E+01 0.  1.
         13    1    6    6    0    0 -0.11491610456E+03 -0.43071413289E+02  0.10618597709E+03  0.16228468647E+03  0.00000000000E+00 0. -1.
        -14    1    6    6    0    0 -0.33698804028E+02 -0.98907051838E+01 -0.12343303620E+02  0.37226235187E+02  0.00000000000E+00 0.  1.
</event>
<event>
12    1  0.8271773E-002  0.2348917E+03  0.7818608E-02  0.1123573E+00
         21   -1    0    0  503  502  0.00000000000E+00  0.00000000000E+00  0.14786066988E+04  0.14786066988E+04  0.00000000000E+00 0. -1.
         21   -1    0    0  501  503 -0.00000000000E+00 -0.00000000000E+00 -0.48209073263E+02  0.48209073263E+02  0.00000000000E+00 0.  1.
          6    2    1    2  501    0 -0.14419877758E+02  0.15671104104E+03  0.34502889231E+03  0.41632065612E+03  0.17178960657E+03 0.  0.
         24    2    3    3    0    0 -0.23881624151E+02  0.48140893929E+02  0.68322329682E+02  0.11888896095E+03  0.81109596613E+02 0.  0.
         -6    2    1    2    0  502  0.14419877758E+02 -0.15671104104E+03  0.10853687332E+04  0.11104951159E+04  0.17437841669E+03 0.  0.
        -24    2    5    5    0    0 -0.47383362246E+02 -0.10876846119E+03  0.51692934503E+03  0.53668019849E+03  0.82060505306E+02 0.  0.
          5    1    3    3  501    0  0.94617463930E+01  0.10857014711E+03  0.27670656263E+03  0.29743169517E+03  0.47000000000E+01 0. -1.
        -13    1    4    4    0    0  0.14937086215E+02  0.52758374637E+02  0.24185792268E+02  0.59929251510E+02  0.00000000000E+00 0.  1.
         14    1    4    4    0    0 -0.38818710366E+02 -0.46174807077E+01  0.44136537414E+02  0.58959709442E+02  0.00000000000E+00 0. -1.
         -5    1    5    5    0  502  0.61803240004E+02 -0.47942579847E+02  0.56843938818E+03  0.57381491743E+03  0.47000000000E+01 0.  1.
         13    1    6    6    0    0 -0.27048109610E+02  0.51700648636E+01  0.12620042599E+03  0.12916995519E+03  0.00000000000E+00 0. -1.
        -14    1    6    6    0    0 -0.20335252636E+02 -0.11393852606E+03  0.39072891905E+03  0.40751024330E+03  0.00000000000E+00 0.  1.
</event>
<event>
12    1  0.8271773E-002  0.2380889E+03  0.7818608E-02  0.1121090E+00
         21   -1    0    0  503  502  0.00000000000E+00  0.00000000000E+00  0.47172801162E+03  0.47172801162E+03  0.00000000000E+00 0. -1.
         21   -1    0    0  501  503 -0.00000000000E+00 -0.00000000000E+00 -0.66585378126E+03  0.66585378126E+03  0.00000000000E+00 0.  1.
          6    2    1    2  501    0  0.30881015024E+02 -0.16132102476E+03 -0.61199846931E+03  0.65664111258E+03  0.17221299072E+03 0.  0.
         24    2    3    3    0    0 -0.44021168153E+02 -0.59484731226E+02 -0.22986318516E+03  0.25411107256E+03  0.79114201071E+02 0.  0.
         -6    2    1    2    0  502 -0.30881015024E+02  0.16132102476E+03  0.41787269966E+03  0.48094068030E+03  0.17236076913E+03 0.  0.
        -24    2    5    5    0    0  0.18828388787E+02  0.56130612659E+02  0.29642072966E+03  0.31268873042E+03  0.80023991752E+02 0.  0.
          5    1    3    3  501    0  0.74902183178E+02 -0.10183629353E+03 -0.38213528414E+03  0.40253004001E+03  0.47000000000E+01 0. -1.
        -11    1    4    4    0    0  0.43389872798E+01 -0.33575017677E+02 -0.25150684279E+02  0.42174228414E+02  0.00000000000E+00 0.  1.
         12    1    4    4    0    0 -0.48360155433E+02 -0.25909713549E+02 -0.20471250088E+03  0.21193684415E+03  0.00000000000E+00 0. -1.
         -5    1    5    5    0  502 -0.49709403811E+02  0.10519041210E+03  0.12145197000E+03  0.16825194989E+03  0.47000000000E+01 0.  1.
         13    1    6    6    0    0  0.33428801745E+02  0.48032953311E+02  0.10233297103E+03  0.11788420738E+03  0.00000000000E+00 0. -1.
        -14    1    6    6    0    0 -0.14600412958E+02  0.80976593482E+01  0.19408775863E+03  0.19480452304E+03  0.00000000000E+00 0.  1.
</event>
<event>
12    1  0.8271773E-002  0.2173850E+03  0.7818608E-02  0.1136575E+00
         21   -1    0    0  501  502  0.00000000000E+00  0.00000000000E+00  0.95064709917E+03  0.95064709917E+03  0.00000000000E+00 0. -1.
         21   -1    0    0  502  503 -0.00000000000E+00 -0.00000000000E+00 -0.80750394393E+02  0.80750394393E+02  0.00000000000E+00 0. -1.
         -6    2    1    2    0  503  0.10965087409E+03 -0.53085287302E+02  0.10846797522E+03  0.23954527282E+03  0.17542882935E+03 0.  0.
        -24    2    3    3    0    0 -0.20503350525E+01 -0.23655839647E+02 -0.26938756877E+01  0.79163541908E+02  0.75470568953E+02 0.  0.
          6    2    1    2  501    0 -0.10965087409E+03  0.53085287302E+02  0.76142872956E+03  0.79185222074E+03  0.18004129353E+03 0.  0.
         24    2    5    5    0    0 -0.13889529938E+03  0.43223077598E+02  0.71810722442E+03  0.73845425825E+03  0.92068274301E+02 0.  0.
          5    1    5    5  501    0  0.29244425292E+02  0.98622097047E+01  0.43321505143E+02  0.53397962497E+02  0.47000000000E+01 0. -1.
        -13    1    6    6    0    0 -0.41255041997E+02 -0.28058390517E+02  0.16980743853E+03  0.17698536083E+03  0.00000000000E+00 0.  1.
         14    1    6    6    0    0 -0.97640257388E+02  0.71281468114E+02  0.54829978589E+03  0.56146889742E+03  0.00000000000E+00 0. -1.
         -5    1    3    3    0  503  0.11170120915E+03 -0.29429447656E+02  0.11116185090E+03  0.16038173091E+03  0.47000000000E+01 0.  1.
         11    1    4    4    0    0  0.19300674096E+02 -0.87542513934E+01 -0.32993420329E+02  0.39213756808E+02  0.00000000000E+00 0. -1.
        -12    1    4    4    0    0 -0.21351009148E+02 -0.14901588253E+02  0.30299544641E+02  0.39949785100E+02  0.00000000000E+00 0.  1.
</event>
<event>
12    1  0.8271773E-002  0.1963343E+03  0.7818608E-02  0.1155986E+00
         21   -1    0    0  501  502  0.00000000000E+00  0.00000000000E+00  0.12577724911E+03  0.12577724911E+03  0.00000000000E+00 0. -1.
         21   -1    0    0  502  503 -0.00000000000E+00 -0.00000000000E+00 -0.29105271643E+03  0.29105271643E+03  0.00000000000E+00 0. -1.
         -6    2    1    2    0  503  0.29195106582E+02  0.49299017533E+02 -0.56076491357E+02  0.20418551980E+03  0.18778819514E+03 0.  0.
        -24    2    3    3    0    0  0.21003684630E+02  0.99466642063E+02 -0.30060135756E+01  0.13054819531E+03  0.81847587203E+02 0.  0.
          6    2    1    2  501    0 -0.29195106582E+02 -0.49299017533E+02 -0.10919897597E+03  0.21264444574E+03  0.17323537911E+03 0.  0.
         24    2    5    5    0    0 -0.44182972233E+02  0.25571557080E+02 -0.96917555165E+02  0.13516436858E+03  0.79185569823E+02 0.  0.
          5    1    5    5  501    0  0.14987865651E+02 -0.74870574613E+02 -0.12281420804E+02  0.77480077159E+02  0.47000000000E+01 0. -1.
        -11    1    6    6    0    0  0.13774663780E+02  0.31686150667E+02 -0.25261857377E+02  0.42800875511E+02  0.00000000000E+00 0.  1.
         12    1    6    6    0    0 -0.57957636013E+02 -0.61145935863E+01 -0.71655697787E+02  0.92363493071E+02  0.00000000000E+00 0. -1.
         -5    1    3    3    0  503  0.81914219527E+01 -0.50167624530E+02 -0.53070477782E+02  0.73637324480E+02  0.47000000000E+01 0.  1.
         13    1    4    4    0    0  0.17881770648E+02 -0.41766637954E+01 -0.18077636464E+02  0.25768259198E+02  0.00000000000E+00 0. -1.
        -14    1    4    4    0    0  0.31219139820E+01  0.10364330586E+03  0.15071622888E+02  0.10477993612E+03  0.00000000000E+00 0.  1.
</event>
<event>
12    1  0.8271773E-002  0.1957395E+03  0.7818608E-02  0.1153482E+00
         21   -1    0    0  501  502  0.00000000000E+00  0.00000000000E+00  0.46436291816E+03  0.46436291816E+03  0.00000000000E+00 0. -1.
         21   -1    0    0  502  503 -0.00000000000E+00 -0.00000000000E+00 -0.14035054117E+03  0.14035054117E+03  0.00000000000E+00 0. -1.
         -6    2    1    2    0  503 -0.13356767910E+02 -0.91236734687E+02 -0.32526542116E+02  0.19797774471E+03  0.17214722320E+03 0.  0.
        -24    2    3    3    0    0  0.56544876247E+02 -0.46599034949E+02 -0.34261286806E+02  0.11488825421E+03  0.81588492405E+02 0.  0.
          6    2    1    2  501    0  0.13356767910E+02  0.91236734687E+02  0.35653891910E+03  0.40673571462E+03  0.17265976863E+03 0.  0.
         24    2    5    5    0    0  0.14431367406E+02 -0.15512581156E+02  0.10687842555E+03  0.13516800071E+03  0.79990537115E+02 0.  0.
          5    1    5    5  501    0 -0.10745994959E+01  0.10674931584E+03  0.24966049355E+03  0.27156771391E+03  0.47000000000E+01 0. -1.
        -11    1    6    6    0    0 -0.29921199890E+02 -0.18207156626E+02  0.66347440947E+02  0.75025073645E+02  0.00000000000E+00 0.  1.
         12    1    6    6    0    0  0.44352567296E+02  0.26945754704E+01  0.40530984601E+02  0.60142927061E+02  0.00000000000E+00 0. -1.
         -5    1    3    3    0  503 -0.69901644157E+02 -0.44637699738E+02  0.17347446902E+01  0.83089490508E+02  0.47000000000E+01 0.  1.
         13    1    4    4    0    0  0.35588930566E+01 -0.55455002627E+02 -0.12699886945E+02  0.57001843519E+02  0.00000000000E+00 0. -1.
        -14    1    4    4    0    0  0.52985983190E+02  0.88559676787E+01 -0.21561399862E+02  0.57886410686E+02  0.00000000000E+00 0.  1.
</event>
<event>
12    1  0.8271773E-002  0.1768539E+03  0.7818608E-02  0.1170951E+00
         21   -1    0    0  503  502  0.00000000000E+00  0.00000000000E+00  0.14029686652E+04  0.14029686652E+04  0.00000000000E+00 0.  1.
         21   -1    0    0  501  503 -0.00000000000E+00 -0.00000000000E+00 -0.49457395290E+02  0.49457395290E+02  0.00000000000E+00 0.  1.
          6    2    1    2  501    0  0.79025306034E+01  0.40527591084E+02  0.13845103709E+03  0.22460182295E+03  0.17196614076E+03 0.  0.
         24    2    3    3    0    0  0.20250720658E+02  0.90176590955E+02  0.76989037264E+02  0.14449459225E+03  0.80059141194E+02 0.  0.
         -6    2    1    2    0  502 -0.79025306034E+01 -0.40527591084E+02  0.12150602328E+04  0.12278242375E+04  0.17168591469E+03 0.  0.
        -24    2    5    5    0    0  0.18293427579E+02 -0.49263331333E+02  0.37040191165E+03  0.38270157728E+03  0.80631233342E+02 0.  0.
          5    1    3    3  501    0 -0.12348190055E+02 -0.49648999871E+02  0.61461999831E+02  0.80107230691E+02  0.47000000000E+01 0. -1.
        -11    1    4    4    0    0  0.43317829098E+02  0.20156006391E+02  0.22437284094E+02  0.52783810292E+02  0.00000000000E+00 0.  1.
         12    1    4    4    0    0 -0.23067108440E+02  0.70020584563E+02  0.54551753170E+02  0.91710781963E+02  0.00000000000E+00 0. -1.
         -5    1    5    5    0  502 -0.26195958183E+02  0.87357402488E+01  0.84465832113E+03  0.84512266023E+03  0.47000000000E+01 0.  1.
         11    1    6    6    0    0  0.88607276647E+01 -0.30903058468E+02  0.35619636418E+03  0.35764418263E+03  0.00000000000E+00 0. -1.
        -12    1    6    6    0    0  0.94326999144E+01 -0.18360272865E+02  0.14205547469E+02  0.25057394642E+02  0.00000000000E+00 0.  1.
</event>
<event>
12    1  0.8271773E-002  0.2161645E+03  0.7818608E-02  0.1136866E+00
         21   -1    0    0  501  502  0.00000000000E+00  0.00000000000E+00  0.16916482691E+03  0.16916482691E+03  0.00000000000E+00 0. -1.
         21   -1    0    0  502  503 -0.00000000000E+00 -0.00000000000E+00 -0.50079148202E+03  0.50079148202E+03  0.00000000000E+00 0. -1.
         -6    2    1    2    0  503 -0.12719545048E+03  0.25689388535E+02 -0.39033393197E+03  0.44596159812E+03  0.17228621894E+03 0.  0.
        -24    2    3    3    0    0 -0.25978526780E+02 -0.33518087770E+02 -0.23215667394E+03  0.24900341511E+03  0.79420610798E+02 0.  0.
          6    2    1    2  501    0  0.12719545048E+03 -0.25689388535E+02  0.58707276866E+02  0.22399471081E+03  0.17288278922E+03 0.  0.
         24    2    5    5    0    0  0.44906026598E+02 -0.36198060550E+02  0.92949908133E+02  0.13412464201E+03  0.77607237800E+02 0.  0.
          5    1    5    5  501    0  0.82289423887E+02  0.10508672016E+02 -0.34242631267E+02  0.89870068806E+02  0.47000000000E+01 0. -1.
        -11    1    6    6    0    0 -0.12126725935E+02 -0.12738977260E+02 -0.50830922263E+01  0.18307835757E+02  0.00000000000E+00 0.  1.
         12    1    6    6    0    0  0.57032752533E+02 -0.23459083290E+02  0.98033000359E+02  0.11581680625E+03  0.00000000000E+00 0. -1.
         -5    1    3    3    0  503 -0.10121692370E+03  0.59207476305E+02 -0.15817725803E+03  0.19695818301E+03  0.47000000000E+01 0.  1.
         11    1    4    4    0    0 -0.47757998709E+02 -0.17636227193E+02 -0.20303940245E+03  0.20932477612E+03  0.00000000000E+00 0. -1.
        -12    1    4    4    0    0  0.21779471929E+02 -0.15881860577E+02 -0.29117271485E+02  0.39678638985E+02  0.00000000000E+00 0.  1.
</event>
<event>
12    1  0.8271773E-002  0.1945021E+03  0.7818608E-02  0.1154496E+00
         21   -1    0    0  503  502  0.00000000000E+00  0.00000000000E+00  0.20647298711E+03  0.20647298711E+03  0.00000000000E+00 0.  1.
         21   -1    0    0  501  503 -0.00000000000E+00 -0.00000000000E+00 -0.32335070135E+03  0.32335070135E+03  0.00000000000E+00 0. -1.
          6    2    1    2  501    0  0.78308863631E+02  0.45136243422E+02 -0.23290573549E+03  0.30334283653E+03  0.17205300420E+03 0.  0.
         24    2    3    3    0    0  0.63985522757E+02  0.65680455079E+02 -0.24566734444E+03  0.27484421570E+03  0.82333647287E+02 0.  0.
         -6    2    1    2    0  502 -0.78308863631E+02 -0.45136243422E+02  0.11602802125E+03  0.22648085193E+03  0.17222518975E+03 0.  0.
        -24    2    5    5    0    0  0.10900441779E+02 -0.61389172223E+02  0.78882942139E+02  0.12837731087E+03  0.79817073921E+02 0.  0.
          5    1    3    3  501    0  0.14323340874E+02 -0.20544211657E+02  0.12761608949E+02  0.28498620833E+02  0.47000000000E+01 0. -1.
        -13    1    4    4    0    0  0.53397125959E+02  0.54210529333E+02 -0.87706833638E+02  0.11611426793E+03  0.00000000000E+00 0.  1.
         14    1    4    4    0    0  0.10588396798E+02  0.11469925746E+02 -0.15796051080E+03  0.15872994776E+03  0.00000000000E+00 0. -1.
         -5    1    5    5    0  502 -0.89209305409E+02  0.16252928801E+02  0.37145079114E+02  0.98103541060E+02  0.47000000000E+01 0.  1.
         13    1    6    6    0    0  0.33986393854E+02 -0.60116087141E+02  0.32018423759E+02  0.76119631898E+02  0.00000000000E+00 0. -1.
        -14    1    6    6    0    0 -0.23085952075E+02 -0.12730850823E+01  0.46864518380E+02  0.52257678975E+02  0.00000000000E+00 0.  1.
</event>
<event>
12    1  0.8271773E-002  0.2270752E+03  0.7818608E-02  0.1128719E+00
         21   -1    0    0  503  502  0.00000000000E+00  0.00000000000E+00  0.41342027460E+03  0.41342027460E+03  0.00000000000E+00 0.  1.
         21   -1    0    0  501  503 -0.00000000000E+00 -0.00000000000E+00 -0.18305906660E+03  0.18305906660E+03  0.00000000000E+00 0.  1.
          6    2    1    2  501    0 -0.24602498412E+02 -0.14576972958E+03 -0.53196773494E+02  0.23320498524E+03  0.17233853731E+03 0.  0.
         24    2    3    3    0    0  0.42929488666E+02 -0.74003148353E+02 -0.61758661250E+02  0.13417767900E+03  0.82886128751E+02 0.  0.
         -6    2    1    2    0  502  0.24602498412E+02  0.14576972958E+03  0.28355798149E+03  0.36327435597E+03  0.17236308145E+03 0.  0.
        -24    2    5    5    0    0  0.10890332826E+01  0.56321632137E+01  0.14776122993E+03  0.16666746829E+03  0.76887948724E+02 0.  0.
          5    1    3    3  501    0 -0.67531987077E+02 -0.71766581224E+02  0.85618877562E+01  0.99027306240E+02  0.47000000000E+01 0. -1.
        -11    1    4    4    0    0 -0.18996480232E+02  0.13435358831E+01 -0.21348275220E+02  0.28608044407E+02  0.00000000000E+00 0.  1.
         12    1    4    4    0    0  0.61925968898E+02 -0.75346684236E+02 -0.40410386029E+02  0.10556963459E+03  0.00000000000E+00 0. -1.
         -5    1    5    5    0  502  0.23513465129E+02  0.14013756636E+03  0.13579675156E+03  0.19660688768E+03  0.47000000000E+01 0.  1.
         13    1    6    6    0    0 -0.10178337103E+01 -0.20123333428E+02  0.39243094729E+01  0.20527657892E+02  0.00000000000E+00 0. -1.
        -14    1    6    6    0    0  0.21068669929E+01  0.25755496641E+02  0.14383692045E+03  0.14613981039E+03  0.00000000000E+00 0.  1.
</event>
<event>
12    1  0.8271773E-002  0.1766608E+03  0.7818608E-02  0.1172126E+00
         21   -1    0    0  501  502  0.00000000000E+00  0.00000000000E+00  0.38430712135E+02  0.38430712135E+02  0.00000000000E+00 0. -1.
         21   -1    0    0  502  503 -0.00000000000E+00 -0.00000000000E+00 -0.79728627376E+03  0.79728627376E+03  0.00000000000E+00 0. -1.
         -6    2    1    2    0  503  0.44183909356E+00 -0.20289860063E+02 -0.40569399745E+03  0.44083454803E+03  0.17127640098E+03 0.  0.
        -24    2    3    3    0    0 -0.66562396779E+02 -0.52571720875E+01 -0.24950900002E+03  0.27015533795E+03  0.79189488000E+02 0.  0.
          6    2    1    2  501    0 -0.44183909356E+00  0.20289860063E+02 -0.35316156417E+03  0.39488243786E+03  0.17549124102E+03 0.  0.
         24    2    5    5    0    0  0.90311235592E+01  0.57190244747E+02 -0.10292174123E+03  0.14171562645E+03  0.78346337980E+02 0.  0.
          5    1    5    5  501    0 -0.94729626528E+01 -0.36900384684E+02 -0.25023982295E+03  0.25316681141E+03  0.47000000000E+01 0. -1.
        -11    1    6    6    0    0  0.28808800612E+02  0.13437296405E+01 -0.65691905694E+02  0.71743843470E+02  0.00000000000E+00 0.  1.
         12    1    6    6    0    0 -0.19777677053E+02  0.55846515107E+02 -0.37229835532E+02  0.69971782976E+02  0.00000000000E+00 0. -1.
         -5    1    3    3    0  503  0.67004235873E+02 -0.15032687976E+02 -0.15618499743E+03  0.17067921008E+03  0.47000000000E+01 0.  1.
         13    1    4    4    0    0  0.15682900827E+02 -0.50612767601E+01 -0.80839970866E+02  0.82502550205E+02  0.00000000000E+00 0. -1.
        -14    1    4    4    0    0 -0.82245297606E+02 -0.19589532743E+00 -0.16866902915E+03  0.18765278775E+03  0.00000000000E+00 0.  1.
</event>
<event>
12    1  0.8271773E-002  0.2442922E+03  0.7818608E-02  0.1117124E+00
         21   -1    0    0  503  502  0.00000000000E+00  0.00000000000E+00  0.13259833632E+03  0.13259833632E+03  0.00000000000E+00 0. -1.
         21   -1    0    0  501  503 -0.00000000000E+00 -0.00000000000E+00 -0.46615644480E+03  0.46615644480E+03  0.00000000000E+00 0. -1.
          6    2    1    2  501    0 -0.40227208355E+02  0.16769742454E+03 -0.22570354750E+03  0.33259700598E+03  0.17302607476E+03 0.  0.
         24    2    3    3    0    0 -0.49599009125E+02  0.64348839004E+02 -0.39998592837E+02  0.11981265278E+03  0.78449662524E+02 0.  0.
         -6    2    1    2    0  502  0.40227208355E+02 -0.16769742454E+03 -0.10785456098E+03  0.26615777514E+03  0.17165867428E+03 0.  0.
        -24    2    5    5    0    0  0.42055542916E+02 -0.20212911850E+02 -0.65733957624E+02  0.11269357893E+03  0.78750613028E+02 0.  0.
          5    1    3    3  501    0  0.93718007704E+01  0.10334858554E+03 -0.18570495466E+03  0.21278435320E+03  0.47000000000E+01 0. -1.
        -11    1    4    4    0    0 -0.34172683727E+02  0.82221139159E+02 -0.28059625344E+02  0.93356470650E+02  0.00000000000E+00 0.  1.
         12    1    4    4    0    0 -0.15426325398E+02 -0.17872300156E+02 -0.11938967493E+02  0.26456182131E+02  0.00000000000E+00 0. -1.
         -5    1    5    5    0  502 -0.18283345614E+01 -0.14748451269E+03 -0.42120603357E+02  0.15346419621E+03  0.47000000000E+01 0.  1.
         11    1    6    6    0    0  0.37995999437E+02  0.16556055498E+02 -0.52273171787E+01  0.41774678835E+02  0.00000000000E+00 0. -1.
        -12    1    6    6    0    0  0.40595434787E+01 -0.36768967348E+02 -0.60506640445E+02  0.70918900097E+02  0.00000000000E+00 0.  1.
</event>
<event>
12    1  0.8271773E-002  0.2438578E+03  0.7818608E-02  0.1117324E+00
         21   -1    0    0  503  502  0.00000000000E+00  0.00000000000E+00  0.53173705472E+02  0.53173705472E+02  0.00000000000E+00 0. -1.
         21   -1    0    0  501  503 -0.00000000000E+00 -0.00000000000E+00 -0.16801682582E+04  0.16801682582E+04  0.00000000000E+00 0.  1.
          6    2    1    2  501    0  0.16526778666E+03  0.51659715803E+02 -0.13150860429E+04  0.13374208494E+04  0.17105864680E+03 0.  0.
         24    2    3    3    0    0  0.15853878401E+03  0.25143432992E+02 -0.12790440505E+04  0.12919290046E+04  0.85791208310E+02 0.  0.
         -6    2    1    2    0  502 -0.16526778666E+03 -0.51659715803E+02 -0.31190850988E+03  0.39592111432E+03  0.17171034530E+03 0.  0.
        -24    2    5    5    0    0 -0.63092929252E+02 -0.93043066575E+01 -0.48327940428E+02  0.11003566740E+03  0.75531254651E+02 0.  0.
          5    1    3    3  501    0  0.67290026500E+01  0.26516282811E+02 -0.36041992339E+02  0.45491844792E+02  0.47000000000E+01 0. -1.
        -11    1    4    4    0    0  0.15019914102E+03  0.47385256839E+02 -0.11474293310E+04  0.11581879011E+04  0.00000000000E+00 0.  1.
         12    1    4    4    0    0  0.83396429909E+01 -0.22241823847E+02 -0.13161471948E+03  0.13374110347E+03  0.00000000000E+00 0. -1.
         -5    1    5    5    0  502 -0.10217485741E+03 -0.42355409146E+02 -0.26358056945E+03  0.28588544692E+03  0.47000000000E+01 0.  1.
         11    1    6    6    0    0 -0.48784329779E+02 -0.14017169090E+02 -0.68252107149E+02  0.85057286529E+02  0.00000000000E+00 0. -1.
        -12    1    6    6    0    0 -0.14308599473E+02  0.47128624322E+01  0.19924166721E+02  0.24978380867E+02  0.00000000000E+00 0.  1.
</event>
<event>
12    1  0.8271773E-002  0.1987432E+03  0.7818608E-02  0.1151269E+00
         21   -1    0    0  503  502  0.00000000000E+00  0.00000000000E+00  0.28363087693E+03  0.28363087693E+03  0.00000000000E+00 0.  1.
         21   -1    0    0  501  503 -0.00000000000E+00 -0.00000000000E+00 -0.14982040575E+03  0.14982040575E+03  0.00000000000E+00 0. -1.
          6    2    1    2  501    0 -0.83688780348E+02 -0.44618173755E+02  0.57080763055E+01  0.19882519408E+03  0.17465475167E+03 0.  0.
         24    2    3    3    0    0 -0.40879196608E+02 -0.79368740255E+01  0.70576358574E+02  0.11275451235E+03  0.77449693223E+02 0.  0.
         -6    2    1    2    0  502  0.83688780348E+02  0.44618173755E+02  0.12810239487E+03  0.23462608860E+03  0.17217602765E+03 0.  0.
        -24    2    5    5    0    0  0.27473292386E+02  0.67599412013E+02  0.18889424648E+02  0.10957457416E+03  0.79531846707E+02 0.  0.
          5    1    3    3  501    0 -0.42809583740E+02 -0.36681299729E+02 -0.64868282269E+02  0.86070681735E+02  0.47000000000E+01 0. -1.
        -13    1    4    4    0    0 -0.23351021423E+02  0.33954664364E+02  0.23924598204E+02  0.47650559627E+02  0.00000000000E+00 0.  1.
         14    1    4    4    0    0 -0.17528175185E+02 -0.41891538390E+02  0.46651760370E+02  0.65103952719E+02  0.00000000000E+00 0. -1.
         -5    1    5    5    0  502  0.56215487962E+02 -0.22981238258E+02  0.10921297022E+03  0.12505151444E+03  0.47000000000E+01 0.  1.
         13    1    6    6    0    0 -0.19342230758E+02 -0.29466653724E+01 -0.74034994458E+01  0.20919286115E+02  0.00000000000E+00 0. -1.
        -14    1    6    6    0    0  0.46815523144E+02  0.70546077385E+02  0.26292924094E+02  0.88655288049E+02  0.00000000000E+00 0.  1.
</event>
<event>
12    1  0.8271773E-002  0.2172154E+03  0.7818608E-02  0.1136038E+00
         21   -1    0    0  503  502  0.00000000000E+00  0.00000000000E+00  0.78207643311E+03  0.78207643311E+03  0.00000000000E+00 0.  1.
         21   -1    0    0  501  503 -0.00000000000E+00 -0.00000000000E+00 -0.21037491160E+03  0.21037491160E+03  0.00000000000E+00 0.  1.
          6    2    1    2  501    0 -0.84309454411E+02 -0.10224148247E+03 -0.13329079183E+03  0.25485085294E+03  0.17210786506E+03 0.  0.
         24    2    3    3    0    0 -0.69577461749E+02 -0.14096431036E+03 -0.11504092401E+03  0.20933561722E+03  0.76648721176E+02 0.  0.
         -6    2    1    2    0  502  0.84309454411E+02  0.10224148247E+03  0.70499231335E+03  0.73760049177E+03  0.17169425947E+03 0.  0.
        -24    2    5    5    0    0  0.28947438849E+02  0.59345909014E+02  0.17660128488E+03  0.20456751722E+03  0.79372313486E+02 0.  0.
          5    1    3    3  501    0 -0.14731992661E+02  0.38722827892E+02 -0.18249867822E+02  0.45515235727E+02  0.47000000000E+01 0. -1.
        -11    1    4    4    0    0 -0.72240573046E+02 -0.12383400351E+03 -0.12424180066E+03  0.18970921393E+03  0.00000000000E+00 0.  1.
         12    1    4    4    0    0  0.26631112969E+01 -0.17130306855E+02  0.92008766501E+01  0.19626403284E+02  0.00000000000E+00 0. -1.
         -5    1    5    5    0  502  0.55362015562E+02  0.42895573458E+02  0.52839102847E+03  0.53303297455E+03  0.47000000000E+01 0.  1.
         11    1    6    6    0    0  0.66329727705E+00 -0.12676737693E+02  0.10710749268E+01  0.12739185348E+02  0.00000000000E+00 0. -1.
        -12    1    6    6    0    0  0.28284141572E+02  0.72022646708E+02  0.17553020995E+03  0.19182833187E+03  0.00000000000E+00 0.  1.
</event>
<event>
12    1  0.8271773E-002  0.1867035E+03  0.7818608E-02  0.1162054E+00
         21   -1    0    0  503  502  0.00000000000E+00  0.00000000000E+00  0.48402746671E+03  0.48402746671E+03  0.00000000000E+00 0. -1.
         21   -1    0    0  501  503 -0.00000000000E+00 -0.00000000000E+00 -0.25110703796E+03  0.25110703796E+03  0.00000000000E+00 0. -1.
          6    2    1    2  501    0  0.68072303952E+02 -0.24789356965E+02 -0.19456744262E+03  0.26965663889E+03  0.17207516493E+03 0.  0.
         24    2    3    3    0    0  0.62291093226E+02 -0.58020440509E+02 -0.59158837875E+02  0.13003104113E+03  0.78496826349E+02 0.  0.
         -6    2    1    2    0  502 -0.68072303952E+02  0.24789356965E+02  0.42748787137E+03  0.46547786579E+03  0.16933816046E+03 0.  0.
        -24    2    5    5    0    0 -0.58578438758E+02 -0.10237187604E+02  0.11535550656E+03  0.15120776625E+03  0.77592926125E+02 0.  0.
          5    1    3    3  501    0  0.57812107261E+01  0.33231083544E+02 -0.13540860474E+03  0.13962559776E+03  0.47000000000E+01 0. -1.
        -11    1    4    4    0    0  0.79460900479E+02 -0.58341996496E+02 -0.51617864507E+02  0.11127545640E+03  0.00000000000E+00 0.  1.
         12    1    4    4    0    0 -0.17169807254E+02  0.32155598726E+00 -0.75409733689E+01  0.18755584734E+02  0.00000000000E+00 0. -1.
         -5    1    5    5    0  502 -0.94938651938E+01  0.35026544568E+02  0.31213236481E+03  0.31427009954E+03  0.47000000000E+01 0.  1.
         13    1    6    6    0    0 -0.66984195115E+02 -0.12584541497E+02  0.12233041512E+03  0.14003565098E+03  0.00000000000E+00 0. -1.
        -14    1    6    6    0    0  0.84057563569E+01  0.23473538937E+01 -0.69749085667E+01  0.11172115276E+02  0.00000000000E+00 0.  1.
</event>
<event>
12    1  0.8271773E-002  0.1844673E+03  0.7818608E-02  0.1163699E+00
         21   -1    0    0  503  502  0.00000000000E+00  0.00000000000E+00  0.31862743927E+02  0.31862743927E+02  0.00000000000E+00 0. -1.
         21   -1    0    0  501  503 -0.00000000000E+00 -0.00000000000E+00 -0.13418118045E+04  0.13418118045E+04  0.00000000000E+00 0. -1.
          6    2    1    2  501    0  0.13073343838E+02  0.65317142629E+02 -0.96645605359E+03  0.98378274221E+03  0.17132991248E+03 0.  0.
         24    2    3    3    0    0  0.73884190789E+02  0.53167039756E+02 -0.61066795596E+03  0.62260017823E+03  0.80187416304E+02 0.  0.
         -6    2    1    2    0  502 -0.13073343838E+02 -0.65317142629E+02 -0.34349300695E+03  0.38989180618E+03  0.17202015366E+03 0.  0.
        -24    2    5    5    0    0 -0.79575616730E+00  0.19563546277E+02 -0.24818235495E+03  0.26158872402E+03  0.80316957459E+02 0.  0.
          5    1    3    3  501    0 -0.60810846950E+02  0.12150102872E+02 -0.35578809763E+03  0.36118256398E+03  0.47000000000E+01 0. -1.
        -11    1    4    4    0    0  0.44088893483E+02  0.11776627748E+02 -0.10657852814E+03  0.11593749242E+03  0.00000000000E+00 0.  1.
         12    1    4    4    0    0  0.29795297306E+02  0.41390412009E+02 -0.50408942782E+03  0.50666268581E+03  0.00000000000E+00 0. -1.
         -5    1    5    5    0  502 -0.12277587671E+02 -0.84880688905E+02 -0.95310652002E+02  0.12830308217E+03  0.47000000000E+01 0.  1.
         13    1    6    6    0    0 -0.24447274462E+02  0.20069542443E+02 -0.35307214184E+02  0.47403113146E+02  0.00000000000E+00 0. -1.
        -14    1    6    6    0    0  0.23651518295E+02 -0.50599616629E+00 -0.21287514076E+03  0.21418561087E+03  0.00000000000E+00 0.  1.
</event>
<event>
12    1  0.8271773E-002  0.2031069E+03  0.7818608E-02  0.1147579E+00
         21   -1    0    0  503  502  0.00000000000E+00  0.00000000000E+00  0.44495610276E+03  0.44495610276E+03  0.00000000000E+00 0. -1.
         21   -1    0    0  501  503 -0.00000000000E+00 -0.00000000000E+00 -0.15320926790E+03  0.15320926790E+03  0.00000000000E+00 0. -1.
          6    2    1    2  501    0 -0.10598179161E+03  0.11437377839E+01  0.33573868916E+03  0.39239375938E+03  0.17325976658E+03 0.  0.
         24    2    3    3    0    0 -0.10345919838E+03 -0.38180454440E+02  0.13612106027E+03  0.18886969856E+03  0.70578092594E+02 0.  0.
         -6    2    1    2    0  502  0.10598179161E+03 -0.11437377839E+01 -0.43991854297E+02  0.20577161128E+03  0.17080171099E+03 0.  0.
        -24    2    5    5    0    0  0.11968662607E+03 -0.47869469270E+02 -0.31076346992E+02  0.15517500270E+03  0.80605009606E+02 0.  0.
          5    1    3    3  501    0 -0.25225932236E+01  0.39324192224E+02  0.19961762889E+03  0.20352406082E+03  0.47000000000E+01 0. -1.
        -13    1    4    4    0    0  0.43801847955E+01  0.11349488158E+02  0.10642340804E+02  0.16163425320E+02  0.00000000000E+00 0.  1.
         14    1    4    4    0    0 -0.10783938318E+03 -0.49529942598E+02  0.12547871947E+03  0.17270627324E+03  0.00000000000E+00 0. -1.
         -5    1    5    5    0  502 -0.13704834461E+02  0.46725731486E+02 -0.12915507305E+02  0.50596608576E+02  0.47000000000E+01 0.  1.
         13    1    6    6    0    0  0.41807933573E+02 -0.46347820623E+02  0.15638298847E+02  0.64347340092E+02  0.00000000000E+00 0. -1.
        -14    1    6    6    0    0  0.77878692494E+02 -0.15216486471E+01 -0.46714645840E+02  0.90827662610E+02  0.00000000000E+00 0.  1.
</event>
<event>
12    1  0.8271773E-002  0.2388302E+03  0.7818608E-02  0.1120603E+00
         21   -1    0    0  503  502  0.00000000000E+00  0.00000000000E+00  0.13477954457E+03  0.13477954457E+03  0.00000000000E+00 0. -1.
         21   -1    0    0  501  503 -0.00000000000E+00 -0.00000000000E+00 -0.46298146777E+03  0.46298146777E+03  0.00000000000E+00 0.  1.
          6    2    1    2  501    0 -0.81629135245E+02  0.14429470148E+03 -0.76220029751E+02  0.25069774400E+03  0.17191739095E+03 0.  0.
         24    2    3    3    0    0  0.24478369142E+02  0.78359549992E+02 -0.40938942982E+02  0.12080127840E+03  0.78597342073E+02 0.  0.
         -6    2    1    2    0  502  0.81629135245E+02 -0.14429470148E+03 -0.25198189345E+03  0.34706326834E+03  0.17167923872E+03 0.  0.
        -24    2    5    5    0    0  0.39582116299E+02 -0.15529121995E+03 -0.13626344841E+03  0.22336313195E+03  0.75108284617E+02 0.  0.
          5    1    3    3  501    0 -0.10610750439E+03  0.65935151492E+02 -0.35281086769E+02  0.12989646559E+03  0.47000000000E+01 0. -1.
        -11    1    4    4    0    0  0.21173707326E+02  0.94215286818E+02 -0.40168261639E+02  0.10458649719E+03  0.00000000000E+00 0.  1.
         12    1    4    4    0    0  0.33046618163E+01 -0.15855736826E+02 -0.77068134306E+00  0.16214781211E+02  0.00000000000E+00 0. -1.
         -5    1    5    5    0  502  0.42047018946E+02  0.10996518464E+02 -0.11571844504E+03  0.12370013639E+03  0.47000000000E+01 0.  1.
         11    1    6    6    0    0  0.59760627507E+02 -0.13748142614E+03 -0.11200217314E+03  0.18712819649E+03  0.00000000000E+00 0. -1.
        -12    1    6    6    0    0 -0.20178511208E+02 -0.17809793808E+02 -0.24261275269E+02  0.36234935459E+02  0.00000000000E+00 0.  1.
</event>
<event>
12    1  0.8271773E-002  0.2083257E+03  0.7818608E-02  0.1143258E+00
         21   -1    0    0  503  502  0.00000000000E+00  0.00000000000E+00  0.16874858046E+03  0.16874858046E+03  0.00000000000E+00 0. -1.
         21   -1    0    0  501  503 -0.00000000000E+00 -0.00000000000E+00 -0.64173815158E+03  0.64173815158E+03  0.00000000000E+00 0.  1.
          6    2    1    2  501    0 -0.89203182083E+02  0.74908107299E+02 -0.55068576757E+03  0.58814395168E+03  0.17055808705E+03 0.  0.
         24    2    3    3    0    0 -0.79519840362E+02 -0.36100366848E+01 -0.42397396953E+03  0.43868882194E+03  0.79734047203E+02 0.  0.
         -6    2    1    2    0  502  0.89203182083E+02 -0.74908107299E+02  0.77696196445E+02  0.22234278036E+03  0.17271705417E+03 0.  0.
        -24    2    5    5    0    0  0.11919608152E+03 -0.49457259178E+02  0.93930572783E+02  0.17952964380E+03  0.82184026221E+02 0.  0.
          5    1    3    3  501    0 -0.96833417209E+01  0.78518143984E+02 -0.12671179804E+03  0.14945512973E+03  0.47000000000E+01 0. -1.
        -13    1    4    4    0    0 -0.85673426513E+02  0.20147336684E+02 -0.33948944634E+03  0.35071204052E+03  0.00000000000E+00 0.  1.
         14    1    4    4    0    0  0.61535861507E+01 -0.23757373369E+02 -0.84484523184E+02  0.87976781423E+02  0.00000000000E+00 0. -1.
         -5    1    5    5    0  502 -0.29992899435E+02 -0.25450848121E+02 -0.16234376338E+02  0.42813136555E+02  0.47000000000E+01 0.  1.
         13    1    6    6    0    0  0.53959653783E+02 -0.32897508648E+01  0.82732480200E+02  0.98828791236E+02  0.00000000000E+00 0. -1.
        -14    1    6    6    0    0  0.65236427735E+02 -0.46167508313E+02  0.11198092583E+02  0.80700852567E+02  0.00000000000E+00 0.  1.
</event>
<event>
12    1  0.8271773E-002  0.1723326E+03  0.7818608E-02  0.1175636E+00
         21   -1    0    0  503  502  0.00000000000E+00  0.00000000000E+00  0.71176497122E+02  0.71176497122E+02  0.00000000000E+00 0. -1.
         21   -1    0    0  501  503 -0.00000000000E+00 -0.00000000000E+00 -0.44398983421E+03  0.44398983421E+03  0.00000000000E+00 0. -1.
          6    2    1    2  501    0 -0.55230952985E+01  0.94297670952E+01 -0.25218589503E+03  0.30544434222E+03  0.17198574200E+03 0.  0.
         24    2    3    3    0    0 -0.52230649244E+02 -0.16867096858E+02 -0.81657134394E+02  0.12662804303E+03  0.79713449358E+02 0.  0.
         -6    2    1    2    0  502  0.55230952985E+01 -0.94297670952E+01 -0.12062744206E+03  0.20972198912E+03  0.17121012777E+03 0.  0.
        -24    2    5    5    0    0 -0.46552913663E+02 -0.27496799343E+02 -0.12019988425E+03  0.15439928881E+03  0.80423133911E+02 0.  0.
          5    1    3    3  501    0  0.46707553945E+02  0.26296863953E+02 -0.17052876064E+03  0.17881629918E+03  0.47000000000E+01 0. -1.
        -11    1    4    4    0    0  0.15511449196E+01  0.27200222714E+02 -0.23712421383E+02  0.36118376127E+02  0.00000000000E+00 0.  1.
         12    1    4    4    0    0 -0.53781794163E+02 -0.44067319572E+02 -0.57944713011E+02  0.90509666907E+02  0.00000000000E+00 0. -1.
         -5    1    5    5    0  502  0.52076008961E+02  0.18067032248E+02 -0.42755781459E+00  0.55322700307E+02  0.47000000000E+01 0.  1.
         11    1    6    6    0    0  0.10712133580E+02 -0.13918993442E+02  0.30428363055E+01  0.17825460360E+02  0.00000000000E+00 0. -1.
        -12    1    6    6    0    0 -0.57265047243E+02 -0.13577805902E+02 -0.12324272055E+03  0.13657382845E+03  0.00000000000E+00 0.  1.
</event>
<event>
12    1  0.8271773E-002  0.1919018E+03  0.7818608E-02  0.1157800E+00
         21   -1    0    0  503  502  0.00000000000E+00  0.00000000000E+00  0.50357307678E+03  0.50357307678E+03  0.00000000000E+00 0. -1.
         21   -1    0    0  501  503 -0.00000000000E+00 -0.00000000000E+00 -0.11814027913E+03  0.11814027913E+03  0.00000000000E+00 0.  1.
          6    2    1    2  501    0  0.56318027871E+02 -0.61307589077E+02 -0.14276895455E+01  0.19190706483E+03  0.17290443168E+03 0.  0.
         24    2    3    3    0    0  0.65440537094E+02 -0.74253593062E+02 -0.53907174301E+02  0.13688883591E+03  0.77694980389E+02 0.  0.
         -6    2    1    2    0  502 -0.56318027871E+02  0.61307589077E+02  0.38686048719E+03  0.42980629107E+03  0.16775598516E+03 0.  0.
        -24    2    5    5    0    0  0.18915754715E+02  0.52547178365E+02  0.14297733931E+03  0.17438908989E+03  0.82764868077E+02 0.  0.
          5    1    3    3  501    0 -0.91225092224E+01  0.12946003985E+02  0.52479484756E+02  0.55018228924E+02  0.47000000000E+01 0. -1.
        -13    1    4    4    0    0  0.31695054689E+02  0.10341198869E+02 -0.23806089500E+02  0.40966410425E+02  0.00000000000E+00 0.  1.
         14    1    4    4    0    0  0.33745482404E+02 -0.84594791931E+02 -0.30101084801E+02  0.95922425484E+02  0.00000000000E+00 0. -1.
         -5    1    5    5    0  502 -0.75233782586E+02  0.87604107122E+01  0.24388314788E+03  0.25541720118E+03  0.47000000000E+01 0.  1.
         11    1    6    6    0    0 -0.18119832089E+02  0.49098360729E+00  0.88777096719E+02  0.90608731818E+02  0.00000000000E+00 0. -1.
        -12    1    6    6    0    0  0.37035586804E+02  0.52056194758E+02  0.54200242590E+02  0.83780358076E+02  0.00000000000E+00 0.  1.
</event>
<event>
12    1  0.8271773E-002  0.1970500E+03  0.7818608E-02  0.1152629E+00
         21   -1    0    0  501  502  0.00000000000E+00  0.00000000000E+00  0.85581689255E+02  0.85581689255E+02  0.00000000000E+00 0. -1.
         21   -1    0    0  502  503 -0.00000000000E+00 -0.00000000000E+00 -0.75724449823E+03  0.75724449823E+03  0.00000000000E+00 0. -1.
         -6    2    1    2    0  503 -0.48867985866E+00 -0.95182764929E+02 -0.60350740106E+03  0.63432234035E+03  0.17053929397E+03 0.  0.
        -24    2    3    3    0    0 -0.49025473810E+02 -0.10567956505E+03 -0.39256303663E+03  0.41756067846E+03  0.81728299376E+02 0.  0.
          6    2    1    2  501    0  0.48867985866E+00  0.95182764929E+02 -0.68155407912E+02  0.20850384713E+03  0.17253607476E+03 0.  0.
         24    2    5    5    0    0 -0.36669928134E+02  0.11907086832E+03 -0.70977663939E+02  0.16399026762E+03  0.79576527843E+02 0.  0.
          5    1    5    5  501    0  0.37158607993E+02 -0.23888103394E+02  0.28222560274E+01  0.44513579510E+02  0.47000000000E+01 0. -1.
        -13    1    6    6    0    0 -0.16561791772E+02 -0.85474876709E+01 -0.85448204323E+01  0.20502840008E+02  0.00000000000E+00 0.  1.
         14    1    6    6    0    0 -0.20108136362E+02  0.12761835599E+03 -0.62432843507E+02  0.14348742761E+03  0.00000000000E+00 0. -1.
         -5    1    3    3    0  503  0.48536793952E+02  0.10496800121E+02 -0.21094436443E+03  0.21676166189E+03  0.47000000000E+01 0.  1.
         13    1    4    4    0    0  0.58529959750E+00 -0.61327725153E+02 -0.28136459125E+03  0.28797129311E+03  0.00000000000E+00 0. -1.
        -14    1    4    4    0    0 -0.49610773408E+02 -0.44351839897E+02 -0.11119844538E+03  0.12958938535E+03  0.00000000000E+00 0.  1.
</event>
<event>
12    1  0.8271773E-002  0.2222016E+03  0.7818608E-02  0.1132334E+00
         21   -1    0    0  501  502  0.00000000000E+00  0.00000000000E+00  0.20519837106E+02  0.20519837106E+02  0.00000000000E+00 0. -1.
         21   -1    0    0  502  503 -0.00000000000E+00 -0.00000000000E+00 -0.28967100046E+04  0.28967100046E+04  0.00000000000E+00 0. -1.
         -6    2    1    2    0  503  0.39209917210E+02  0.13495920569E+03 -0.20424841091E+04  0.20545352037E+04  0.17211090170E+03 0.  0.
        -24    2    3    3    0    0  0.42355139060E+02  0.82229502054E+02 -0.66186162586E+03  0.67289456833E+03  0.78553418044E+02 0.  0.
          6    2    1    2  501    0 -0.39209917210E+02 -0.13495920569E+03 -0.83370605834E+03  0.86269463796E+03  0.17153670698E+03 0.  0.
         24    2    5    5    0    0  0.39673380465E+02 -0.85094775904E+02 -0.56048718600E+03  0.57393924284E+03  0.80282443862E+02 0.  0.
          5    1    5    5  501    0 -0.78883297675E+02 -0.49864429784E+02 -0.27321887233E+03  0.28875539512E+03  0.47000000000E+01 0. -1.
        -11    1    6    6    0    0 -0.22634064056E+02 -0.10378810416E+02 -0.83584617415E+02  0.87214728285E+02  0.00000000000E+00 0.  1.
         12    1    6    6    0    0  0.62307444521E+02 -0.74715965488E+02 -0.47690256859E+03  0.48672451455E+03  0.00000000000E+00 0. -1.
         -5    1    3    3    0  503 -0.31452218498E+01  0.52729703634E+02 -0.13806224833E+04  0.13816406354E+04  0.47000000000E+01 0.  1.
         11    1    4    4    0    0  0.80835572688E+01  0.13521953180E+02 -0.15890062986E+02  0.22375907080E+02  0.00000000000E+00 0. -1.
        -12    1    4    4    0    0  0.34271581791E+02  0.68707548873E+02 -0.64597156287E+03  0.65051866125E+03  0.00000000000E+00 0.  1.
</event>
<event>
12    1  0.8271773E-002  0.2203759E+03  0.7818608E-02  0.1133775E+00
         21   -1    0    0  501  502  0.00000000000E+00  0.00000000000E+00  0.18360972938E+03  0.18360972938E+03  0.00000000000E+00 0.  1.
         21   -1    0    0  502  503 -0.00000000000E+00 -0.00000000000E+00 -0.45837230792E+03  0.45837230792E+03  0.00000000000E+00 0.  1.
         -6    2    1    2    0  503 -0.12544825949E+03  0.53770144897E+02 -0.34689397093E+03  0.41097562696E+03  0.17302324872E+03 0.  0.
        -24    2    3    3    0    0 -0.11693996390E+03  0.72949834302E+02 -0.17790783513E+03  0.24062699717E+03  0.85167602330E+02 0.  0.
          6    2    1    2  501    0  0.12544825949E+03 -0.53770144897E+02  0.72131392387E+02  0.23100641033E+03  0.17185031148E+03 0.  0.
         24    2    5    5    0    0  0.30782018574E+02  0.26082573898E+02  0.57300225952E+02  0.10618570946E+03  0.79776285142E+02 0.  0.
          5    1    5    5  501    0  0.94666240917E+02 -0.79852718796E+02  0.14831166436E+02  0.12482070087E+03  0.47000000000E+01 0. -1.
        -13    1    6    6    0    0  0.44490916830E+02  0.10909974835E+02  0.49462150713E+00  0.45811722099E+02  0.00000000000E+00 0.  1.
         14    1    6    6    0    0 -0.13708898256E+02  0.15172599063E+02  0.56805604444E+02  0.60373987362E+02  0.00000000000E+00 0. -1.
         -5    1    3    3    0  503 -0.85082955947E+01 -0.19179689404E+02 -0.16898613580E+03  0.17034862979E+03  0.47000000000E+01 0.  1.
         11    1    4    4    0    0 -0.98080949923E+01  0.42057480124E+02 -0.85603569287E+02  0.95880140991E+02  0.00000000000E+00 0. -1.
        -12    1    4    4    0    0 -0.10713186890E+03  0.30892354177E+02 -0.92304265843E+02  0.14474685618E+03  0.00000000000E+00 0.  1.
</event>
<event>
12    1  0.8271773E-002  0.1913742E+03  0.7818608E-02  0.1158132E+00
         21   -1    0    0  501  502  0.00000000000E+00  0.00000000000E+00  0.81496602309E+03  0.81496602309E+03  0.00000000000E+00 0. -1.
         21   -1    0    0  502  503 -0.00000000000E+00 -0.00000000000E+00 -0.96502615592E+02  0.96502615592E+02  0.00000000000E+00 0. -1.
         -6    2    1    2    0  503 -0.13845599614E+02  0.83222152327E+02  0.24835385830E+02  0.19297901285E+03  0.17177449096E+03 0.  0.
        -24    2    3    3    0    0  0.16561116611E+02  0.45989385095E+02 -0.47076652308E+02  0.10635177362E+03  0.81885251632E+02 0.  0.
          6    2    1    2  501    0  0.13845599614E+02 -0.83222152327E+02  0.69362802167E+03  0.71848962584E+03  0.16730177142E+03 0.  0.
         24    2    5    5    0    0  0.54143303881E+02 -0.62727748139E+01  0.30594364282E+03  0.32116560281E+03  0.81086292226E+02 0.  0.
          5    1    5    5  501    0 -0.40297704267E+02 -0.76949377513E+02  0.38768437885E+03  0.39732402302E+03  0.47000000000E+01 0. -1.
        -13    1    6    6    0    0  0.49590770215E+02 -0.24949987303E+02  0.10040353132E+03  0.11472844224E+03  0.00000000000E+00 0.  1.
         14    1    6    6    0    0  0.45525336670E+01  0.18677212489E+02  0.20554011150E+03  0.20643716058E+03  0.00000000000E+00 0. -1.
         -5    1    3    3    0  503 -0.30406716226E+02  0.37232767232E+02  0.71912038138E+02  0.86627239229E+02  0.47000000000E+01 0.  1.
         13    1    4    4    0    0  0.45993721756E+02  0.20507385051E+02 -0.76369382996E+01  0.50934252809E+02  0.00000000000E+00 0. -1.
        -14    1    4    4    0    0 -0.29432605145E+02  0.25482000043E+02 -0.39439714008E+02  0.55417520811E+02  0.00000000000E+00 0.  1.
</event>
<event>
12    1  0.8271773E-002  0.2008250E+03  0.7818608E-02  0.1149394E+00
         21   -1    0    0  501  502  0.00000000000E+00  0.00000000000E+00  0.53142013686E+03  0.53142013686E+03  0.00000000000E+00 0.  1.
         21   -1    0    0  502  503 -0.00000000000E+00 -0.00000000000E+00 -0.10292055406E+03  0.10292055406E+03  0.00000000000E+00 0.  1.
         -6    2    1    2    0  503 -0.86017171878E+02  0.56039342610E+02  0.50493806203E+02  0.20707561707E+03  0.17260163656E+03 0.  0.
        -24    2    3    3    0    0 -0.10307792759E+03  0.37200124981E+01 -0.27427825243E+01  0.13036443100E+03  0.79677251247E+02 0.  0.
          6    2    1    2  501    0  0.86017171878E+02 -0.56039342610E+02  0.37800577660E+03  0.42726507384E+03  0.17066843412E+03 0.  0.
         24    2    5    5    0    0  0.91692348976E+02 -0.97302059979E+02  0.32019642047E+03  0.35585897371E+03  0.78960013631E+02 0.  0.
          5    1    5    5  501    0 -0.56751770978E+01  0.41262717369E+02  0.57809356133E+02  0.71406100133E+02  0.47000000000E+01 0. -1.
        -11    1    6    6    0    0  0.70416685477E+02 -0.63572574441E+02  0.12661712985E+03  0.15821466236E+03  0.00000000000E+00 0.  1.
         12    1    6    6    0    0  0.21275663499E+02 -0.33729485537E+02  0.19357929062E+03  0.19764431135E+03  0.00000000000E+00 0. -1.
         -5    1    3    3    0  503  0.17060755710E+02  0.52319330112E+02  0.53236588727E+02  0.76711186068E+02  0.47000000000E+01 0.  1.
         11    1    4    4    0    0 -0.36229681601E+02 -0.16085552973E+02 -0.35609223094E+02  0.53285566645E+02  0.00000000000E+00 0. -1.
        -12    1    4    4    0    0 -0.66848245986E+02  0.19805565471E+02  0.32866440570E+02  0.77078864359E+02  0.00000000000E+00 0.  1.
</event>
<event>
12    1  0.8271773E-002  0.1765145E+03  0.7818608E-02  0.1171300E+00
         21   -1    0    0  501  502  0.00000000000E+00  0.00000000000E+00  0.18793868570E+03  0.18793868570E+03  0.00000000000E+00 0.  1.
         21   -1    0    0  502  503 -0.00000000000E+00 -0.00000000000E+00 -0.21287525012E+03  0.21287525012E+03  0.00000000000E+00 0.  1.
         -6    2    1    2    0  503  0.17628134937E+02 -0.36064655244E+02 -0.10701928660E+03  0.20614767739E+03  0.17155852264E+03 0.  0.
        -24    2    3    3    0    0 -0.42516689209E+02 -0.61568100289E+02 -0.58236474227E+02  0.12447957858E+03  0.80655927978E+02 0.  0.
          6    2    1    2  501    0 -0.17628134937E+02  0.36064655244E+02  0.82082722184E+02  0.19466625843E+03  0.17188940744E+03 0.  0.
         24    2    5    5    0    0 -0.37564172364E+02  0.73214262356E+02  0.96696212791E+02  0.14979775049E+03  0.79484672906E+02 0.  0.
          5    1    5    5  501    0  0.19936037427E+02 -0.37149607112E+02 -0.14613490607E+02  0.44868507938E+02  0.47000000000E+01 0. -1.
        -13    1    6    6    0    0 -0.60665749105E+02  0.65838324655E+02  0.69330131242E+02  0.11323288041E+03  0.00000000000E+00 0.  1.
         14    1    6    6    0    0  0.23101576741E+02  0.73759377012E+01  0.27366081549E+02  0.36564870084E+02  0.00000000000E+00 0. -1.
         -5    1    3    3    0  503  0.60144824146E+02  0.25503445046E+02 -0.48782812370E+02  0.81668098811E+02  0.47000000000E+01 0.  1.
         11    1    4    4    0    0  0.17307038101E+02 -0.37058205976E+02 -0.59474299831E+01  0.41330571269E+02  0.00000000000E+00 0. -1.
        -12    1    4    4    0    0 -0.59823727310E+02 -0.24509894313E+02 -0.52289044243E+02  0.83149007308E+02  0.00000000000E+00 0.  1.
</event>
<event>
12    1  0.8271773E-002  0.2331201E+03  0.7818608E-02  0.1124569E+00
         21   -1    0    0  501  502  0.00000000000E+00  0.00000000000E+00  0.45947960781E+03  0.45947960781E+03  0.00000000000E+00 0. -1.
         21   -1    0    0  502  503 -0.00000000000E+00 -0.00000000000E+00 -0.12818285835E+03  0.12818285835E+03  0.00000000000E+00 0.  1.
         -6    2    1    2    0  503  0.11220044743E+03 -0.10832409667E+03  0.82882982090E+02  0.24741579310E+03  0.17326839190E+03 0.  0.
        -24    2    3    3    0    0  0.75510697348E+02 -0.74611802114E+02  0.12483756819E+03  0.18210933201E+03  0.79439309826E+02 0.  0.
          6    2    1    2  501    0 -0.11220044743E+03  0.10832409667E+03  0.24841376737E+03  0.34024667306E+03  0.17243940497E+03 0.  0.
         24    2    5    5    0    0 -0.13080930002E+03  0.36250770853E+02  0.16909619540E+03  0.23136958222E+03  0.80704206312E+02 0.  0.
          5    1    5    5  501    0  0.18608852584E+02  0.72073325812E+02  0.79317571964E+02  0.10887709084E+03  0.47000000000E+01 0. -1.
        -11    1    6    6    0    0 -0.12968219435E+02 -0.22699248200E+02  0.26908640016E+02  0.37516736154E+02  0.00000000000E+00 0.  1.
         12    1    6    6    0    0 -0.11784108058E+03  0.58950019053E+02  0.14218755539E+03  0.19385284606E+03  0.00000000000E+00 0. -1.
         -5    1    3    3    0  503  0.36689750086E+02 -0.33712294551E+02 -0.41954586099E+02  0.65306461089E+02  0.47000000000E+01 0.  1.
         13    1    4    4    0    0  0.23566837502E+02  0.14840794636E+02  0.37616382340E+02  0.46804243778E+02  0.00000000000E+00 0. -1.
        -14    1    4    4    0    0  0.51943859846E+02 -0.89452596750E+02  0.87221185848E+02  0.13530508823E+03  0.00000000000E+00 0.  1.
</event>
<event>
12    1  0.8271773E-002  0.3205859E+03  0.7818608E-02  0.1075431E+00
         21   -1    0    0  503  502  0.00000000000E+00  0.00000000000E+00  0.93733345335E+02  0.93733345335E+02  0.00000000000E+00 0. -1.
         21   -1    0    0  501  503 -0.00000000000E+00 -0.00000000000E+00 -0.10994987435E+04  0.10994987435E+04  0.00000000000E+00 0.  1.
          6    2    1    2  501    0 -0.22339568547E+03 -0.15205523994E+03 -0.54094488999E+03  0.62857874386E+03  0.17164916237E+03 0.  0.
         24    2    3    3    0    0 -0.93917741906E+02 -0.13292511636E+02 -0.27831445901E+03  0.30451630248E+03  0.79208631283E+02 0.  0.
         -6    2    1    2    0  502  0.22339568547E+03  0.15205523994E+03 -0.46482050814E+03  0.56465334494E+03  0.17247859833E+03 0.  0.
        -24    2    5    5    0    0  0.19841279426E+03  0.12594375549E+03 -0.27140245367E+03  0.36783213605E+03  0.80073228869E+02 0.  0.
          5    1    3    3  501    0 -0.12947794357E+03 -0.13876272831E+03 -0.26263043098E+03  0.32406244138E+03  0.47000000000E+01 0. -1.
        -13    1    4    4    0    0 -0.79759524707E+02  0.52200132728E+01 -0.26681018657E+03  0.27852559304E+03  0.00000000000E+00 0.  1.
         14    1    4    4    0    0 -0.14158217199E+02 -0.18512524909E+02 -0.11504272441E+02  0.25990709439E+02  0.00000000000E+00 0. -1.
         -5    1    5    5    0  502  0.24982891217E+02  0.26111484453E+02 -0.19341805447E+03  0.19682120889E+03  0.47000000000E+01 0.  1.
         11    1    6    6    0    0  0.15679731026E+03  0.80118334797E+02 -0.14898168252E+03  0.23065100434E+03  0.00000000000E+00 0. -1.
        -12    1    6    6    0    0  0.41615484002E+02  0.45825420692E+02 -0.12242077114E+03  0.13718113171E+03  0.00000000000E+00 0.  1.
</event>
<event>
12    1  0.8271773E-002  0.1975670E+03  0.7818608E-02  0.1151992E+00
         21   -1    0    0  501  502  0.00000000000E+00  0.00000000000E+00  0.61239276745E+03  0.61239276745E+03  0.00000000000E+00 0. -1.
         21   -1    0    0  502  503 -0.00000000000E+00 -0.00000000000E+00 -0.63485911216E+02  0.63485911216E+02  0.00000000000E+00 0. -1.
         -6    2    1    2    0  503 -0.59813865085E+02 -0.74102556359E+02  0.26732130264E+03  0.33189735191E+03  0.17212288065E+03 0.  0.
        -24    2    3    3    0    0 -0.66819287184E+02 -0.65076894905E+02  0.69351175735E+02  0.13354211590E+03  0.65757826559E+02 0.  0.
          6    2    1    2  501    0  0.59813865085E+02  0.74102556359E+02  0.28158555360E+03  0.34398132676E+03  0.17310066970E+03 0.  0.
         24    2    5    5    0    0 -0.11221332721E+02 -0.11127517585E+02  0.81590657205E+02  0.11522334676E+03  0.79810051620E+02 0.  0.
          5    1    5    5  501    0  0.71035197806E+02  0.85230073944E+02  0.19999489639E+03  0.22875798000E+03  0.47000000000E+01 0. -1.
        -11    1    6    6    0    0  0.72711648814E+01 -0.43464325524E+02  0.42407257115E+02  0.61158751524E+02  0.00000000000E+00 0.  1.
         12    1    6    6    0    0 -0.18492497602E+02  0.32336807940E+02  0.39183400090E+02  0.54064595235E+02  0.00000000000E+00 0. -1.
         -5    1    3    3    0  503  0.70054220989E+01 -0.90256614539E+01  0.19797012690E+03  0.19835523600E+03  0.47000000000E+01 0.  1.
         11    1    4    4    0    0 -0.46278230487E+02 -0.70954276726E+02  0.73049657715E+02  0.11185900274E+03  0.00000000000E+00 0. -1.
        -12    1    4    4    0    0 -0.20541056697E+02  0.58773818205E+01 -0.36984819798E+01  0.21683113159E+02  0.00000000000E+00 0.  1.
</event>
<event>
12    1  0.8271773E-002  0.2068457E+03  0.7818608E-02  0.1144203E+00
         21   -1    0    0  503  502  0.00000000000E+00  0.00000000000E+00  0.66611005210E+03  0.66611005210E+03  0.00000000000E+00 0. -1.
         21   -1    0    0  501  503 -0.00000000000E+00 -0.00000000000E+00 -0.13169534722E+03  0.13169534722E+03  0.00000000000E+00 0.  1.
          6    2    1    2  501    0 -0.10867691897E+03 -0.35658473487E+02 -0.18848352589E+02  0.20714039789E+03  0.17166736614E+03 0.  0.
         24    2    3    3    0    0 -0.14339897379E+03 -0.40423486191E+02 -0.26531643792E+02  0.17095408279E+03  0.79523873019E+02 0.  0.
         -6    2    1    2    0  502  0.10867691897E+03  0.35658473487E+02  0.55326305748E+03  0.59066500143E+03  0.17234539071E+03 0.  0.
        -24    2    5    5    0    0  0.90492266903E+02  0.59679814575E+01  0.53960422726E+03  0.55297069774E+03  0.79871166975E+02 0.  0.
          5    1    3    3  501    0  0.34722054823E+02  0.47650127041E+01  0.76832912025E+01  0.36186315105E+02  0.47000000000E+01 0. -1.
        -11    1    4    4    0    0 -0.51028235301E+02 -0.47515619310E+02  0.11759659715E+02  0.70710002637E+02  0.00000000000E+00 0.  1.
         12    1    4    4    0    0 -0.92370738487E+02  0.70921331186E+01 -0.38291303507E+02  0.10024408015E+03  0.00000000000E+00 0. -1.
         -5    1    5    5    0  502  0.18184652062E+02  0.29690492030E+02  0.13658830216E+02  0.37694303687E+02  0.47000000000E+01 0.  1.
         13    1    6    6    0    0  0.10090094821E+03 -0.96027654818E+01  0.43052031066E+03  0.44229057456E+03  0.00000000000E+00 0. -1.
        -14    1    6    6    0    0 -0.10408681308E+02  0.15570746939E+02  0.10908391660E+03  0.11068012318E+03  0.00000000000E+00 0.  1.
</event>
<event>
12    1  0.8271773E-002  0.2080997E+03  0.7818608E-02  0.1143123E+00
         21   -1    0    0  503  502  0.00000000000E+00  0.00000000000E+00  0.43655374291E+03  0.43655374291E+03  0.00000000000E+00 0. -1.
         21   -1    0    0  501  503 -0.00000000000E+00 -0.00000000000E+00 -0.11288053417E+03  0.11288053417E+03  0.00000000000E+00 0.  1.
          6    2    1    2  501    0 -0.19114754327E+02  0.11608735394E+03  0.65905683192E+02  0.21828659649E+03  0.17165031767E+03 0.  0.
         24    2    3    3    0    0 -0.12919642948E+02 -0.10088867286E+02  0.34955619595E+02  0.88137395023E+02  0.79231323624E+02 0.  0.
         -6    2    1    2    0  502  0.19114754327E+02 -0.11608735394E+03  0.25776752555E+03  0.33114768059E+03  0.17138565155E+03 0.  0.
        -24    2    5    5    0    0 -0.23936282659E+02 -0.11529388926E+03  0.24858023596E+03  0.28686994734E+03  0.81465369624E+02 0.  0.
          5    1    3    3  501    0 -0.61951113789E+01  0.12617622122E+03  0.30950063597E+02  0.13014920147E+03  0.47000000000E+01 0. -1.
        -11    1    4    4    0    0  0.32896857119E+02  0.15958174202E+01  0.20059784744E+02  0.38563516508E+02  0.00000000000E+00 0.  1.
         12    1    4    4    0    0 -0.45816500067E+02 -0.11684684706E+02  0.14895834852E+02  0.49573878515E+02  0.00000000000E+00 0. -1.
         -5    1    5    5    0  502  0.43051036987E+02 -0.79346467568E+00  0.91872895835E+01  0.44277733250E+02  0.47000000000E+01 0.  1.
         11    1    6    6    0    0  0.22838962206E+02 -0.40760854231E+02  0.44051427628E+02  0.64215213995E+02  0.00000000000E+00 0. -1.
        -12    1    6    6    0    0 -0.46775244866E+02 -0.74533035029E+02  0.20452880834E+03  0.22265473335E+03  0.00000000000E+00 0.  1.
</event>
<event>
12    1  0.8271773E-002  0.2291683E+03  0.7818608E-02  0.1127389E+00
         21   -1    0    0  501  502  0.00000000000E+00  0.00000000000E+00  0.10561616192E+04  0.10561616192E+04  0.00000000000E+00 0. -1.
         21   -1    0    0  502  503 -0.00000000000E+00 -0.00000000000E+00 -0.10167171796E+03  0.10167171796E+03  0.00000000000E+00 0. -1.
         -6    2    1    2    0  503 -0.14450739747E+03  0.40258307548E+02  0.63117403437E+02  0.23770130370E+03  0.17324833020E+03 0.  0.
        -24    2    3    3    0    0 -0.81472810306E+02 -0.41222957534E+02  0.60739513298E+02  0.13454947338E+03  0.77955893070E+02 0.  0.
          6    2    1    2  501    0  0.14450739747E+03 -0.40258307548E+02  0.89137249776E+03  0.92013203341E+03  0.17203171189E+03 0.  0.
         24    2    5    5    0    0  0.77145491924E+02 -0.73550535767E+02  0.41086296002E+03  0.43376025726E+03  0.89322341131E+02 0.  0.
          5    1    5    5  501    0  0.67361905541E+02  0.33292228220E+02  0.48050953775E+03  0.48637177616E+03  0.47000000000E+01 0. -1.
        -11    1    6    6    0    0  0.45873107068E+02  0.42410659260E+00  0.70958113235E+02  0.84496009683E+02  0.00000000000E+00 0.  1.
         12    1    6    6    0    0  0.31272384856E+02 -0.73974642360E+02  0.33990484678E+03  0.34926424757E+03  0.00000000000E+00 0. -1.
         -5    1    3    3    0  503 -0.63034587159E+02  0.81481265081E+02  0.23778901388E+01  0.10315183032E+03  0.47000000000E+01 0.  1.
         13    1    4    4    0    0 -0.65200615951E+02 -0.22266804926E+02  0.78085312165E+02  0.10413571384E+03  0.00000000000E+00 0. -1.
        -14    1    4    4    0    0 -0.16272194355E+02 -0.18956152608E+02 -0.17345798867E+02  0.30413759537E+02  0.00000000000E+00 0.  1.
</event>
<event>
12    1  0.8271773E-002  0.1878197E+03  0.7818608E-02  0.1160453E+00
         21   -1    0    0  503  502  0.00000000000E+00  0.00000000000E+00  0.15701729948E+03  0.15701729948E+03  0.00000000000E+00 0.  1.
         21   -1    0    0  501  503 -0.00000000000E+00 -0.00000000000E+00 -0.15998603517E+04  0.15998603517E+04  0.00000000000E+00 0.  1.
          6    2    1    2  501    0  0.72500987550E+02  0.15697858346E+02 -0.15358533402E+04  0.15472896287E+04  0.17250187359E+03 0.  0.
         24    2    3    3    0    0 -0.94226771181E+01 -0.82738847951E+01 -0.11119017428E+04  0.11148047408E+04  0.79415870043E+02 0.  0.
         -6    2    1    2    0  502 -0.72500987550E+02 -0.15697858346E+02  0.93010287989E+02  0.20958802251E+03  0.17254973068E+03 0.  0.
        -24    2    5    5    0    0 -0.29415862820E+02 -0.42766278704E+02 -0.27948802193E+01  0.10100741831E+03  0.86605078481E+02 0.  0.
          5    1    3    3  501    0  0.81923664668E+02  0.23971743141E+02 -0.42395159740E+03  0.43248488788E+03  0.47000000000E+01 0. -1.
        -11    1    4    4    0    0 -0.37750764791E+02 -0.26978511686E+02 -0.66211174666E+03  0.66373558395E+03  0.00000000000E+00 0.  1.
         12    1    4    4    0    0  0.28328087672E+02  0.18704626891E+02 -0.44978999618E+03  0.45106915687E+03  0.00000000000E+00 0. -1.
         -5    1    5    5    0  502 -0.43085124729E+02  0.27068420358E+02  0.95805168209E+02  0.10858060420E+03  0.47000000000E+01 0.  1.
         11    1    6    6    0    0 -0.56232112076E+02 -0.16031731154E+02 -0.16469169400E+02  0.60747842538E+02  0.00000000000E+00 0. -1.
        -12    1    6    6    0    0  0.26816249255E+02 -0.26734547550E+02  0.13674289181E+02  0.40259575773E+02  0.00000000000E+00 0.  1.
</event>
<event>
12    1  0.8271773E-002  0.1953855E+03  0.7818608E-02  0.1153766E+00
         21   -1    0    0  503  502  0.00000000000E+00  0.00000000000E+00  0.28172669768E+03  0.28172669768E+03  0.00000000000E+00 0.  1.
         21   -1    0    0  501  503 -0.00000000000E+00 -0.00000000000E+00 -0.16751884593E+03  0.16751884593E+03  0.00000000000E+00 0. -1.
          6    2    1    2  501    0  0.28162847268E+02 -0.89635509460E+02 -0.41491792556E+02  0.19940982467E+03  0.17092407321E+03 0.  0.
         24    2    3    3    0    0  0.29284236527E+02  0.16565424417E+02  0.29812921552E+00  0.85180303829E+02  0.78253533366E+02 0.  0.
         -6    2    1    2    0  502 -0.28162847268E+02  0.89635509460E+02  0.15569964431E+03  0.24983571893E+03  0.17131210318E+03 0.  0.
        -24    2    5    5    0    0 -0.61297184517E+02  0.11206601429E+03  0.14221587816E+03  0.20735144183E+03  0.80331363979E+02 0.  0.
          5    1    3    3  501    0 -0.11213892588E+01 -0.10620093388E+03 -0.41789921771E+02  0.11422952084E+03  0.47000000000E+01 0. -1.
        -13    1    4    4    0    0 -0.37612039544E+01  0.22168294539E+02 -0.31684632284E+02  0.38852231094E+02  0.00000000000E+00 0.  1.
         14    1    4    4    0    0  0.33045440481E+02 -0.56028701219E+01  0.31982761500E+02  0.46328072735E+02  0.00000000000E+00 0. -1.
         -5    1    5    5    0  502  0.33134337249E+02 -0.22430504826E+02  0.13483766141E+02  0.42484277104E+02  0.47000000000E+01 0.  1.
         13    1    6    6    0    0 -0.12054393620E+02  0.99175765315E+02  0.97521123524E+02  0.13961199936E+03  0.00000000000E+00 0. -1.
        -14    1    6    6    0    0 -0.49242790898E+02  0.12890248971E+02  0.44694754640E+02  0.67739442471E+02  0.00000000000E+00 0.  1.
</event>
<event>
12    1  0.8271773E-002  0.1758999E+03  0.7818608E-02  0.1171922E+00
         21   -1    0    0  501  502  0.00000000000E+00  0.00000000000E+00  0.15738502013E+03  0.15738502013E+03  0.00000000000E+00 0. -1.
         21   -1    0    0  502  503 -0.00000000000E+00 -0.00000000000E+00 -0.25372582552E+03  0.25372582552E+03  0.00000000000E+00 0. -1.
         -6    2    1    2    0  503  0.70062578726E+01 -0.35138407512E+02 -0.14601985330E+03  0.22833012409E+03  0.17184019517E+03 0.  0.
        -24    2    3    3    0    0  0.28604404804E+02  0.10882183609E+02 -0.15451316296E+03  0.17657492080E+03  0.79798190659E+02 0.  0.
          6    2    1    2  501    0 -0.70062578726E+01  0.35138407512E+02  0.49679047911E+02  0.18278072157E+03  0.17221204674E+03 0.  0.
         24    2    5    5    0    0  0.37967918599E+01 -0.68917445848E+01 -0.33496130482E+02  0.88847554532E+02  0.81914500652E+02 0.  0.
          5    1    5    5  501    0 -0.10803049732E+02  0.42030152097E+02  0.83175178394E+02  0.93933167037E+02  0.47000000000E+01 0. -1.
        -11    1    6    6    0    0  0.16450635470E+02 -0.25632459196E+02  0.16019255023E+02  0.34413121092E+02  0.00000000000E+00 0.  1.
         12    1    6    6    0    0 -0.12653843610E+02  0.18740714611E+02 -0.49515385505E+02  0.54434433440E+02  0.00000000000E+00 0. -1.
         -5    1    3    3    0  503 -0.21598146932E+02 -0.46020591121E+02  0.84933096620E+01  0.51755203284E+02  0.47000000000E+01 0.  1.
         11    1    4    4    0    0  0.36259282452E+02 -0.21848686647E+02 -0.12454015144E+03  0.13153839741E+03  0.00000000000E+00 0. -1.
        -12    1    4    4    0    0 -0.76548776479E+01  0.32730870256E+02 -0.29973011526E+02  0.45036523394E+02  0.00000000000E+00 0.  1.
</event>
<event>
12    1  0.8271773E-002  0.2102440E+03  0.7818608E-02  0.1141877E+00
         21   -1    0    0  501  502  0.00000000000E+00  0.00000000000E+00  0.87538307429E+02  0.87538307429E+02  0.00000000000E+00 0.  1.
         21   -1    0    0  502  503 -0.00000000000E+00 -0.00000000000E+00 -0.68811425607E+03  0.68811425607E+03  0.00000000000E+00 0.  1.
         -6    2    1    2    0  503 -0.10027408722E+03  0.64414641259E+02 -0.50234146180E+03  0.54359106064E+03  0.17011807188E+03 0.  0.
        -24    2    3    3    0    0 -0.84841514327E+02  0.76073304737E+02 -0.21871864882E+03  0.25927068010E+03  0.79988799053E+02 0.  0.
          6    2    1    2  501    0  0.10027408722E+03 -0.64414641259E+02 -0.98234486837E+02  0.23206150286E+03  0.17320042763E+03 0.  0.
         24    2    5    5    0    0  0.12352687783E+03 -0.84380465564E+02 -0.55620904238E+02  0.17936108699E+03  0.81839855946E+02 0.  0.
          5    1    5    5  501    0 -0.23252790612E+02  0.19965824305E+02 -0.42613582599E+02  0.52700415874E+02  0.47000000000E+01 0. -1.
        -13    1    6    6    0    0  0.66099680402E+02 -0.19657446387E+02  0.11421832104E+02  0.69900223149E+02  0.00000000000E+00 0.  1.
         14    1    6    6    0    0  0.57427197429E+02 -0.64723019177E+02 -0.67042736342E+02  0.10946086384E+03  0.00000000000E+00 0. -1.
         -5    1    3    3    0  503 -0.15432572892E+02 -0.11658663478E+02 -0.28362281299E+03  0.28432038053E+03  0.47000000000E+01 0.  1.
         13    1    4    4    0    0 -0.94980031194E+01 -0.13721875865E+02 -0.88587450094E+01  0.18893895936E+02  0.00000000000E+00 0. -1.
        -14    1    4    4    0    0 -0.75343511207E+02  0.89795180602E+02 -0.20985990381E+03  0.24037678417E+03  0.00000000000E+00 0.  1.
</event>
<event>
12    1  0.8271773E-002  0.1837268E+03  0.7818608E-02  0.1166251E+00
         21   -1    0    0  501  502  0.00000000000E+00  0.00000000000E+00  0.10690378592E+03  0.10690378592E+03  0.00000000000E+00 0.  1.
         21   -1    0    0  502  503 -0.00000000000E+00 -0.00000000000E+00 -0.50984068434E+03  0.50984068434E+03  0.00000000000E+00 0.  1.
         -6    2    1    2    0  503 -0.37791164646E+02  0.56453377301E+02 -0.40125707418E+03  0.44131937859E+03  0.17070558985E+03 0.  0.
        -24    2    3    3    0    0 -0.92018146698E+02  0.42560743671E+02 -0.25682172240E+03  0.28634443966E+03  0.75874796905E+02 0.  0.
          6    2    1    2  501    0  0.37791164646E+02 -0.56453377301E+02 -0.16798242406E+01  0.17542509167E+03  0.16172812076E+03 0.  0.
         24    2    5    5    0    0  0.38111617175E+02 -0.94246836269E+02  0.21127566123E+02  0.13103235256E+03  0.79925852246E+02 0.  0.
          5    1    5    5  501    0 -0.32045252837E+00  0.37793458968E+02 -0.22807390364E+02  0.44392739111E+02  0.47000000000E+01 0. -1.
        -11    1    6    6    0    0  0.45277264545E+02 -0.16503673976E+02  0.21951378124E+02  0.52955310791E+02  0.00000000000E+00 0.  1.
         12    1    6    6    0    0 -0.71656473706E+01 -0.77743162293E+02 -0.82381200051E+00  0.78077041772E+02  0.00000000000E+00 0. -1.
         -5    1    3    3    0  503  0.54226982052E+02  0.13892633630E+02 -0.14443535178E+03  0.15497493893E+03  0.47000000000E+01 0.  1.
         11    1    4    4    0    0 -0.64073042011E+02  0.64234392811E+02 -0.17242924223E+03  0.19484161647E+03  0.00000000000E+00 0. -1.
        -12    1    4    4    0    0 -0.27945104687E+02 -0.21673649140E+02 -0.84392480166E+02  0.91502823189E+02  0.00000000000E+00 0.  1.
</event>
<event>
12    1  0.8271773E-002  0.3399094E+03  0.7818608E-02  0.1067311E+00
         21   -1    0    0  501  502  0.00000000000E+00  0.00000000000E+00  0.12320335307E+04  0.12320335307E+04  0.00000000000E+00 0.  1.
         21   -1    0    0  502  503 -0.00000000000E+00 -0.00000000000E+00 -0.29663324385E+03  0.29663324385E+03  0.00000000000E+00 0.  1.
         -6    2    1    2    0  503  0.29061896788E+03  0.34837786268E+02 -0.16530610513E+03  0.37797422512E+03  0.17281594435E+03 0.  0.
        -24    2    3    3    0    0  0.21782316448E+03 -0.31284977906E+02 -0.15033924653E+03  0.27838734953E+03  0.80448408958E+02 0.  0.
          6    2    1    2  501    0 -0.29061896788E+03 -0.34837786268E+02  0.11007063920E+04  0.11506925494E+04  0.16390767553E+03 0.  0.
         24    2    5    5    0    0 -0.28894726269E+03 -0.49644049015E+02  0.91044164132E+03  0.95978737568E+03  0.79578716087E+02 0.  0.
          5    1    5    5  501    0 -0.16717051940E+01  0.14806262748E+02  0.19026475069E+03  0.19090517376E+03  0.47000000000E+01 0. -1.
        -13    1    6    6    0    0 -0.41774384554E+02 -0.30173756637E+02  0.22660549230E+03  0.23239105821E+03  0.00000000000E+00 0.  1.
         14    1    6    6    0    0 -0.24717287813E+03 -0.19470292378E+02  0.68383614902E+03  0.72739631748E+03  0.00000000000E+00 0. -1.
         -5    1    3    3    0  503  0.72795803397E+02  0.66122764173E+02 -0.14966858607E+02  0.99586875595E+02  0.47000000000E+01 0.  1.
         11    1    4    4    0    0  0.11337756512E+02 -0.17895256792E+01  0.10060666790E+02  0.15263162881E+02  0.00000000000E+00 0. -1.
        -12    1    4    4    0    0  0.20648540797E+03 -0.29495452227E+02 -0.16039991332E+03  0.26312418665E+03  0.00000000000E+00 0.  1.
</event>
<event>
12    1  0.8271773E-002  0.2307948E+03  0.7818608E-02  0.1126643E+00
         21   -1    0    0  503  502  0.00000000000E+00  0.00000000000E+00  0.27678909935E+03  0.27678909935E+03  0.00000000000E+00 0.  1.
         21   -1    0    0  501  503 -0.00000000000E+00 -0.00000000000E+00 -0.31346774054E+03  0.31346774054E+03  0.00000000000E+00 0.  1.
          6    2    1    2  501    0 -0.87768403164E+02  0.12447906139E+03 -0.20378456188E+03  0.30788698774E+03  0.17340103876E+03 0.  0.
         24    2    3    3    0    0 -0.19845907135E+02  0.93797660088E+01 -0.13418196055E+03  0.15712915088E+03  0.78758691447E+02 0.  0.
         -6    2    1    2    0  502  0.87768403164E+02 -0.12447906139E+03  0.16710592069E+03  0.28236985214E+03  0.16914495366E+03 0.  0.
        -24    2    5    5    0    0 -0.77044238384E+01 -0.71968063968E+02  0.12468550266E+03  0.16534828399E+03  0.80961843275E+02 0.  0.
          5    1    3    3  501    0 -0.67922496028E+02  0.11509929538E+03 -0.69602601327E+02  0.15075783686E+03  0.47000000000E+01 0. -1.
        -13    1    4    4    0    0 -0.19520966380E+02  0.33179852064E+02 -0.12632982587E+03  0.13206511885E+03  0.00000000000E+00 0.  1.
         14    1    4    4    0    0 -0.32494075506E+00 -0.23800086055E+02 -0.78521346804E+01  0.25064032033E+02  0.00000000000E+00 0. -1.
         -5    1    5    5    0  502  0.95472827002E+02 -0.52510997423E+02  0.42420418027E+02  0.11702156815E+03  0.47000000000E+01 0.  1.
         11    1    6    6    0    0 -0.23828240442E+02  0.64033626273E+01  0.12798400552E+02  0.27795452005E+02  0.00000000000E+00 0. -1.
        -12    1    6    6    0    0  0.16123816603E+02 -0.78371426596E+02  0.11188710211E+03  0.13755283199E+03  0.00000000000E+00 0.  1.
</event>
<event>
12    1  0.8271773E-002  0.1745626E+03  0.7818608E-02  0.1173439E+00
         21   -1    0    0  503  502  0.00000000000E+00  0.00000000000E+00  0.55708965895E+02  0.55708965895E+02  0.00000000000E+00 0. -1.
         21   -1    0    0  501  503 -0.00000000000E+00 -0.00000000000E+00 -0.54832956972E+03  0.54832956972E+03  0.00000000000E+00 0. -1.
          6    2    1    2  501    0  0.26943564374E+01  0.32948971012E+02 -0.27340263119E+03  0.32380895274E+03  0.17032423459E+03 0.  0.
         24    2    3    3    0    0  0.54963348192E+02  0.57541848795E+02 -0.20613015866E+03  0.23501406158E+03  0.80062056078E+02 0.  0.
         -6    2    1    2    0  502 -0.26943564374E+01 -0.32948971012E+02 -0.21921797264E+03  0.28022958287E+03  0.17140363282E+03 0.  0.
        -24    2    5    5    0    0  0.62302156865E+02 -0.39818909671E+02 -0.14032343562E+03  0.17767140051E+03  0.80058451505E+02 0.  0.
          5    1    3    3  501    0 -0.52268991755E+02 -0.24592877783E+02 -0.67272472529E+02  0.88794891164E+02  0.47000000000E+01 0. -1.
        -13    1    4    4    0    0  0.53331753460E+02  0.71140004224E+02 -0.12896774251E+03  0.15664563427E+03  0.00000000000E+00 0.  1.
         14    1    4    4    0    0  0.16315947328E+01 -0.13598155430E+02 -0.77162416155E+02  0.78368427312E+02  0.00000000000E+00 0. -1.
         -5    1    5    5    0  502 -0.64996513303E+02  0.68699386593E+01 -0.78894537016E+02  0.10255818236E+03  0.47000000000E+01 0.  1.
         11    1    6    6    0    0  0.23548653123E+02  0.19767208169E+02 -0.75306786314E+02  0.81341217397E+02  0.00000000000E+00 0. -1.
        -12    1    6    6    0    0  0.38753503742E+02 -0.59586117840E+02 -0.65016649307E+02  0.96330183113E+02  0.00000000000E+00 0.  1.
</event>
<event>
12    1  0.8271773E-002  0.2208030E+03  0.7818608E-02  0.1133542E+00
         21   -1    0    0  501  502  0.00000000000E+00  0.00000000000E+00  0.76705984301E+03  0.76705984301E+03  0.00000000000E+00 0.  1.
         21   -1    0    0  502  503 -0.00000000000E+00 -0.00000000000E+00 -0.11888788011E+03  0.11888788011E+03  0.00000000000E+00 0. -1.
         -6    2    1    2    0  503 -0.87361782564E+02 -0.10724014885E+03  0.21353703822E+02  0.22183319645E+03  0.17210884870E+03 0.  0.
        -24    2    3    3    0    0 -0.25804781140E+02 -0.40907256823E+02  0.72084885524E+02  0.11798205401E+03  0.79901464050E+02 0.  0.
          6    2    1    2  501    0  0.87361782564E+02  0.10724014885E+03  0.62681825908E+03  0.66411452667E+03  0.17033626754E+03 0.  0.
         24    2    5    5    0    0  0.72034692269E+02  0.87970955526E+02  0.62379800381E+03  0.63886708224E+03  0.78098100525E+02 0.  0.
          5    1    5    5  501    0  0.15327090296E+02  0.19269193320E+02  0.30202552664E+01  0.25247444425E+02  0.47000000000E+01 0. -1.
        -13    1    6    6    0    0 -0.96384381253E+01  0.77099962631E+01  0.18375948204E+03  0.18417353439E+03  0.00000000000E+00 0.  1.
         14    1    6    6    0    0  0.81673130394E+02  0.80260959263E+02  0.44003852177E+03  0.45469354785E+03  0.00000000000E+00 0. -1.
         -5    1    3    3    0  503 -0.61557001425E+02 -0.66332892023E+02 -0.50731181702E+02  0.10385114244E+03  0.47000000000E+01 0.  1.
         11    1    4    4    0    0  0.24135740204E+02 -0.84393899246E-01  0.44907584239E+01  0.24550111787E+02  0.00000000000E+00 0. -1.
        -12    1    4    4    0    0 -0.49940521344E+02 -0.40822862923E+02  0.67594127100E+02  0.93431942224E+02  0.00000000000E+00 0.  1.
</event>
<event>
12    1  0.8271773E-002  0.1845141E+03  0.7818608E-02  0.1163835E+00
         21   -1    0    0  503  502  0.00000000000E+00  0.00000000000E+00  0.62163402327E+03  0.62163402327E+03  0.00000000000E+00 0. -1.
         21   -1    0    0  501  503 -0.00000000000E+00 -0.00000000000E+00 -0.10054936851E+03  0.10054936851E+03  0.00000000000E+00 0. -1.
          6    2    1    2  501    0  0.10304317366E+02  0.62786901162E+02  0.15243176863E+02  0.18374022563E+03  0.17169665739E+03 0.  0.
         24    2    3    3    0    0  0.29467585838E+02 -0.27068789973E+02 -0.18470925010E+02  0.85760601456E+02  0.73570698553E+02 0.  0.
         -6    2    1    2    0  502 -0.10304317366E+02 -0.62786901162E+02  0.50584147790E+03  0.53844316615E+03  0.17319661804E+03 0.  0.
        -24    2    5    5    0    0 -0.16591255425E+02  0.32287394210E+02  0.26515646139E+03  0.27954161266E+03  0.80733008176E+02 0.  0.
          5    1    3    3  501    0 -0.19163268472E+02  0.89855691134E+02  0.33714101873E+02  0.97979624172E+02  0.47000000000E+01 0. -1.
        -13    1    4    4    0    0 -0.17770204796E+02 -0.31164207242E+02 -0.12406755505E+02  0.37959393747E+02  0.00000000000E+00 0.  1.
         14    1    4    4    0    0  0.47237790634E+02  0.40954172690E+01 -0.60641695054E+01  0.47801207709E+02  0.00000000000E+00 0. -1.
         -5    1    5    5    0  502  0.62869380594E+01 -0.95074295371E+02  0.24068501650E+03  0.25890155349E+03  0.47000000000E+01 0.  1.
         11    1    6    6    0    0 -0.11588239616E+02 -0.79275878710E+01  0.21314187763E+03  0.21360382475E+03  0.00000000000E+00 0. -1.
        -12    1    6    6    0    0 -0.50030158097E+01  0.40214982081E+02  0.52014583763E+02  0.65937787914E+02  0.00000000000E+00 0.  1.
</event>
<event>
12    1  0.8271773E-002  0.2736446E+03  0.7818608E-02  0.1099269E+00
         21   -1    0    0  503  502  0.00000000000E+00  0.00000000000E+00  0.30852146642E+03  0.30852146642E+03  0.00000000000E+00 0.  1.
         21   -1    0    0  501  503 -0.00000000000E+00 -0.00000000000E+00 -0.31869858831E+03  0.31869858831E+03  0.00000000000E+00 0. -1.
          6    2    1    2  501    0  0.20235960462E+03 -0.64525109161E+02 -0.15858117679E+03  0.31592418305E+03  0.17189299145E+03 0.  0.
         24    2    3    3    0    0  0.79110002210E+02  0.25920297331E+02 -0.11209479158E+03  0.15606827900E+03  0.69726688911E+02 0.  0.
         -6    2    1    2    0  502 -0.20235960462E+03  0.64525109161E+02  0.14840405490E+03  0.31129587168E+03  0.17253537876E+03 0.  0.
        -24    2    5    5    0    0 -0.81536077718E+02 -0.64321986147E+01  0.14776194455E+02  0.11761634446E+03  0.83221171661E+02 0.  0.
          5    1    3    3  501    0  0.12324960241E+03 -0.90445406492E+02 -0.46486385209E+02  0.15985590405E+03  0.47000000000E+01 0. -1.
        -13    1    4    4    0    0 -0.12100358019E+02  0.10521733398E+02 -0.18365533207E+02  0.24380696214E+02  0.00000000000E+00 0.  1.
         14    1    4    4    0    0  0.91210360229E+02  0.15398563933E+02 -0.93729258377E+02  0.13168758279E+03  0.00000000000E+00 0. -1.
         -5    1    5    5    0  502 -0.12082352690E+03  0.70957307776E+02  0.13362786044E+03  0.19367952723E+03  0.47000000000E+01 0.  1.
         11    1    6    6    0    0 -0.67716433118E+01  0.29017138575E+02 -0.96887861876E+01  0.31332444239E+02  0.00000000000E+00 0. -1.
        -12    1    6    6    0    0 -0.74764434406E+02 -0.35449337189E+02  0.24464980642E+02  0.86283900219E+02  0.00000000000E+00 0.  1.
</event>
<event>
12    1  0.8271773E-002  0.1949222E+03  0.7818608E-02  0.1155937E+00
         21   -1    0    0  501  502  0.00000000000E+00  0.00000000000E+00  0.12586159471E+04  0.12586159471E+04  0.00000000000E+00 0.  1.
         21   -1    0    0  502  503 -0.00000000000E+00 -0.00000000000E+00 -0.30230442858E+02  0.30230442858E+02  0.00000000000E+00 0.  1.
         -6    2    1    2    0  503 -0.72246641476E+02  0.18639954188E+02  0.49294202405E+03  0.53008160886E+03  0.18007678329E+03 0.  0.
        -24    2    3    3    0    0 -0.41805451154E+01 -0.23068111639E+02  0.10304163410E+03  0.13206532740E+03  0.79208949052E+02 0.  0.
          6    2    1    2  501    0  0.72246641476E+02 -0.18639954188E+02  0.73544348019E+03  0.75876478110E+03  0.17111357450E+03 0.  0.
         24    2    5    5    0    0  0.10722751924E+03  0.18340747095E+02  0.57076730136E+03  0.58633633811E+03  0.78618478747E+02 0.  0.
          5    1    5    5  501    0 -0.34980877761E+02 -0.36980701282E+02  0.16467617883E+03  0.17242844298E+03  0.47000000000E+01 0. -1.
        -11    1    6    6    0    0  0.58260536520E+02 -0.28009348143E+02  0.22729603614E+03  0.23630975804E+03  0.00000000000E+00 0.  1.
         12    1    6    6    0    0  0.48966982717E+02  0.46350095238E+02  0.34347126523E+03  0.35002658008E+03  0.00000000000E+00 0. -1.
         -5    1    3    3    0  503 -0.68066096360E+02  0.41708065827E+02  0.38990038995E+03  0.39801628146E+03  0.47000000000E+01 0.  1.
         13    1    4    4    0    0  0.29164005294E+02  0.13509663274E+02  0.50683629094E+02  0.60015668494E+02  0.00000000000E+00 0. -1.
        -14    1    4    4    0    0 -0.33344550409E+02 -0.36577774914E+02  0.52358005010E+02  0.72049658904E+02  0.00000000000E+00 0.  1.
</event>
<event>
12    1  0.8271773E-002  0.1752272E+03  0.7818608E-02  0.1172644E+00
         21   -1    0    0  503  502  0.00000000000E+00  0.00000000000E+00  0.26753686213E+04  0.26753686213E+04  0.00000000000E+00 0. -1.
         21   -1    0    0  501  503 -0.00000000000E+00 -0.00000000000E+00 -0.27397359554E+02  0.27397359554E+02  0.00000000000E+00 0. -1.
          6    2    1    2  501    0 -0.17273957243E+02  0.25282933901E+02  0.29352883868E+03  0.34185339062E+03  0.17253099779E+03 0.  0.
         24    2    3    3    0    0 -0.58909587942E+02 -0.17857083709E+02  0.24244859828E+03  0.26294922203E+03  0.81066365189E+02 0.  0.
         -6    2    1    2    0  502  0.17273957243E+02 -0.25282933901E+02  0.23544424230E+04  0.23609125902E+04  0.17196371370E+03 0.  0.
        -24    2    5    5    0    0 -0.19174662007E+02  0.43987867046E+02  0.12375215427E+04  0.12412424206E+04  0.83190011418E+02 0.  0.
          5    1    3    3  501    0  0.41635630699E+02  0.43140017610E+02  0.51080240397E+02  0.78904168598E+02  0.47000000000E+01 0. -1.
        -13    1    4    4    0    0 -0.28513304235E+02  0.32170830274E+02  0.93426067552E+02  0.10284163037E+03  0.00000000000E+00 0.  1.
         14    1    4    4    0    0 -0.30396283707E+02 -0.50027913983E+02  0.14902253073E+03  0.16010759166E+03  0.00000000000E+00 0. -1.
         -5    1    5    5    0  502  0.36448619250E+02 -0.69270800947E+02  0.11169208804E+04  0.11196701696E+04  0.47000000000E+01 0.  1.
         11    1    6    6    0    0  0.25533250873E+01  0.62161245147E+02  0.10182487347E+04  0.10201475509E+04  0.00000000000E+00 0. -1.
        -12    1    6    6    0    0 -0.21727987094E+02 -0.18173378101E+02  0.21927280797E+03  0.22109486970E+03  0.00000000000E+00 0.  1.
</event>
<event>
12    1  0.8271773E-002  0.2238059E+03  0.7818608E-02  0.1131550E+00
         21   -1    0    0  501  502  0.00000000000E+00  0.00000000000E+00  0.50618234315E+02  0.50618234315E+02  0.00000000000E+00 0.  1.
         21   -1    0    0  502  503 -0.00000000000E+00 -0.00000000000E+00 -0.18908262199E+04  0.18908262199E+04  0.00000000000E+00 0. -1.
         -6    2    1    2    0  503  0.76482196246E+02  0.12074536560E+03 -0.15917442096E+04  0.16070444960E+04  0.16885915371E+03 0.  0.
        -24    2    3    3    0    0  0.11807547943E+03  0.97497028419E+02 -0.12943652770E+04  0.13058355886E+04  0.79860031693E+02 0.  0.
          6    2    1    2  501    0 -0.76482196246E+02 -0.12074536560E+03 -0.24846377597E+03  0.33439995817E+03  0.17222112064E+03 0.  0.
         24    2    5    5    0    0 -0.79152511011E+02 -0.15195693464E+02 -0.91948467889E+02  0.14554288117E+03  0.78944160087E+02 0.  0.
          5    1    5    5  501    0  0.26703147644E+01 -0.10554967213E+03 -0.15651530808E+03  0.18885707700E+03  0.47000000000E+01 0. -1.
        -13    1    6    6    0    0 -0.64891526710E+02 -0.37830276959E+02 -0.35508752782E+02  0.83083762660E+02  0.00000000000E+00 0.  1.
         14    1    6    6    0    0 -0.14260984300E+02  0.22634583494E+02 -0.56439715107E+02  0.62459118506E+02  0.00000000000E+00 0. -1.
         -5    1    3    3    0  503 -0.41593283180E+02  0.23248337178E+02 -0.29737893258E+03  0.30120890746E+03  0.47000000000E+01 0.  1.
         13    1    4    4    0    0  0.97691215562E+01  0.54048698385E+02 -0.34909957925E+03  0.35339385078E+03  0.00000000000E+00 0. -1.
        -14    1    4    4    0    0  0.10830635787E+03  0.43448330034E+02 -0.94526569773E+03  0.95244173777E+03  0.00000000000E+00 0.  1.
</event>
<event>
12    1  0.8271773E-002  0.1918531E+03  0.7818608E-02  0.1157010E+00
         21   -1    0    0  501  502  0.00000000000E+00  0.00000000000E+00  0.58251137160E+03  0.58251137160E+03  0.00000000000E+00 0.  1.
         21   -1    0    0  502  503 -0.00000000000E+00 -0.00000000000E+00 -0.29112422565E+03  0.29112422565E+03  0.00000000000E+00 0.  1.
         -6    2    1    2    0  503  0.59670042319E+02  0.61297265978E+02 -0.24116147504E+03  0.30758289832E+03  0.17067663439E+03 0.  0.
        -24    2    3    3    0    0 -0.31577099029E+02  0.11297991133E+02 -0.11921164950E+03  0.14720890342E+03  0.79588228301E+02 0.  0.
          6    2    1    2  501    0 -0.59670042319E+02 -0.61297265978E+02  0.53254862099E+03  0.56605269894E+03  0.17172581486E+03 0.  0.
         24    2    5    5    0    0 -0.47347547262E+02  0.22629116336E+02  0.18332681651E+03  0.20664563132E+03  0.79623037826E+02 0.  0.
          5    1    5    5  501    0 -0.12322495057E+02 -0.83926382314E+02  0.34922180448E+03  0.35940706762E+03  0.47000000000E+01 0. -1.
        -13    1    6    6    0    0 -0.26167212281E+02 -0.76881524308E+01  0.16132221138E+03  0.16361138888E+03  0.00000000000E+00 0.  1.
         14    1    6    6    0    0 -0.21180334981E+02  0.30317268766E+02  0.22004605133E+02  0.43034242440E+02  0.00000000000E+00 0. -1.
         -5    1    3    3    0  503  0.91247141348E+02  0.49999274845E+02 -0.12194982554E+03  0.16037399489E+03  0.47000000000E+01 0.  1.
         13    1    4    4    0    0 -0.27667575721E+02 -0.15887209651E+02 -0.83266772424E+01  0.32973197156E+02  0.00000000000E+00 0. -1.
        -14    1    4    4    0    0 -0.39095233079E+01  0.27185200784E+02 -0.11088497225E+03  0.11423570627E+03  0.00000000000E+00 0.  1.
</event>
<event>
12    1  0.8271773E-002  0.2000363E+03  0.7818608E-02  0.1150167E+00
         21   -1    0    0  503  502  0.00000000000E+00  0.00000000000E+00  0.59279041522E+02  0.59279041522E+02  0.00000000000E+00 0. -1.
         21   -1    0    0  501  503 -0.00000000000E+00 -0.00000000000E+00 -0.85283780231E+03  0.85283780231E+03  0.00000000000E+00 0. -1.
          6    2    1    2  501    0  0.93737902652E+02  0.24977128468E+02 -0.61093014493E+03  0.64284536417E+03  0.17493961505E+03 0.  0.
         24    2    3    3    0    0 -0.91055533157E+01 -0.23828679608E+02 -0.31572684610E+03  0.32641865705E+03  0.78835152390E+02 0.  0.
         -6    2    1    2    0  502 -0.93737902652E+02 -0.24977128468E+02 -0.18262861586E+03  0.26927147966E+03  0.17246236426E+03 0.  0.
        -24    2    5    5    0    0 -0.12644877286E+03  0.36165088023E+01 -0.16396617300E+03  0.22175333685E+03  0.79292277186E+02 0.  0.
          5    1    3    3  501    0  0.10284345597E+03  0.48805808075E+02 -0.29520329883E+03  0.31642670712E+03  0.47000000000E+01 0. -1.
        -13    1    4    4    0    0 -0.33015895850E+02  0.15357108511E+02 -0.12138102123E+03  0.12672506648E+03  0.00000000000E+00 0.  1.
         14    1    4    4    0    0  0.23910342534E+02 -0.39185788119E+02 -0.19434582487E+03  0.19969359057E+03  0.00000000000E+00 0. -1.
         -5    1    5    5    0  502  0.32710870211E+02 -0.28593637270E+02 -0.18662442852E+02  0.47518142804E+02  0.47000000000E+01 0.  1.
         11    1    6    6    0    0 -0.10187717233E+03 -0.18590208571E+02 -0.78059899778E+02  0.12968385424E+03  0.00000000000E+00 0. -1.
        -12    1    6    6    0    0 -0.24571600531E+02  0.22206717373E+02 -0.85906273226E+02  0.92069482613E+02  0.00000000000E+00 0.  1.
</event>
<event>
12    1  0.8271773E-002  0.1887078E+03  0.7818608E-02  0.1159829E+00
         21   -1    0    0  501  502  0.00000000000E+00  0.00000000000E+00  0.22699452186E+04  0.22699452186E+04  0.00000000000E+00 0. -1.
         21   -1    0    0  502  503 -0.00000000000E+00 -0.00000000000E+00 -0.16243867513E+02  0.16243867513E+02  0.00000000000E+00 0.  1.
         -6    2    1    2    0  503 -0.64091420160E+02  0.38423293916E+02  0.89964779671E+03  0.91904913048E+03  0.17234003149E+03 0.  0.
        -24    2    3    3    0    0 -0.63334584001E+02  0.83049010485E+02  0.50634084854E+03  0.52318997262E+03  0.80238923712E+02 0.  0.
          6    2    1    2  501    0  0.64091420160E+02 -0.38423293916E+02  0.13540535544E+04  0.13671399557E+04  0.17328176627E+03 0.  0.
         24    2    5    5    0    0  0.28214169124E+02 -0.34662267545E+02  0.36132991689E+03  0.37374998544E+03  0.84452534868E+02 0.  0.
          5    1    5    5  501    0  0.35877251036E+02 -0.37610263713E+01  0.99272363751E+03  0.99338997022E+03  0.47000000000E+01 0. -1.
        -11    1    6    6    0    0  0.27853419894E+02  0.41410294713E+01  0.34085895758E+02  0.44213226692E+02  0.00000000000E+00 0.  1.
         12    1    6    6    0    0  0.36074923014E+00 -0.38803297016E+02  0.32724402113E+03  0.32953675875E+03  0.00000000000E+00 0. -1.
         -5    1    3    3    0  503 -0.75683615941E+00 -0.44625716568E+02  0.39330694817E+03  0.39585915785E+03  0.47000000000E+01 0.  1.
         13    1    4    4    0    0 -0.10007061050E+02  0.74229470438E+02  0.23986468050E+03  0.25128712761E+03  0.00000000000E+00 0. -1.
        -14    1    4    4    0    0 -0.53327522951E+02  0.88195400469E+01  0.26647616804E+03  0.27190284501E+03  0.00000000000E+00 0.  1.
</event>
<event>
12    1  0.8271773E-002  0.1781383E+03  0.7818608E-02  0.1169865E+00
         21   -1    0    0  503  502  0.00000000000E+00  0.00000000000E+00  0.26521429406E+03  0.26521429406E+03  0.00000000000E+00 0.  1.
         21   -1    0    0  501  503 -0.00000000000E+00 -0.00000000000E+00 -0.11897672492E+03  0.11897672492E+03  0.00000000000E+00 0.  1.
          6    2    1    2  501    0  0.32573898242E+02 -0.32379092553E+02  0.74234281870E+02  0.19298699393E+03  0.17211562027E+03 0.  0.
         24    2    3    3    0    0 -0.30872967384E+02 -0.33461253973E+02 -0.10633599051E+02  0.86914740055E+02  0.73268703943E+02 0.  0.
         -6    2    1    2    0  502 -0.32573898242E+02  0.32379092553E+02  0.72003287268E+02  0.19120402505E+03  0.17107028186E+03 0.  0.
        -24    2    5    5    0    0 -0.18463059653E+01  0.19595846096E+02  0.11203187024E+03  0.13893573857E+03  0.79778402291E+02 0.  0.
          5    1    3    3  501    0  0.63446865626E+02  0.10821614207E+01  0.84867880921E+02  0.10607225388E+03  0.47000000000E+01 0. -1.
        -13    1    4    4    0    0  0.20290873755E+02 -0.18017191494E+02 -0.18574710578E+02  0.32884017700E+02  0.00000000000E+00 0.  1.
         14    1    4    4    0    0 -0.51163841138E+02 -0.15444062479E+02  0.79411115269E+01  0.54030722355E+02  0.00000000000E+00 0. -1.
         -5    1    5    5    0  502 -0.30727592276E+02  0.12783246457E+02 -0.40028582969E+02  0.52268286480E+02  0.47000000000E+01 0.  1.
         11    1    6    6    0    0  0.37792075411E+02  0.17917429027E+02  0.48604716212E+02  0.64122489540E+02  0.00000000000E+00 0. -1.
        -12    1    6    6    0    0 -0.39638381377E+02  0.16784170694E+01  0.63427154026E+02  0.74813249026E+02  0.00000000000E+00 0.  1.
</event>
<event>
12    1  0.8271773E-002  0.1914770E+03  0.7818608E-02  0.1157163E+00
         21   -1    0    0  501  502  0.00000000000E+00  0.00000000000E+00  0.15510437080E+04  0.15510437080E+04  0.00000000000E+00 0.  1.
         21   -1    0    0  502  503 -0.00000000000E+00 -0.00000000000E+00 -0.61658277154E+02  0.61658277154E+02  0.00000000000E+00 0.  1.
         -6    2    1    2    0  503  0.70844530051E+02  0.44789255585E+02  0.11146445653E+03  0.22155756297E+03  0.17215807790E+03 0.  0.
        -24    2    3    3    0    0  0.12078620043E+02 -0.20517123572E+02  0.10417562724E+03  0.13327635109E+03  0.79644077167E+02 0.  0.
          6    2    1    2  501    0 -0.70844530051E+02 -0.44789255585E+02  0.13779209743E+04  0.13911444222E+04  0.17202199587E+03 0.  0.
         24    2    5    5    0    0  0.20362082749E+02  0.65620174133E+01  0.71055319199E+03  0.71560208721E+03  0.82114761677E+02 0.  0.
          5    1    5    5  501    0 -0.91206612800E+02 -0.51351272998E+02  0.66736778231E+03  0.67554233496E+03  0.47000000000E+01 0. -1.
        -11    1    6    6    0    0 -0.96133787064E+01  0.11461237699E+02  0.61823141016E+03  0.61841236528E+03  0.00000000000E+00 0.  1.
         12    1    6    6    0    0  0.29975461456E+02 -0.48992202857E+01  0.92321781822E+02  0.97189721924E+02  0.00000000000E+00 0. -1.
         -5    1    3    3    0  503  0.58765910008E+02  0.65306379157E+02  0.72888292869E+01  0.88281211874E+02  0.47000000000E+01 0.  1.
         13    1    4    4    0    0  0.90563285070E+01 -0.41360316189E+02  0.20595762085E+02  0.47083736652E+02  0.00000000000E+00 0. -1.
        -14    1    4    4    0    0  0.30222915363E+01  0.20843192617E+02  0.83579865155E+02  0.86192614440E+02  0.00000000000E+00 0.  1.
</event>
<event>
12    1  0.8271773E-002  0.1759500E+03  0.7818608E-02  0.1173489E+00
         21   -1    0    0  501  502  0.00000000000E+00  0.00000000000E+00  0.32023807238E+03  0.32023807238E+03  0.00000000000E+00 0.  1.
         21   -1    0    0  502  503 -0.00000000000E+00 -0.00000000000E+00 -0.13811945400E+03  0.13811945400E+03  0.00000000000E+00 0.  1.
         -6    2    1    2    0  503  0.15924150362E+02  0.15978974620E+02 -0.38687876049E+02  0.18015314169E+03  0.17449784100E+03 0.  0.
        -24    2    3    3    0    0  0.11490477175E+02  0.79094464597E+02 -0.18884323102E+02  0.11368891641E+03  0.78616707260E+02 0.  0.
          6    2    1    2  501    0 -0.15924150362E+02 -0.15978974620E+02  0.22080649443E+03  0.27820438468E+03  0.16772973940E+03 0.  0.
         24    2    5    5    0    0 -0.25259968887E+02  0.51996162307E+02  0.10931312905E+03  0.14720576914E+03  0.79865583103E+02 0.  0.
          5    1    5    5  501    0  0.93358185256E+01 -0.67975136927E+02  0.11149336538E+03  0.13099861554E+03  0.47000000000E+01 0. -1.
        -11    1    6    6    0    0 -0.10077319823E+02 -0.29968200769E+01  0.84232012802E+02  0.84885601171E+02  0.00000000000E+00 0.  1.
         12    1    6    6    0    0 -0.15182649064E+02  0.54992982384E+02  0.25081116244E+02  0.62320167973E+02  0.00000000000E+00 0. -1.
         -5    1    3    3    0  503  0.44336731864E+01 -0.63115489977E+02 -0.19803552947E+02  0.66464225281E+02  0.47000000000E+01 0.  1.
         13    1    4    4    0    0  0.11474536649E+02 -0.46464958400E+00  0.21569063934E+02  0.24435740413E+02  0.00000000000E+00 0. -1.
        -14    1    4    4    0    0  0.15940525899E-01  0.79559114181E+02 -0.40453387036E+02  0.89253175999E+02  0.00000000000E+00 0.  1.
</event>
<event>
12    1  0.8271773E-002  0.2159629E+03  0.7818608E-02  0.1137950E+00
         21   -1    0    0  501  502  0.00000000000E+00  0.00000000000E+00  0.64325829477E+03  0.64325829477E+03  0.00000000000E+00 0. -1.
         21   -1    0    0  502  503 -0.00000000000E+00 -0.00000000000E+00 -0.71091081232E+02  0.71091081232E+02  0.00000000000E+00 0. -1.
         -6    2    1    2    0  503 -0.53179148499E+02 -0.10923753809E+03  0.30749898536E+03  0.37275132955E+03  0.17212514667E+03 0.  0.
        -24    2    3    3    0    0 -0.66833105158E+01 -0.12798970784E+03  0.17857594232E+03  0.23434342570E+03  0.81249258715E+02 0.  0.
          6    2    1    2  501    0  0.53179148499E+02  0.10923753809E+03  0.26466822818E+03  0.34159804645E+03  0.17854717240E+03 0.  0.
         24    2    5    5    0    0  0.65090594202E+02  0.49348893972E+02  0.51998454094E+02  0.12028592514E+03  0.71363616560E+02 0.  0.
          5    1    5    5  501    0 -0.11911445703E+02  0.59888644119E+02  0.21266977408E+03  0.22131212132E+03  0.47000000000E+01 0. -1.
        -11    1    6    6    0    0  0.61995467757E+02  0.31050547698E+01  0.31490204910E+02  0.69603968226E+02  0.00000000000E+00 0.  1.
         12    1    6    6    0    0  0.30951264445E+01  0.46243839202E+02  0.20508249184E+02  0.50681956912E+02  0.00000000000E+00 0. -1.
         -5    1    3    3    0  503 -0.46495837983E+02  0.18752169747E+02  0.12892304304E+03  0.13840790385E+03  0.47000000000E+01 0.  1.
         11    1    4    4    0    0 -0.18637723566E+02 -0.86565217961E+02  0.16806600801E+03  0.18996600946E+03  0.00000000000E+00 0. -1.
        -12    1    4    4    0    0  0.11954413051E+02 -0.41424489877E+02  0.10509934303E+02  0.44377416239E+02  0.00000000000E+00 0.  1.
</event>
<event>
12    1  0.8271773E-002  0.2236860E+03  0.7818608E-02  0.1131292E+00
         21   -1    0    0  501  502  0.00000000000E+00  0.00000000000E+00  0.23026011240E+03  0.23026011240E+03  0.00000000000E+00 0. -1.
         21   -1    0    0  502  503 -0.00000000000E+00 -0.00000000000E+00 -0.21701551836E+03  0.21701551836E+03  0.00000000000E+00 0. -1.
         -6    2    1    2    0  503 -0.20543965797E+02 -0.14225289400E+03 -0.29102127458E+01  0.22370488079E+03  0.17139855299E+03 0.  0.
        -24    2    3    3    0    0  0.11877140924E+02 -0.16311277255E+03 -0.65517977532E+01  0.18469701190E+03  0.85575797419E+02 0.  0.
          6    2    1    2  501    0  0.20543965797E+02  0.14225289400E+03  0.16154806781E+02  0.22357074998E+03  0.17048449220E+03 0.  0.
         24    2    5    5    0    0  0.29302170400E+02  0.11198191491E+03 -0.50555408495E+02  0.14964253381E+03  0.80240090609E+02 0.  0.
          5    1    5    5  501    0 -0.87582046032E+01  0.30270979097E+02  0.66710215276E+02  0.73928216166E+02  0.47000000000E+01 0. -1.
        -11    1    6    6    0    0 -0.15677882752E+02  0.22384207708E+02 -0.40537193088E+02  0.48888779753E+02  0.00000000000E+00 0.  1.
         12    1    6    6    0    0  0.44980053152E+02  0.89597707198E+02 -0.10018215407E+02  0.10075375406E+03  0.00000000000E+00 0. -1.
         -5    1    3    3    0  503 -0.32421106721E+02  0.20859878548E+02  0.36415850074E+01  0.39007868891E+02  0.47000000000E+01 0.  1.
         11    1    4    4    0    0 -0.28641593553E+02 -0.26365457727E+02 -0.15246417721E+02  0.41808270662E+02  0.00000000000E+00 0. -1.
        -12    1    4    4    0    0  0.40518734477E+02 -0.13674731483E+03  0.86946199678E+01  0.14288874124E+03  0.00000000000E+00 0.  1.
</event>
<event>
12    1  0.8271773E-002  0.2646063E+03  0.7818608E-02  0.1105680E+00
         21   -1    0    0  503  502  0.00000000000E+00  0.00000000000E+00  0.71635930803E+02  0.71635930803E+02  0.00000000000E+00 0. -1.
         21   -1    0    0  501  503 -0.00000000000E+00 -0.00000000000E+00 -0.94747626601E+03  0.94747626601E+03  0.00000000000E+00 0. -1.
          6    2    1    2  501    0 -0.19063585230E+03 -0.46162654028E+02 -0.41186720604E+03  0.48498902763E+03  0.16464125455E+03 0.  0.
         24    2    3    3    0    0 -0.20950145185E+03 -0.41317165875E+02 -0.40324424402E+03  0.46317538337E+03  0.79545891849E+02 0.  0.
         -6    2    1    2    0  502  0.19063585230E+03  0.46162654028E+02 -0.46397312916E+03  0.53412316918E+03  0.17760483231E+03 0.  0.
        -24    2    5    5    0    0  0.11392265821E+03 -0.30935897276E+02 -0.34196921583E+03  0.37061125637E+03  0.80463389079E+02 0.  0.
          5    1    3    3  501    0  0.18865599545E+02 -0.48454881530E+01 -0.86229620296E+01  0.21813644258E+02  0.47000000000E+01 0. -1.
        -13    1    4    4    0    0 -0.26975116612E+02 -0.36136433062E+02 -0.72763033893E+02  0.85603491821E+02  0.00000000000E+00 0.  1.
         14    1    4    4    0    0 -0.18252633524E+03 -0.51807328134E+01 -0.33048121012E+03  0.37757189155E+03  0.00000000000E+00 0. -1.
         -5    1    5    5    0  502  0.76713194095E+02  0.77098551304E+02 -0.12200391334E+03  0.16351191281E+03  0.47000000000E+01 0.  1.
         13    1    6    6    0    0  0.67859310779E+02  0.22986001992E+02 -0.15989624487E+03  0.17521430156E+03  0.00000000000E+00 0. -1.
        -14    1    6    6    0    0  0.46063347429E+02 -0.53921899268E+02 -0.18207297095E+03  0.19539695481E+03  0.00000000000E+00 0.  1.
</event>
<event>
12    1  0.8271773E-002  0.2141583E+03  0.7818608E-02  0.1138371E+00
         21   -1    0    0  501  502  0.00000000000E+00  0.00000000000E+00  0.61702005986E+02  0.61702005986E+02  0.00000000000E+00 0.  1.
         21   -1    0    0  502  503 -0.00000000000E+00 -0.00000000000E+00 -0.78646828966E+03  0.78646828966E+03  0.00000000000E+00 0. -1.
         -6    2    1    2    0  503  0.39507727668E+02 -0.12048885805E+03 -0.46264329581E+03  0.50968507495E+03  0.17222552369E+03 0.  0.
        -24    2    3    3    0    0 -0.23911669881E+02 -0.29234030970E+02 -0.13778612999E+03  0.16631394682E+03  0.85140558876E+02 0.  0.
          6    2    1    2  501    0 -0.39507727668E+02  0.12048885805E+03 -0.26212298786E+03  0.33848522069E+03  0.17258435156E+03 0.  0.
         24    2    5    5    0    0  0.33621438713E+02  0.80818160501E+02 -0.10710961244E+03  0.16249409654E+03  0.85263627219E+02 0.  0.
          5    1    5    5  501    0 -0.73129166382E+02  0.39670697545E+02 -0.15501337542E+03  0.17599112415E+03  0.47000000000E+01 0. -1.
        -13    1    6    6    0    0 -0.77251062380E+01  0.75387109992E+02 -0.46456390061E+02  0.88888074547E+02  0.00000000000E+00 0.  1.
         14    1    6    6    0    0  0.41346544951E+02  0.54310505095E+01 -0.60653222381E+02  0.73606021997E+02  0.00000000000E+00 0. -1.
         -5    1    3    3    0  503  0.63419397549E+02 -0.91254827076E+02 -0.32485716583E+03  0.34337112814E+03  0.47000000000E+01 0.  1.
         13    1    4    4    0    0  0.27037818419E+02 -0.28196219958E+02 -0.39233228751E+02  0.55365302157E+02  0.00000000000E+00 0. -1.
        -14    1    4    4    0    0 -0.50949488300E+02 -0.10378110128E+01 -0.98552901236E+02  0.11094864466E+03  0.00000000000E+00 0.  1.
</event>
<event>
12    1  0.8271773E-002  0.2651679E+03  0.7818608E-02  0.1104686E+00
         21   -1    0    0  501  502  0.00000000000E+00  0.00000000000E+00  0.36155737389E+03  0.36155737389E+03  0.00000000000E+00 0.  1.
         21   -1    0    0  502  503 -0.00000000000E+00 -0.00000000000E+00 -0.27409301890E+03  0.27409301890E+03  0.00000000000E+00 0. -1.
         -6    2    1    2    0  503  0.16586062585E+03 -0.10457903625E+03 -0.13053042733E+03  0.29555404761E+03  0.17851465085E+03 0.  0.
        -24    2    3    3    0    0  0.28425809523E+02 -0.30609447574E+02 -0.10307629847E+03  0.13701178832E+03  0.80015885328E+02 0.  0.
          6    2    1    2  501    0 -0.16586062585E+03  0.10457903625E+03  0.21799478231E+03  0.34009634518E+03  0.17232897857E+03 0.  0.
         24    2    5    5    0    0 -0.13003800349E+03  0.52960994704E+02  0.66176400975E+02  0.17572300975E+03  0.82368141900E+02 0.  0.
          5    1    5    5  501    0 -0.35822622366E+02  0.51618041547E+02  0.15181838134E+03  0.16437333543E+03  0.47000000000E+01 0. -1.
        -11    1    6    6    0    0 -0.47619368487E+02 -0.12564897961E+01  0.60368360689E+02  0.76899427787E+02  0.00000000000E+00 0.  1.
         12    1    6    6    0    0 -0.82418635000E+02  0.54217484500E+02  0.58080402862E+01  0.98823581967E+02  0.00000000000E+00 0. -1.
         -5    1    3    3    0  503  0.13743481633E+03 -0.73969588677E+02 -0.27454128857E+02  0.15854225929E+03  0.47000000000E+01 0.  1.
         11    1    4    4    0    0  0.35407317421E+02 -0.21423908846E+02 -0.11390409137E+03  0.12118912504E+03  0.00000000000E+00 0. -1.
        -12    1    4    4    0    0 -0.69815078974E+01 -0.91855387282E+01  0.10827792899E+02  0.15822663281E+02  0.00000000000E+00 0.  1.
</event>
<event>
12    1  0.8271773E-002  0.2013763E+03  0.7818608E-02  0.1148691E+00
         21   -1    0    0  501  502  0.00000000000E+00  0.00000000000E+00  0.16428440275E+03  0.16428440275E+03  0.00000000000E+00 0.  1.
         21   -1    0    0  502  503 -0.00000000000E+00 -0.00000000000E+00 -0.25695016217E+03  0.25695016217E+03  0.00000000000E+00 0.  1.
         -6    2    1    2    0  503  0.10954693964E+03 -0.65195414073E+01 -0.89452224364E+02  0.22035000652E+03  0.16884723428E+03 0.  0.
        -24    2    3    3    0    0  0.34957306566E+02 -0.14782591010E+02 -0.11005343329E+03  0.14238596891E+03  0.81984557603E+02 0.  0.
          6    2    1    2  501    0 -0.10954693964E+03  0.65195414073E+01 -0.32135350592E+01  0.20088455840E+03  0.16822973159E+03 0.  0.
         24    2    5    5    0    0 -0.41506436336E+02  0.56474125717E+02 -0.31594942865E+02  0.11170740385E+03  0.81044386161E+02 0.  0.
          5    1    5    5  501    0 -0.68040503302E+02 -0.49954584310E+02  0.28381407806E+02  0.89177154542E+02  0.47000000000E+01 0. -1.
        -13    1    6    6    0    0 -0.41761189296E+02  0.50920215583E+02 -0.56142495743E+02  0.86538113654E+02  0.00000000000E+00 0.  1.
         14    1    6    6    0    0  0.25475295951E+00  0.55539101337E+01  0.24547552878E+02  0.25169290200E+02  0.00000000000E+00 0. -1.
         -5    1    3    3    0  503  0.74589633072E+02  0.82630496028E+01  0.20601208925E+02  0.77964037606E+02  0.47000000000E+01 0.  1.
         13    1    4    4    0    0  0.57066338834E+02 -0.28721072347E+02 -0.72486493251E+02  0.96621730105E+02  0.00000000000E+00 0. -1.
        -14    1    4    4    0    0 -0.22109032269E+02  0.13938481337E+02 -0.37566940038E+02  0.45764238808E+02  0.00000000000E+00 0.  1.
</event>
<event>
12    1  0.8271773E-002  0.2496914E+03  0.7818608E-02  0.1113520E+00
         21   -1    0    0  503  502  0.00000000000E+00  0.00000000000E+00  0.10427804635E+03  0.10427804635E+03  0.00000000000E+00 0.  1.
         21   -1    0    0  501  503 -0.00000000000E+00 -0.00000000000E+00 -0.78138443108E+03  0.78138443108E+03  0.00000000000E+00 0. -1.
          6    2    1    2  501    0  0.11544244762E+03  0.13980391992E+03 -0.55326226792E+03  0.60694552383E+03  0.17149821298E+03 0.  0.
         24    2    3    3    0    0  0.24979182752E+02  0.98068112605E+02 -0.42698246700E+03  0.44602890560E+03  0.79915225223E+02 0.  0.
         -6    2    1    2    0  502 -0.11544244762E+03 -0.13980391992E+03 -0.12384411680E+03  0.27871695360E+03  0.17167900344E+03 0.  0.
        -24    2    5    5    0    0 -0.69801155160E+02 -0.92131063345E+02 -0.15251788073E+03  0.20660520998E+03  0.77869600945E+02 0.  0.
          5    1    3    3  501    0  0.90463264865E+02  0.41735807318E+02 -0.12627980091E+03  0.16091661823E+03  0.47000000000E+01 0. -1.
        -13    1    4    4    0    0 -0.19316623372E+01 -0.48030554027E+01  0.79168738129E+00  0.52371203438E+01  0.00000000000E+00 0.  1.
         14    1    4    4    0    0  0.26910845089E+02  0.10287116801E+03 -0.42777415439E+03  0.44079178526E+03  0.00000000000E+00 0. -1.
         -5    1    5    5    0  502 -0.45641292457E+02 -0.47672856577E+02  0.28673763927E+02  0.72111743629E+02  0.47000000000E+01 0.  1.
         13    1    6    6    0    0 -0.55850194954E+02 -0.86984244842E+02 -0.75097858579E+02  0.12777007275E+03  0.00000000000E+00 0. -1.
        -14    1    6    6    0    0 -0.13950960206E+02 -0.51468185032E+01 -0.77420022153E+02  0.78835137226E+02  0.00000000000E+00 0.  1.
</event>
<event>
12    1  0.8271773E-002  0.1989082E+03  0.7818608E-02  0.1150672E+00
         21   -1    0    0  503  502  0.00000000000E+00  0.00000000000E+00  0.68202907186E+03  0.68202907186E+03  0.00000000000E+00 0. -1.
         21   -1    0    0  501  503 -0.00000000000E+00 -0.00000000000E+00 -0.75743758410E+02  0.75743758410E+02  0.00000000000E+00 0. -1.
          6    2    1    2  501    0 -0.99388485796E+02  0.19969874882E+02  0.48655500806E+03  0.52564270924E+03  0.17113624660E+03 0.  0.
         24    2    3    3    0    0  0.81190037824E+01  0.27815096043E+02  0.19694406035E+03  0.21658608200E+03  0.85340320001E+02 0.  0.
         -6    2    1    2    0  502  0.99388485796E+02 -0.19969874882E+02  0.11973030539E+03  0.23213012103E+03  0.17109114544E+03 0.  0.
        -24    2    5    5    0    0  0.90340562921E+02  0.25163791580E+02  0.13132294967E+03  0.18442905021E+03  0.89295709496E+02 0.  0.
          5    1    3    3  501    0 -0.10750748958E+03 -0.78452211611E+01  0.28961094771E+03  0.30905662724E+03  0.47000000000E+01 0. -1.
        -13    1    4    4    0    0  0.26902951646E+02  0.23698630153E+02  0.19381537405E+03  0.19710350859E+03  0.00000000000E+00 0.  1.
         14    1    4    4    0    0 -0.18783947864E+02  0.41164658908E+01  0.31286862986E+01  0.19482573412E+02  0.00000000000E+00 0. -1.
         -5    1    5    5    0  502  0.90479228745E+01 -0.45133666462E+02 -0.11592644275E+02  0.47701070826E+02  0.47000000000E+01 0.  1.
         11    1    6    6    0    0  0.32322002205E+02 -0.32966812886E+01 -0.56496662489E+01  0.32977244621E+02  0.00000000000E+00 0. -1.
        -12    1    6    6    0    0  0.58018560716E+02  0.28460472868E+02  0.13697261592E+03  0.15145180558E+03  0.00000000000E+00 0.  1.
</event>
<event>
12    1  0.8271773E-002  0.1740220E+03  0.7818608E-02  0.1173735E+00
         21   -1    0    0  503  502  0.00000000000E+00  0.00000000000E+00  0.12153006230E+02  0.12153006230E+02  0.00000000000E+00 0.  1.
         21   -1    0    0  501  503 -0.00000000000E+00 -0.00000000000E+00 -0.26183483501E+04  0.26183483501E+04  0.00000000000E+00 0.  1.
          6    2    1    2  501    0 -0.20994320305E+02 -0.12843929951E+02 -0.15930813872E+04  0.16025502157E+04  0.17220092798E+03 0.  0.
         24    2    3    3    0    0 -0.46726925541E+02  0.39760913913E+02 -0.12775612425E+04  0.12816070926E+04  0.81176816700E+02 0.  0.
         -6    2    1    2    0  502  0.20994320305E+02  0.12843929951E+02 -0.10131139566E+04  0.10279511405E+04  0.17227283676E+03 0.  0.
        -24    2    5    5    0    0 -0.44135155743E+02  0.32067183457E+02 -0.73985774094E+03  0.74634426648E+03  0.81633761762E+02 0.  0.
          5    1    3    3  501    0  0.25732605236E+02 -0.52604843864E+02 -0.31552014470E+03  0.32094312313E+03  0.47000000000E+01 0. -1.
        -11    1    4    4    0    0 -0.63479084682E+01  0.29742214508E+02 -0.10390252023E+04  0.10394701854E+04  0.00000000000E+00 0.  1.
         12    1    4    4    0    0 -0.40379017073E+02  0.10018699405E+02 -0.23853604019E+03  0.24213690720E+03  0.00000000000E+00 0. -1.
         -5    1    5    5    0  502  0.65129476048E+02 -0.19223253506E+02 -0.27325621566E+03  0.28160687407E+03  0.47000000000E+01 0.  1.
         11    1    6    6    0    0  0.85489263411E+01  0.26725350058E+02 -0.49647837359E+03  0.49727065460E+03  0.00000000000E+00 0. -1.
        -12    1    6    6    0    0 -0.52684082084E+02  0.53418333990E+01 -0.24337936734E+03  0.24907361188E+03  0.00000000000E+00 0.  1.
</event>
<event>
12    1  0.8271773E-002  0.2332282E+03  0.7818608E-02  0.1124424E+00
         21   -1    0    0  503  502  0.00000000000E+00  0.00000000000E+00  0.43439234511E+03  0.43439234511E+03  0.00000000000E+00 0.  1.
         21   -1    0    0  501  503 -0.00000000000E+00 -0.00000000000E+00 -0.34288816952E+03  0.34288816952E+03  0.00000000000E+00 0. -1.
          6    2    1    2  501    0  0.90492240750E+02  0.12923797624E+03 -0.26398228173E+03  0.35211464182E+03  0.17148403941E+03 0.  0.
         24    2    3    3    0    0  0.10316641013E+03  0.51642304168E+02 -0.10714016813E+03  0.17660606227E+03  0.80002811482E+02 0.  0.
         -6    2    1    2    0  502 -0.90492240750E+02 -0.12923797624E+03  0.35548645733E+03  0.42516587281E+03  0.17176756947E+03 0.  0.
        -24    2    5    5    0    0 -0.44492555932E+02 -0.81793268173E+02  0.33394135773E+03  0.35550058272E+03  0.78702653452E+02 0.  0.
          5    1    3    3  501    0 -0.12674169383E+02  0.77595672074E+02 -0.15684211361E+03  0.17550857955E+03  0.47000000000E+01 0. -1.
        -11    1    4    4    0    0  0.51558995474E+02 -0.64538532675E+01 -0.77773466049E+02  0.93534454922E+02  0.00000000000E+00 0.  1.
         12    1    4    4    0    0  0.51607414659E+02  0.58096157435E+02 -0.29366702077E+02  0.83071607348E+02  0.00000000000E+00 0. -1.
         -5    1    5    5    0  502 -0.45999684818E+02 -0.47444708068E+02  0.21545099599E+02  0.69665290093E+02  0.47000000000E+01 0.  1.
         13    1    6    6    0    0 -0.33718757435E+02 -0.15527915202E+02  0.22112645194E+03  0.22422082530E+03  0.00000000000E+00 0. -1.
        -14    1    6    6    0    0 -0.10773798497E+02 -0.66265352971E+02  0.11281490579E+03  0.13127975742E+03  0.00000000000E+00 0.  1.
</event>
<event>
12    1  0.8271773E-002  0.1920687E+03  0.7818608E-02  0.1156948E+00
         21   -1    0    0  501  502  0.00000000000E+00  0.00000000000E+00  0.11176670831E+03  0.11176670831E+03  0.00000000000E+00 0. -1.
         21   -1    0    0  502  503 -0.00000000000E+00 -0.00000000000E+00 -0.34165866029E+03  0.34165866029E+03  0.00000000000E+00 0. -1.
         -6    2    1    2    0  503 -0.72435115036E+01 -0.81109428441E+02 -0.69168814166E+02  0.20414385223E+03  0.17395165912E+03 0.  0.
        -24    2    3    3    0    0  0.32947054369E+02 -0.90951530593E+02 -0.20793456533E+01  0.12518034582E+03  0.79423585866E+02 0.  0.
          6    2    1    2  501    0  0.72435115036E+01  0.81109428441E+02 -0.16072313781E+03  0.24928151637E+03  0.17227344408E+03 0.  0.
         24    2    5    5    0    0  0.52364883812E+02  0.96806607484E+02 -0.14340333818E+03  0.19824814368E+03  0.81389242298E+02 0.  0.
          5    1    5    5  501    0 -0.45121372308E+02 -0.15697179043E+02 -0.17319799635E+02  0.51033372691E+02  0.47000000000E+01 0. -1.
        -11    1    6    6    0    0  0.27672490490E+02  0.75911598377E+02 -0.40499337688E+02  0.90379941642E+02  0.00000000000E+00 0.  1.
         12    1    6    6    0    0  0.24692393322E+02  0.20895009107E+02 -0.10290400049E+03  0.10786820204E+03  0.00000000000E+00 0. -1.
         -5    1    3    3    0  503 -0.40190565873E+02  0.98421021523E+01 -0.67089468513E+02  0.78963506415E+02  0.47000000000E+01 0.  1.
         11    1    4    4    0    0 -0.13651296786E+02 -0.48370005889E+02  0.25425426149E+02  0.56324663057E+02  0.00000000000E+00 0. -1.
        -12    1    4    4    0    0  0.46598351155E+02 -0.42581524704E+02 -0.27504771802E+02  0.68855682760E+02  0.00000000000E+00 0.  1.
</event>
<event>
12    1  0.8271773E-002  0.2260985E+03  0.7818608E-02  0.1130015E+00
         21   -1    0    0  501  502  0.00000000000E+00  0.00000000000E+00  0.36339078700E+03  0.36339078700E+03  0.00000000000E+00 0. -1.
         21   -1    0    0  502  503 -0.00000000000E+00 -0.00000000000E+00 -0.13881973801E+03  0.13881973801E+03  0.00000000000E+00 0.  1.
         -6    2    1    2    0  503  0.14140556698E+03  0.69794402691E+01  0.10381553867E+03  0.24879347214E+03  0.17628465263E+03 0.  0.
        -24    2    3    3    0    0  0.49642750053E+02 -0.59537042213E+02  0.67075893715E+02  0.12955946473E+03  0.79230154327E+02 0.  0.
          6    2    1    2  501    0 -0.14140556698E+03 -0.69794402691E+01  0.12075551032E+03  0.25341705286E+03  0.17202924881E+03 0.  0.
         24    2    5    5    0    0 -0.20213158546E+02 -0.38324193850E+02  0.80125694872E+02  0.12172436004E+03  0.80742660563E+02 0.  0.
          5    1    5    5  501    0 -0.12119240844E+03  0.31344753581E+02  0.40629815449E+02  0.13169269283E+03  0.47000000000E+01 0. -1.
        -13    1    6    6    0    0  0.17461102764E+02 -0.32223404044E+02  0.43851366007E+01  0.36911614715E+02  0.00000000000E+00 0.  1.
         14    1    6    6    0    0 -0.37674261310E+02 -0.61007898063E+01  0.75740558271E+02  0.84812745320E+02  0.00000000000E+00 0. -1.
         -5    1    3    3    0  503  0.91762816931E+02  0.66516482482E+02  0.36739644953E+02  0.11923400741E+03  0.47000000000E+01 0.  1.
         11    1    4    4    0    0  0.45612409791E+02  0.43068079047E+01  0.36906148769E+02  0.58831151087E+02  0.00000000000E+00 0. -1.
        -12    1    4    4    0    0  0.40303402625E+01 -0.63843850118E+02  0.30169744946E+02  0.70728313642E+02  0.00000000000E+00 0.  1.
</event>
<event>
12    1  0.8271773E-002  0.2692353E+03  0.7818608E-02  0.1101921E+00
         21   -1    0    0  501  502  0.00000000000E+00  0.00000000000E+00  0.81703715888E+02  0.81703715888E+02  0.00000000000E+00 0. -1.
         21   -1    0    0  502  503 -0.00000000000E+00 -0.00000000000E+00 -0.15823077213E+04  0.15823077213E+04  0.00000000000E+00 0.  1.
         -6    2    1    2    0  503 -0.97785532274E+01 -0.20443118457E+03 -0.13046888839E+04  0.13321789329E+04  0.17492825993E+03 0.  0.
        -24    2    3    3    0    0 -0.61082139407E+02 -0.75306544388E+02 -0.74298983689E+03  0.75353125072E+03  0.79833230644E+02 0.  0.
          6    2    1    2  501    0  0.97785532274E+01  0.20443118457E+03 -0.19591512153E+03  0.33183250432E+03  0.17274937554E+03 0.  0.
         24    2    5    5    0    0 -0.37263252976E+02  0.13973545929E+03 -0.18977878632E+03  0.25146949660E+03  0.79412665082E+02 0.  0.
          5    1    5    5  501    0  0.47041806203E+02  0.64695725282E+02 -0.61363352077E+01  0.80363007724E+02  0.47000000000E+01 0. -1.
        -11    1    6    6    0    0  0.59848431028E+01  0.97180177518E+02 -0.15030503439E+03  0.17908492011E+03  0.00000000000E+00 0.  1.
         12    1    6    6    0    0 -0.43248096078E+02  0.42555281773E+02 -0.39473751937E+02  0.72384576487E+02  0.00000000000E+00 0. -1.
         -5    1    3    3    0  503  0.51303586180E+02 -0.12912464019E+03 -0.56169904704E+03  0.57864768219E+03  0.47000000000E+01 0.  1.
         13    1    4    4    0    0 -0.69357802028E+02 -0.68895715344E+02 -0.45651215656E+03  0.46686237092E+03  0.00000000000E+00 0. -1.
        -14    1    4    4    0    0  0.82756626211E+01 -0.64108290443E+01 -0.28647768032E+03  0.28666887980E+03  0.00000000000E+00 0.  1.
</event>
<event>
12    1  0.8271773E-002  0.2040169E+03  0.7818608E-02  0.1146614E+00
         21   -1    0    0  503  502  0.00000000000E+00  0.00000000000E+00  0.65187044313E+03  0.65187044313E+03  0.00000000000E+00 0. -1.
         21   -1    0    0  501  503 -0.00000000000E+00 -0.00000000000E+00 -0.34975972574E+03  0.34975972574E+03  0.00000000000E+00 0.  1.
          6    2    1    2  501    0  0.36107468867E+02  0.10343184159E+03 -0.30193671736E+03  0.36440183054E+03  0.17210757580E+03 0.  0.
         24    2    3    3    0    0  0.15233440508E+02  0.11353926538E+03 -0.12935268378E+03  0.19020302537E+03  0.79510072099E+02 0.  0.
         -6    2    1    2    0  502 -0.36107468867E+02 -0.10343184159E+03  0.60404743475E+03  0.63722833833E+03  0.17083546638E+03 0.  0.
        -24    2    5    5    0    0 -0.27071376286E+02 -0.65655651493E+02  0.58355859812E+03  0.59306303595E+03  0.78355619984E+02 0.  0.
          5    1    3    3  501    0  0.20874028359E+02 -0.10107423792E+02 -0.17258403358E+03  0.17419880517E+03  0.47000000000E+01 0. -1.
        -11    1    4    4    0    0  0.38967305252E+02  0.77450977604E+02 -0.11633753299E+03  0.14509144148E+03  0.00000000000E+00 0.  1.
         12    1    4    4    0    0 -0.23733864743E+02  0.36088287777E+02 -0.13015150792E+02  0.45111583883E+02  0.00000000000E+00 0. -1.
         -5    1    5    5    0  502 -0.90360925811E+01 -0.37776190096E+02  0.20488836629E+02  0.44165302373E+02  0.47000000000E+01 0.  1.
         13    1    6    6    0    0 -0.47881168030E+02 -0.17057659721E+02  0.22809743167E+03  0.23369212297E+03  0.00000000000E+00 0. -1.
        -14    1    6    6    0    0  0.20809791744E+02 -0.48597991772E+02  0.35546116646E+03  0.35937091298E+03  0.00000000000E+00 0.  1.
</event>
<event>
12    1  0.8271773E-002  0.1876475E+03  0.7818608E-02  0.1160701E+00
         21   -1    0    0  503  502  0.00000000000E+00  0.00000000000E+00  0.10600375083E+03  0.10600375083E+03  0.00000000000E+00 0.  1.
         21   -1    0    0  501  503 -0.00000000000E+00 -0.00000000000E+00 -0.33593326563E+03  0.33593326563E+03  0.00000000000E+00 0.  1.
          6    2    1    2  501    0 -0.45759104626E+02 -0.58538354444E+02 -0.14076368071E+03  0.23457620180E+03  0.17231060921E+03 0.  0.
         24    2    3    3    0    0 -0.78885790202E+02 -0.41900114133E+02 -0.40413379659E+02  0.12749454483E+03  0.81504786646E+02 0.  0.
         -6    2    1    2    0  502  0.45759104626E+02  0.58538354444E+02 -0.89165834094E+02  0.20736081467E+03  0.17183517362E+03 0.  0.
        -24    2    5    5    0    0  0.96360875885E+02  0.27977128507E+02 -0.79798624670E+02  0.14732447236E+03  0.72584719709E+02 0.  0.
          5    1    3    3  501    0  0.33126685576E+02 -0.16638240311E+02 -0.10035030105E+03  0.10708165697E+03  0.47000000000E+01 0. -1.
        -11    1    4    4    0    0 -0.32574082851E+02 -0.55384405876E+02 -0.45877889282E+02  0.78951149534E+02  0.00000000000E+00 0.  1.
         12    1    4    4    0    0 -0.46311707351E+02  0.13484291743E+02  0.54645096223E+01  0.48543395297E+02  0.00000000000E+00 0. -1.
         -5    1    5    5    0  502 -0.50601771259E+02  0.30561225937E+02 -0.93672094243E+01  0.60036342308E+02  0.47000000000E+01 0.  1.
         11    1    6    6    0    0  0.73387074724E+01 -0.18066229989E+02 -0.29040150244E+02  0.34979645790E+02  0.00000000000E+00 0. -1.
        -12    1    6    6    0    0  0.89022168413E+02  0.46043358496E+02 -0.50758474425E+02  0.11234482657E+03  0.00000000000E+00 0.  1.
</event>
<event>
12    1  0.8271773E-002  0.1719970E+03  0.7818608E-02  0.1176386E+00
         21   -1    0    0  503  502  0.00000000000E+00  0.00000000000E+00  0.68829322292E+03  0.68829322292E+03  0.00000000000E+00 0. -1.
         21   -1    0    0  501  503 -0.00000000000E+00 -0.00000000000E+00 -0.47292263456E+02  0.47292263456E+02  0.00000000000E+00 0. -1.
          6    2    1    2  501    0 -0.85345425006E+00 -0.18069630568E+02  0.43684924924E+03  0.46863811133E+03  0.16869253953E+03 0.  0.
         24    2    3    3    0    0  0.44577700162E+02  0.29279464005E+01  0.14091071664E+03  0.16846050872E+03  0.80792132737E+02 0.  0.
         -6    2    1    2    0  502  0.85345425006E+00  0.18069630568E+02  0.20415171022E+03  0.26694737505E+03  0.17104309493E+03 0.  0.
        -24    2    5    5    0    0  0.52942477943E+02  0.40723943400E+02  0.13084880678E+03  0.17409324249E+03  0.93411462408E+02 0.  0.
          5    1    3    3  501    0 -0.45431154413E+02 -0.20997576968E+02  0.29593853260E+03  0.30017760261E+03  0.47000000000E+01 0. -1.
        -13    1    4    4    0    0  0.43933824812E+02 -0.30360249789E+02  0.11311856145E+03  0.12509090564E+03  0.00000000000E+00 0.  1.
         14    1    4    4    0    0  0.64387535090E+00  0.33288196189E+02  0.27792155188E+02  0.43369603076E+02  0.00000000000E+00 0. -1.
         -5    1    5    5    0  502 -0.52089023693E+02 -0.22654312832E+02  0.73302903445E+02  0.92854132555E+02  0.47000000000E+01 0.  1.
         13    1    6    6    0    0  0.72061005790E+02  0.43911319240E+02  0.68154908629E+02  0.10847158191E+03  0.00000000000E+00 0. -1.
        -14    1    6    6    0    0 -0.19118527847E+02 -0.31873758404E+01  0.62693898148E+02  0.65621660576E+02  0.00000000000E+00 0.  1.
</event>
<event>
12    1  0.8271773E-002  0.1788291E+03  0.7818608E-02  0.1169446E+00
         21   -1    0    0  501  502  0.00000000000E+00  0.00000000000E+00  0.50425151673E+03  0.50425151673E+03  0.00000000000E+00 0. -1.
         21   -1    0    0  502  503 -0.00000000000E+00 -0.00000000000E+00 -0.63219707993E+02  0.63219707993E+02  0.00000000000E+00 0. -1.
         -6    2    1    2    0  503 -0.47111535152E+02  0.12927225477E+02  0.19336985037E+03  0.26199405868E+03  0.16988931057E+03 0.  0.
        -24    2    3    3    0    0 -0.35803400228E+02 -0.97355319658E+00  0.64153448596E+02  0.13145642406E+03  0.10900594106E+03 0.  0.
          6    2    1    2  501    0  0.47111535152E+02 -0.12927225477E+02  0.24766195837E+03  0.30547716605E+03  0.17202686840E+03 0.  0.
         24    2    5    5    0    0  0.80275879946E+02 -0.43154793748E+01  0.92458778740E+02  0.14646725157E+03  0.80257023075E+02 0.  0.
          5    1    5    5  501    0 -0.33164344794E+02 -0.86117461025E+01  0.15520317963E+03  0.15900991448E+03  0.47000000000E+01 0. -1.
        -13    1    6    6    0    0  0.74119575778E+02  0.45440335016E+01  0.10583153183E+03  0.12928523846E+03  0.00000000000E+00 0.  1.
         14    1    6    6    0    0  0.61563041681E+01 -0.88595128764E+01 -0.13372753088E+02  0.17182013112E+02  0.00000000000E+00 0. -1.
         -5    1    3    3    0  503 -0.11308134924E+02  0.13900778674E+02  0.12921640178E+03  0.13053763462E+03  0.47000000000E+01 0.  1.
         13    1    4    4    0    0 -0.68946939445E+01  0.41222439546E+02  0.68371132262E+02  0.80133875817E+02  0.00000000000E+00 0. -1.
        -14    1    4    4    0    0 -0.28908706283E+02 -0.42195992743E+02 -0.42176836660E+01  0.51322548242E+02  0.00000000000E+00 0.  1.
</event>
<event>
12    1  0.8271773E-002  0.2018776E+03  0.7818608E-02  0.1148274E+00
         21   -1    0    0  503  502  0.00000000000E+00  0.00000000000E+00  0.25192281738E+03  0.25192281738E+03  0.00000000000E+00 0. -1.
         21   -1    0    0  501  503 -0.00000000000E+00 -0.00000000000E+00 -0.35980751370E+03  0.35980751370E+03  0.00000000000E+00 0.  1.
          6    2    1    2  501    0  0.74616195258E+02 -0.73958708603E+02 -0.28112948605E+03  0.34610453218E+03  0.17238646147E+03 0.  0.
         24    2    3    3    0    0 -0.25483708839E+02 -0.53085564170E+02 -0.14987379091E+03  0.17965385941E+03  0.79660902967E+02 0.  0.
         -6    2    1    2    0  502 -0.74616195258E+02  0.73958708603E+02  0.17324478973E+03  0.26562579890E+03  0.17177264247E+03 0.  0.
        -24    2    5    5    0    0 -0.10369941357E+02  0.72540876697E+02  0.16823461347E+03  0.20099776123E+03  0.82021340969E+02 0.  0.
          5    1    3    3  501    0  0.10009990410E+03 -0.20873144433E+02 -0.13125569514E+03  0.16645067277E+03  0.47000000000E+01 0. -1.
        -13    1    4    4    0    0 -0.94552190463E+01  0.18966018891E+02 -0.15203900998E+02  0.26081979322E+02  0.00000000000E+00 0.  1.
         14    1    4    4    0    0 -0.16028489793E+02 -0.72051583061E+02 -0.13466988991E+03  0.15357188009E+03  0.00000000000E+00 0. -1.
         -5    1    5    5    0  502 -0.64246253900E+02  0.14178319059E+01  0.50101762672E+01  0.64628037675E+02  0.47000000000E+01 0.  1.
         13    1    6    6    0    0 -0.28498642066E+02  0.37127097135E+02  0.15018778694E+03  0.15731168198E+03  0.00000000000E+00 0. -1.
        -14    1    6    6    0    0  0.18128700708E+02  0.35413779563E+02  0.18046826525E+02  0.43686079246E+02  0.00000000000E+00 0.  1.
</event>
<event>
12    1  0.8271773E-002  0.1977157E+03  0.7818608E-02  0.1151864E+00
         21   -1    0    0  503  502  0.00000000000E+00  0.00000000000E+00  0.42107063711E+03  0.42107063711E+03  0.00000000000E+00 0.  1.
         21   -1    0    0  501  503 -0.00000000000E+00 -0.00000000000E+00 -0.12531070588E+03  0.12531070588E+03  0.00000000000E+00 0.  1.
          6    2    1    2  501    0  0.62272872401E+02 -0.74936031663E+02  0.81910815022E+01  0.19788531348E+03  0.17204122761E+03 0.  0.
         24    2    3    3    0    0 -0.20671720307E+02 -0.58879220973E+02 -0.30257819794E+02  0.10494428573E+03  0.78763473547E+02 0.  0.
         -6    2    1    2    0  502 -0.62272872401E+02  0.74936031663E+02  0.28756884972E+03  0.34849602951E+03  0.17105648124E+03 0.  0.
        -24    2    5    5    0    0  0.23536321420E+02  0.34229274479E+02  0.84327487692E+02  0.12410931184E+03  0.81033292222E+02 0.  0.
          5    1    3    3  501    0  0.82944592708E+02 -0.16056810690E+02  0.38448901296E+02  0.92941027754E+02  0.47000000000E+01 0. -1.
        -13    1    4    4    0    0  0.83255338606E+01 -0.62895750665E+02 -0.38900923021E+02  0.74420909546E+02  0.00000000000E+00 0.  1.
         14    1    4    4    0    0 -0.28997254168E+02  0.40165296925E+01  0.86431032277E+01  0.30523376180E+02  0.00000000000E+00 0. -1.
         -5    1    5    5    0  502 -0.85809193822E+02  0.40706757184E+02  0.20324136203E+03  0.22438671767E+03  0.47000000000E+01 0.  1.
         13    1    6    6    0    0  0.29261583935E+02 -0.30656854092E+01 -0.24100045629E+01  0.29520278512E+02  0.00000000000E+00 0. -1.
        -14    1    6    6    0    0 -0.57252625146E+01  0.37294959888E+02  0.86737492255E+02  0.94589033332E+02  0.00000000000E+00 0.  1.
</event>
<event>
12    1  0.8271773E-002  0.2108832E+03  0.7818608E-02  0.1141243E+00
         21   -1    0    0  501  502  0.00000000000E+00  0.00000000000E+00  0.84040009199E+02  0.84040009199E+02  0.00000000000E+00 0.  1.
         21   -1    0    0  502  503 -0.00000000000E+00 -0.00000000000E+00 -0.52473336619E+03  0.52473336619E+03  0.00000000000E+00 0. -1.
         -6    2    1    2    0  503 -0.69745222555E+02 -0.95050645421E+02 -0.21413012292E+03  0.30053857352E+03  0.17485051720E+03 0.  0.
        -24    2    3    3    0    0  0.26809095617E+02 -0.43184685444E+02 -0.61061314651E+02  0.11221713494E+03  0.79249962538E+02 0.  0.
          6    2    1    2  501    0  0.69745222555E+02  0.95050645421E+02 -0.22656323406E+03  0.30823480187E+03  0.17256527110E+03 0.  0.
         24    2    5    5    0    0  0.61786141682E+02  0.10738894360E+01 -0.67508874744E+02  0.12326086627E+03  0.82565806728E+02 0.  0.
          5    1    5    5  501    0  0.79590808729E+01  0.93976755985E+02 -0.15905435932E+03  0.18497393560E+03  0.47000000000E+01 0. -1.
        -11    1    6    6    0    0 -0.11874268640E+02  0.42142984031E+01  0.10149198666E+02  0.16179147083E+02  0.00000000000E+00 0.  1.
         12    1    6    6    0    0  0.73660410322E+02 -0.31404089672E+01 -0.77658073410E+02  0.10708171918E+03  0.00000000000E+00 0. -1.
         -5    1    3    3    0  503 -0.96554318173E+02 -0.51865959977E+02 -0.15306880827E+03  0.18832143858E+03  0.47000000000E+01 0.  1.
         11    1    4    4    0    0  0.36389536216E+02  0.70629115783E+01 -0.45626233810E+02  0.58786361323E+02  0.00000000000E+00 0. -1.
        -12    1    4    4    0    0 -0.95804405982E+01 -0.50247597022E+02 -0.15435080841E+02  0.53430773616E+02  0.00000000000E+00 0.  1.
</event>
<event>
12    1  0.8271773E-002  0.1791797E+03  0.7818608E-02  0.1168752E+00
         21   -1    0    0  503  502  0.00000000000E+00  0.00000000000E+00  0.14109462744E+03  0.14109462744E+03  0.00000000000E+00 0. -1.
         21   -1    0    0  501  503 -0.00000000000E+00 -0.00000000000E+00 -0.24783749288E+03  0.24783749288E+03  0.00000000000E+00 0.  1.
          6    2    1    2  501    0 -0.16983020822E+02  0.48966339797E+02  0.34346173317E+01  0.17858850111E+03  0.17086816761E+03 0.  0.
         24    2    3    3    0    0 -0.18128920914E+02 -0.36837915491E+02 -0.19023074029E+02  0.89762146832E+02  0.77522099218E+02 0.  0.
         -6    2    1    2    0  502  0.16983020822E+02 -0.48966339797E+02 -0.11017748277E+03  0.21034361921E+03  0.17152036324E+03 0.  0.
        -24    2    5    5    0    0 -0.25739888729E+01 -0.97322872169E+02 -0.92352566106E+02  0.15502049109E+03  0.77614362888E+02 0.  0.
          5    1    3    3  501    0  0.11459000927E+01  0.85804255288E+02  0.22457691361E+02  0.88826354275E+02  0.47000000000E+01 0. -1.
        -13    1    4    4    0    0  0.29367305115E+02 -0.18252544794E+02  0.19109229307E+01  0.34630126012E+02  0.00000000000E+00 0.  1.
         14    1    4    4    0    0 -0.47496226029E+02 -0.18585370697E+02 -0.20933996960E+02  0.55132020820E+02  0.00000000000E+00 0. -1.
         -5    1    5    5    0  502  0.19557009695E+02  0.48356532372E+02 -0.17824916661E+02  0.55323128122E+02  0.47000000000E+01 0.  1.
         11    1    6    6    0    0 -0.21328346731E+02 -0.16335207976E+00 -0.27092129110E+01  0.21500346341E+02  0.00000000000E+00 0. -1.
        -12    1    6    6    0    0  0.18754357858E+02 -0.97159520089E+02 -0.89643353195E+02  0.13352014475E+03  0.00000000000E+00 0.  1.
</event>
<event>
12    1  0.8271773E-002  0.1853562E+03  0.7818608E-02  0.1163295E+00
         21   -1    0    0  503  502  0.00000000000E+00  0.00000000000E+00  0.15993508569E+03  0.15993508569E+03  0.00000000000E+00 0. -1.
         21   -1    0    0  501  503 -0.00000000000E+00 -0.00000000000E+00 -0.71969248080E+03  0.71969248080E+03  0.00000000000E+00 0. -1.
          6    2    1    2  501    0  0.66824826970E+02 -0.57441138586E+01 -0.64873385388E+03  0.67402184509E+03  0.17015076301E+03 0.  0.
         24    2    3    3    0    0  0.61053553904E+02  0.16633347854E+02 -0.64068084406E+03  0.64910198649E+03  0.82808454977E+02 0.  0.
         -6    2    1    2    0  502 -0.66824826970E+02  0.57441138586E+01  0.88976458771E+02  0.20560572140E+03  0.17279568893E+03 0.  0.
        -24    2    5    5    0    0 -0.49798950930E+02 -0.47517923587E+00  0.12959477833E+03  0.16087879499E+03  0.81283570286E+02 0.  0.
          5    1    3    3  501    0  0.57712730661E+01 -0.22377461713E+02 -0.80530098149E+01  0.24919858599E+02  0.47000000000E+01 0. -1.
        -13    1    4    4    0    0 -0.13329676614E+02  0.84710116524E+01 -0.30468563536E+02  0.34318678311E+02  0.00000000000E+00 0.  1.
         14    1    4    4    0    0  0.74383230518E+02  0.81623362019E+01 -0.61021228053E+03  0.61478330818E+03  0.00000000000E+00 0. -1.
         -5    1    5    5    0  502 -0.17025876041E+02  0.62192930945E+01 -0.40618319563E+02  0.44726926405E+02  0.47000000000E+01 0.  1.
         11    1    6    6    0    0 -0.41248476401E+02 -0.38456659901E+02  0.76756096499E+02  0.95246258960E+02  0.00000000000E+00 0. -1.
        -12    1    6    6    0    0 -0.85504745282E+01  0.37981480665E+02  0.52838681835E+02  0.65632536034E+02  0.00000000000E+00 0.  1.
</event>
<event>
12    1  0.8271773E-002  0.3225185E+03  0.7818608E-02  0.1074688E+00
         21   -1    0    0  503  502  0.00000000000E+00  0.00000000000E+00  0.54643178472E+03  0.54643178472E+03  0.00000000000E+00 0. -1.
         21   -1    0    0  501  503 -0.00000000000E+00 -0.00000000000E+00 -0.21285975307E+03  0.21285975307E+03  0.00000000000E+00 0.  1.
          6    2    1    2  501    0  0.16667720529E+03 -0.21592137509E+03  0.29251628014E+03  0.43417043548E+03  0.16892265069E+03 0.  0.
         24    2    3    3    0    0  0.49973587867E+02 -0.12078783586E+03  0.21098780680E+03  0.26288381437E+03  0.86631313418E+02 0.  0.
         -6    2    1    2    0  502 -0.16667720529E+03  0.21592137509E+03  0.41055751513E+02  0.32512110230E+03  0.17208958552E+03 0.  0.
        -24    2    5    5    0    0 -0.15553088111E+03  0.20892421294E+03 -0.94198320478E+01  0.27274672539E+03  0.80391922753E+02 0.  0.
          5    1    3    3  501    0  0.11670361742E+03 -0.95133539234E+02  0.81528473335E+02  0.17128662111E+03  0.47000000000E+01 0. -1.
        -13    1    4    4    0    0  0.62075653444E+02 -0.11671513718E+03  0.21225091096E+03  0.25005251288E+03  0.00000000000E+00 0.  1.
         14    1    4    4    0    0 -0.12102065577E+02 -0.40726986807E+01 -0.12631041569E+01  0.12831301489E+02  0.00000000000E+00 0. -1.
         -5    1    5    5    0  502 -0.11146324181E+02  0.69971621480E+01  0.50475583561E+02  0.52374376910E+02  0.47000000000E+01 0.  1.
         13    1    6    6    0    0 -0.68497426206E+02  0.87797910067E+02 -0.43837417088E+02  0.11967493282E+03  0.00000000000E+00 0. -1.
        -14    1    6    6    0    0 -0.87033454905E+02  0.12112630287E+03  0.34417585040E+02  0.15307179257E+03  0.00000000000E+00 0.  1.
</event>
<event>
12    1  0.8271773E-002  0.2322060E+03  0.7818608E-02  0.1126302E+00
         21   -1    0    0  501  502  0.00000000000E+00  0.00000000000E+00  0.17490233975E+03  0.17490233975E+03  0.00000000000E+00 0.  1.
         21   -1    0    0  502  503 -0.00000000000E+00 -0.00000000000E+00 -0.31714012037E+03  0.31714012037E+03  0.00000000000E+00 0. -1.
         -6    2    1    2    0  503  0.59519663435E+02  0.14396804545E+03 -0.13048013471E+03  0.26635440619E+03  0.17219237990E+03 0.  0.
        -24    2    3    3    0    0 -0.27959078714E+02  0.48279601173E+02 -0.23459383939E+02  0.98174919357E+02  0.77300337154E+02 0.  0.
          6    2    1    2  501    0 -0.59519663435E+02 -0.14396804545E+03 -0.11757645910E+02  0.22568805393E+03  0.16287254834E+03 0.  0.
         24    2    5    5    0    0 -0.68466469018E+02 -0.14370534682E+03  0.32114056003E+02  0.18066660827E+03  0.79184762825E+02 0.  0.
          5    1    5    5  501    0  0.89468055828E+01 -0.26269862316E+00 -0.43871701913E+02  0.45021445662E+02  0.47000000000E+01 0. -1.
        -11    1    6    6    0    0  0.11927052305E+02 -0.54561257727E+01  0.14849709382E+02  0.19812565555E+02  0.00000000000E+00 0.  1.
         12    1    6    6    0    0 -0.80393521324E+02 -0.13824922105E+03  0.17264346621E+02  0.16085404271E+03  0.00000000000E+00 0. -1.
         -5    1    3    3    0  503  0.87478742149E+02  0.95688444275E+02 -0.10702075077E+03  0.16817948683E+03  0.47000000000E+01 0.  1.
         13    1    4    4    0    0 -0.53708272750E+01 -0.78808169872E+01 -0.35238905335E+02  0.36506622840E+02  0.00000000000E+00 0. -1.
        -14    1    4    4    0    0 -0.22588251439E+02  0.56160418160E+02  0.11779521396E+02  0.61668296517E+02  0.00000000000E+00 0.  1.
</event>
<event>
12    1  0.8271773E-002  0.1977947E+03  0.7818608E-02  0.1151841E+00
         21   -1    0    0  501  502  0.00000000000E+00  0.00000000000E+00  0.87684797097E+03  0.87684797097E+03  0.00000000000E+00 0.  1.
         21   -1    0    0  502  503 -0.00000000000E+00 -0.00000000000E+00 -0.49140754259E+02  0.49140754259E+02  0.00000000000E+00 0. -1.
         -6    2    1    2    0  503 -0.40002328061E+02  0.86596081443E+02  0.26871813991E+03  0.33303716785E+03  0.17206175891E+03 0.  0.
        -24    2    3    3    0    0 -0.88661001914E+01  0.82808533124E+02  0.27846956688E+03  0.29985599042E+03  0.73705185842E+02 0.  0.
          6    2    1    2  501    0  0.40002328061E+02 -0.86596081443E+02  0.55898907679E+03  0.59295155737E+03  0.17327346550E+03 0.  0.
         24    2    5    5    0    0 -0.14996492041E+01 -0.12040438936E+03  0.39355921268E+03  0.41901321846E+03  0.78636870726E+02 0.  0.
          5    1    5    5  501    0  0.41501977265E+02  0.33808307920E+02  0.16542986412E+03  0.17393833891E+03  0.47000000000E+01 0. -1.
        -11    1    6    6    0    0  0.34956145741E+02 -0.49366547680E+02  0.21633449957E+03  0.22463215232E+03  0.00000000000E+00 0.  1.
         12    1    6    6    0    0 -0.36455794945E+02 -0.71037841683E+02  0.17722471311E+03  0.19438106614E+03  0.00000000000E+00 0. -1.
         -5    1    3    3    0  503 -0.31136227869E+02  0.37875483191E+01 -0.97514269649E+01  0.33181177436E+02  0.47000000000E+01 0.  1.
         13    1    4    4    0    0 -0.71855772051E+01  0.32576187508E+01 -0.21471806317E+01  0.81764897335E+01  0.00000000000E+00 0. -1.
        -14    1    4    4    0    0 -0.16805229862E+01  0.79550914374E+02  0.28061674751E+03  0.29167950068E+03  0.00000000000E+00 0.  1.
</event>
<event>
12    1  0.8271773E-002  0.1896750E+03  0.7818608E-02  0.1159118E+00
         21   -1    0    0  501  502  0.00000000000E+00  0.00000000000E+00  0.51459759965E+03  0.51459759965E+03  0.00000000000E+00 0.  1.
         21   -1    0    0  502  503 -0.00000000000E+00 -0.00000000000E+00 -0.87570921555E+02  0.87570921555E+02  0.00000000000E+00 0.  1.
         -6    2    1    2    0  503 -0.11587792026E+02 -0.76470523684E+02  0.75359652961E+02  0.20261091135E+03  0.17143537029E+03 0.  0.
        -24    2    3    3    0    0  0.40977121064E+02 -0.94736267576E+02  0.41322399713E+02  0.13720959564E+03  0.80404275829E+02 0.  0.
          6    2    1    2  501    0  0.11587792026E+02  0.76470523684E+02  0.35166702513E+03  0.39955760985E+03  0.17318940242E+03 0.  0.
         24    2    5    5    0    0 -0.33101141673E+02  0.61506860947E+02  0.11377854500E+03  0.15700033625E+03  0.82612158654E+02 0.  0.
          5    1    5    5  501    0  0.44688933699E+02  0.14963662737E+02  0.23788848013E+03  0.24255727360E+03  0.47000000000E+01 0. -1.
        -13    1    6    6    0    0  0.76012235834E+01 -0.16228099412E+02  0.33881966906E+02  0.38329068498E+02  0.00000000000E+00 0.  1.
         14    1    6    6    0    0 -0.40702365257E+02  0.77734960358E+02  0.79896578091E+02  0.11867126775E+03  0.00000000000E+00 0. -1.
         -5    1    3    3    0  503 -0.52564913090E+02  0.18265743892E+02  0.34037253248E+02  0.65401315712E+02  0.47000000000E+01 0.  1.
         11    1    4    4    0    0  0.25840300175E+00 -0.89717337104E+02  0.25921426149E+02  0.93387299365E+02  0.00000000000E+00 0. -1.
        -12    1    4    4    0    0  0.40718718063E+02 -0.50189304726E+01  0.15400973564E+02  0.43822296271E+02  0.00000000000E+00 0.  1.
</event>
<event>
12    1  0.8271773E-002  0.2580853E+03  0.7818608E-02  0.1108738E+00
         21   -1    0    0  501  502  0.00000000000E+00  0.00000000000E+00  0.68277418131E+03  0.68277418131E+03  0.00000000000E+00 0.  1.
         21   -1    0    0  502  503 -0.00000000000E+00 -0.00000000000E+00 -0.17424391811E+03  0.17424391811E+03  0.00000000000E+00 0.  1.
         -6    2    1    2    0  503  0.17535184919E+03  0.76818745689E+02 -0.31228236332E+02  0.25996769420E+03  0.17308555277E+03 0.  0.
        -24    2    3    3    0    0  0.58840526511E+02  0.20978954229E+02  0.36414280962E+02  0.11405480659E+03  0.88205300113E+02 0.  0.
          6    2    1    2  501    0 -0.17535184919E+03 -0.76818745689E+02  0.53975849953E+03  0.59705040523E+03  0.16876183770E+03 0.  0.
         24    2    5    5    0    0 -0.41375174897E+02  0.40132239238E+01  0.13845922511E+03  0.16629902192E+03  0.82197302944E+02 0.  0.
          5    1    5    5  501    0 -0.13397667430E+03 -0.80831969612E+02  0.40129927442E+03  0.43075138330E+03  0.47000000000E+01 0. -1.
        -11    1    6    6    0    0 -0.51419108673E+02  0.50093309965E+01  0.14522991560E+03  0.15414521245E+03  0.00000000000E+00 0.  1.
         12    1    6    6    0    0  0.10043933776E+02 -0.99610707264E+00 -0.67706904967E+01  0.12153809477E+02  0.00000000000E+00 0. -1.
         -5    1    3    3    0  503  0.11651132268E+03  0.55839791459E+02 -0.67642517294E+02  0.14591288761E+03  0.47000000000E+01 0.  1.
         13    1    4    4    0    0 -0.16740382961E+02  0.18341945126E+02  0.28827141578E+02  0.38048278072E+02  0.00000000000E+00 0. -1.
        -14    1    4    4    0    0  0.75580909472E+02  0.26370091030E+01  0.75871393840E+01  0.76006528520E+02  0.00000000000E+00 0.  1.
</event>
<event>
12    1  0.8271773E-002  0.2894477E+03  0.7818608E-02  0.1090937E+00
         21   -1    0    0  501  502  0.00000000000E+00  0.00000000000E+00  0.58409239578E+03  0.58409239578E+03  0.00000000000E+00 0. -1.
         21   -1    0    0  502  503 -0.00000000000E+00 -0.00000000000E+00 -0.17799441012E+03  0.17799441012E+03  0.00000000000E+00 0. -1.
         -6    2    1    2    0  503 -0.19686337082E+03  0.12374696175E+03  0.31801272659E+02  0.28892930043E+03  0.16852395198E+03 0.  0.
        -24    2    3    3    0    0 -0.12906888498E+03  0.12758259484E+03  0.70116378820E+02  0.21082077495E+03  0.81197272097E+02 0.  0.
          6    2    1    2  501    0  0.19686337082E+03 -0.12374696175E+03  0.37429671300E+03  0.47315750548E+03  0.17237023615E+03 0.  0.
         24    2    5    5    0    0  0.15678447154E+03 -0.58251727858E+02  0.34247946027E+03  0.38990865323E+03  0.82231033293E+02 0.  0.
          5    1    5    5  501    0  0.40078899286E+02 -0.65495233887E+02  0.31817252729E+02  0.83248852251E+02  0.47000000000E+01 0. -1.
        -13    1    6    6    0    0  0.96167058630E+02 -0.32791631182E+02  0.11661165600E+03  0.15466632651E+03  0.00000000000E+00 0.  1.
         14    1    6    6    0    0  0.60617412908E+02 -0.25460096676E+02  0.22586780428E+03  0.23524232672E+03  0.00000000000E+00 0. -1.
         -5    1    3    3    0  503 -0.67794485844E+02 -0.38356330942E+01 -0.38315106161E+02  0.78108525477E+02  0.47000000000E+01 0.  1.
         11    1    4    4    0    0 -0.12324408486E+03  0.10853761426E+03  0.31281214322E+02  0.16717665068E+03  0.00000000000E+00 0. -1.
        -12    1    4    4    0    0 -0.58248001157E+01  0.19044980576E+02  0.38835164498E+02  0.43644124268E+02  0.00000000000E+00 0.  1.
</event>
<event>
12    1  0.8271773E-002  0.2474761E+03  0.7818608E-02  0.1114915E+00
         21   -1    0    0  503  502  0.00000000000E+00  0.00000000000E+00  0.19543928370E+04  0.19543928370E+04  0.00000000000E+00 0. -1.
         21   -1    0    0  501  503 -0.00000000000E+00 -0.00000000000E+00 -0.49178457096E+02  0.49178457096E+02  0.00000000000E+00 0.  1.
          6    2    1    2  501    0  0.95823447553E+02 -0.15024475979E+03  0.34918250605E+03  0.42798696753E+03  0.17172303544E+03 0.  0.
         24    2    3    3    0    0  0.12352292802E+03 -0.15820780568E+03  0.28259296918E+03  0.35527570472E+03  0.77938543842E+02 0.  0.
         -6    2    1    2    0  502 -0.95823447553E+02  0.15024475979E+03  0.15560318738E+04  0.15755843265E+04  0.17168330355E+03 0.  0.
        -24    2    5    5    0    0 -0.76359855295E+02  0.12080447679E+03  0.15018309829E+04  0.15107353615E+04  0.80003013859E+02 0.  0.
          5    1    3    3  501    0 -0.27699480467E+02  0.79630458847E+01  0.66589536871E+02  0.72711262804E+02  0.47000000000E+01 0. -1.
        -13    1    4    4    0    0  0.91488314688E+01 -0.68716516029E+02  0.77609807065E+02  0.10406220661E+03  0.00000000000E+00 0.  1.
         14    1    4    4    0    0  0.11437409655E+03 -0.89491289647E+02  0.20498316211E+03  0.25121349811E+03  0.00000000000E+00 0. -1.
         -5    1    5    5    0  502 -0.19463592258E+02  0.29440283006E+02  0.54200890933E+02  0.64848965026E+02  0.47000000000E+01 0.  1.
         11    1    6    6    0    0  0.13717243927E+02  0.35280197280E+02  0.45190751928E+03  0.45349008928E+03  0.00000000000E+00 0. -1.
        -12    1    6    6    0    0 -0.90077099222E+02  0.85524279505E+02  0.10499234636E+04  0.10572452722E+04  0.00000000000E+00 0.  1.
</event>
<event>
12    1  0.8271773E-002  0.2532405E+03  0.7818608E-02  0.1111315E+00
         21   -1    0    0  503  502  0.00000000000E+00  0.00000000000E+00  0.24041016763E+03  0.24041016763E+03  0.00000000000E+00 0.  1.
         21   -1    0    0  501  503 -0.00000000000E+00 -0.00000000000E+00 -0.37845846972E+03  0.37845846972E+03  0.00000000000E+00 0. -1.
          6    2    1    2  501    0 -0.15685467089E+03 -0.10097104896E+03 -0.23736943770E+03  0.34709506691E+03  0.17126644450E+03 0.  0.
         24    2    3    3    0    0 -0.15229284433E+03 -0.10615994030E+03 -0.13203886632E+03  0.24143355963E+03  0.79955350889E+02 0.  0.
         -6    2    1    2    0  502  0.15685467089E+03  0.10097104896E+03  0.99321135612E+02  0.27177357045E+03  0.17087318428E+03 0.  0.
        -24    2    5    5    0    0  0.89287212232E+02 -0.10857461919E+02  0.65474460730E+02  0.13672296987E+03  0.79474365264E+02 0.  0.
          5    1    3    3  501    0 -0.45618265612E+01  0.51888913365E+01 -0.10533057138E+03  0.10566150728E+03  0.47000000000E+01 0. -1.
        -13    1    4    4    0    0 -0.12417193599E+03 -0.67546381378E+02 -0.13238069715E+03  0.19366422567E+03  0.00000000000E+00 0.  1.
         14    1    4    4    0    0 -0.28120908342E+02 -0.38613558923E+02  0.34183083132E+00  0.47769333961E+02  0.00000000000E+00 0. -1.
         -5    1    5    5    0  502  0.67567458658E+02  0.11182851088E+03  0.33846674882E+02  0.13505060058E+03  0.47000000000E+01 0.  1.
         11    1    6    6    0    0  0.25412116812E+01 -0.28343989548E+02  0.34641004699E+01  0.28667743064E+02  0.00000000000E+00 0. -1.
        -12    1    6    6    0    0  0.86746000550E+02  0.17486527629E+02  0.62010360260E+02  0.10805522680E+03  0.00000000000E+00 0.  1.
</event>
<event>
12    1  0.8271773E-002  0.1861725E+03  0.7818608E-02  0.1162019E+00
         21   -1    0    0  501  502  0.00000000000E+00  0.00000000000E+00  0.17179694590E+03  0.17179694590E+03  0.00000000000E+00 0. -1.
         21   -1    0    0  502  503 -0.00000000000E+00 -0.00000000000E+00 -0.24282993840E+03  0.24282993840E+03  0.00000000000E+00 0.  1.
         -6    2    1    2    0  503 -0.55923922292E+02 -0.37171735962E+02 -0.12109483762E+03  0.22209046097E+03  0.17364040461E+03 0.  0.
        -24    2    3    3    0    0  0.34967299657E+02  0.80291877052E-01 -0.53660778770E+02  0.10284965378E+03  0.80472688610E+02 0.  0.
          6    2    1    2  501    0  0.55923922292E+02  0.37171735962E+02  0.50061845116E+02  0.19253642333E+03  0.17336338406E+03 0.  0.
         24    2    5    5    0    0  0.10612325509E+03  0.40982831727E+02  0.39759712376E+02  0.14093485936E+03  0.73075728445E+02 0.  0.
          5    1    5    5  501    0 -0.50199332802E+02 -0.38110957647E+01  0.10302132740E+02  0.51601563966E+02  0.47000000000E+01 0. -1.
        -13    1    6    6    0    0  0.39792703642E+02  0.27702652002E+02  0.53184556378E+02  0.71968696168E+02  0.00000000000E+00 0.  1.
         14    1    6    6    0    0  0.66330551453E+02  0.13280179725E+02 -0.13424844002E+02  0.68966163197E+02  0.00000000000E+00 0. -1.
         -5    1    3    3    0  503 -0.90891221949E+02 -0.37252027839E+02 -0.67434058850E+02  0.11924080719E+03  0.47000000000E+01 0.  1.
         13    1    4    4    0    0  0.22775885067E+02  0.28854201244E+02  0.42903994958E+01  0.37009639256E+02  0.00000000000E+00 0. -1.
        -14    1    4    4    0    0  0.12191414590E+02 -0.28773909367E+02 -0.57951178266E+02  0.65840014523E+02  0.00000000000E+00 0.  1.
</event>
<event>
12    1  0.8271773E-002  0.2620045E+03  0.7818608E-02  0.1105956E+00
         21   -1    0    0  501  502  0.00000000000E+00  0.00000000000E+00  0.52377549485E+03  0.52377549485E+03  0.00000000000E+00 0. -1.
         21   -1    0    0  502  503 -0.00000000000E+00 -0.00000000000E+00 -0.18591642295E+03  0.18591642295E+03  0.00000000000E+00 0. -1.
         -6    2    1    2    0  503  0.13300000703E+02 -0.19694010917E+03 -0.23904103721E+02  0.26301646442E+03  0.17217420760E+03 0.  0.
        -24    2    3    3    0    0  0.62506084001E+02 -0.70829596186E+02  0.72558707683E+01  0.12402677369E+03  0.80038432633E+02 0.  0.
          6    2    1    2  501    0 -0.13300000703E+02  0.19694010917E+03  0.36176317562E+03  0.44667545339E+03  0.17229065212E+03 0.  0.
         24    2    5    5    0    0  0.64794934647E+01  0.65904202096E+02  0.66139001098E+02  0.12267332393E+03  0.79303399979E+02 0.  0.
          5    1    5    5  501    0 -0.19779494168E+02  0.13103590707E+03  0.29562417452E+03  0.32400212946E+03  0.47000000000E+01 0. -1.
        -13    1    6    6    0    0  0.36803249887E+02  0.26291895322E+02  0.77733163256E+01  0.45892999559E+02  0.00000000000E+00 0.  1.
         14    1    6    6    0    0 -0.30323756422E+02  0.39612306773E+02  0.58365684773E+02  0.76780324371E+02  0.00000000000E+00 0. -1.
         -5    1    3    3    0  503 -0.49206083298E+02 -0.12611051298E+03 -0.31159974489E+02  0.13898969073E+03  0.47000000000E+01 0.  1.
         11    1    4    4    0    0  0.17232323304E+02 -0.76144265527E+02  0.76184313874E+01  0.78440695024E+02  0.00000000000E+00 0. -1.
        -12    1    4    4    0    0  0.45273760698E+02  0.53146693412E+01 -0.36256061917E+00  0.45586078666E+02  0.00000000000E+00 0.  1.
</event>
<event>
12    1  0.8271773E-002  0.2024272E+03  0.7818608E-02  0.1147758E+00
         21   -1    0    0  501  502  0.00000000000E+00  0.00000000000E+00  0.40517458759E+02  0.40517458759E+02  0.00000000000E+00 0.  1.
         21   -1    0    0  502  503 -0.00000000000E+00 -0.00000000000E+00 -0.11107116000E+04  0.11107116000E+04  0.00000000000E+00 0.  1.
         -6    2    1    2    0  503  0.95862939664E+02 -0.46980546222E+02 -0.70803696100E+03  0.73633800319E+03  0.17169869504E+03 0.  0.
        -24    2    3    3    0    0  0.64837082941E+01  0.25366883130E+02 -0.35904243716E+03  0.36885730274E+03  0.80366167449E+02 0.  0.
          6    2    1    2  501    0 -0.95862939664E+02  0.46980546222E+02 -0.36215718025E+03  0.41489105558E+03  0.17198805152E+03 0.  0.
         24    2    5    5    0    0 -0.40953372023E+02  0.86225695241E+02 -0.16722640807E+03  0.20855313302E+03  0.80110477082E+02 0.  0.
          5    1    5    5  501    0 -0.54909567641E+02 -0.39245149019E+02 -0.19493077218E+03  0.20633792255E+03  0.47000000000E+01 0. -1.
        -13    1    6    6    0    0 -0.58586678960E+02  0.42084115368E+02 -0.70939288435E+02  0.10117239921E+03  0.00000000000E+00 0.  1.
         14    1    6    6    0    0  0.17633306937E+02  0.44141579873E+02 -0.96287119636E+02  0.10738073382E+03  0.00000000000E+00 0. -1.
         -5    1    3    3    0  503  0.89379231370E+02 -0.72347429352E+02 -0.34899452384E+03  0.36748070045E+03  0.47000000000E+01 0.  1.
         13    1    4    4    0    0 -0.90660471258E+01 -0.32418324971E+01 -0.13927636206E+01  0.97284366128E+01  0.00000000000E+00 0. -1.
        -14    1    4    4    0    0  0.15549755420E+02  0.28608715627E+02 -0.35764967354E+03  0.35912886613E+03  0.00000000000E+00 0.  1.
</event>
<event>
12    1  0.8271773E-002  0.2947576E+03  0.7818608E-02  0.1087934E+00
         21   -1    0    0  501  502  0.00000000000E+00  0.00000000000E+00  0.72817704947E+03  0.72817704947E+03  0.00000000000E+00 0.  1.
         21   -1    0    0  502  503 -0.00000000000E+00 -0.00000000000E+00 -0.35097836974E+03  0.35097836974E+03  0.00000000000E+00 0. -1.
         -6    2    1    2    0  503  0.23898515934E+03  0.22167884601E+01 -0.24986449180E+03  0.38641211606E+03  0.17252025573E+03 0.  0.
        -24    2    3    3    0    0  0.19736824629E+03  0.17957983227E+02 -0.26468233404E+03  0.33928026787E+03  0.76010844034E+02 0.  0.
          6    2    1    2  501    0 -0.23898515934E+03 -0.22167884601E+01  0.62706317153E+03  0.69274330315E+03  0.17194837142E+03 0.  0.
         24    2    5    5    0    0 -0.16286995013E+03  0.42698309169E+02  0.52934272431E+03  0.56090147795E+03  0.77826614475E+02 0.  0.
          5    1    5    5  501    0 -0.76115209212E+02 -0.44915097629E+02  0.97720447224E+02  0.13184182521E+03  0.47000000000E+01 0. -1.
        -11    1    6    6    0    0 -0.15647286618E+03  0.16911665669E+02  0.42422851289E+03  0.45248159458E+03  0.00000000000E+00 0.  1.
         12    1    6    6    0    0 -0.63970839469E+01  0.25786643500E+02  0.10511421142E+03  0.10841988336E+03  0.00000000000E+00 0. -1.
         -5    1    3    3    0  503  0.41616913052E+02 -0.15741194767E+02  0.14817842241E+02  0.47131848185E+02  0.47000000000E+01 0.  1.
         13    1    4    4    0    0  0.17721052085E+03  0.39459523444E+02 -0.21385094512E+03  0.28052245796E+03  0.00000000000E+00 0. -1.
        -14    1    4    4    0    0  0.20157725440E+02 -0.21501540217E+02 -0.50831388917E+02  0.58757809914E+02  0.00000000000E+00 0.  1.
</event>
<event>
12    1  0.8271773E-002  0.2805697E+03  0.7818608E-02  0.1095408E+00
         21   -1    0    0  501  502  0.00000000000E+00  0.00000000000E+00  0.47074765286E+02  0.47074765286E+02  0.00000000000E+00 0.  1.
         21   -1    0    0  502  503 -0.00000000000E+00 -0.00000000000E+00 -0.22744347579E+04  0.22744347579E+04  0.00000000000E+00 0.  1.
         -6    2    1    2    0  503  0.20757563724E+03  0.84740857888E+02 -0.51543585310E+03  0.58674625669E+03  0.16831040642E+03 0.  0.
        -24    2    3    3    0    0  0.19686081232E+03  0.88896032623E+02 -0.52351534255E+03  0.57193271221E+03  0.79887604632E+02 0.  0.
          6    2    1    2  501    0 -0.20757563724E+03 -0.84740857888E+02 -0.17119241395E+04  0.17347632665E+04  0.16867327338E+03 0.  0.
         24    2    5    5    0    0 -0.17616712849E+03 -0.99284839452E+02 -0.16446457969E+04  0.16589576783E+04  0.79927745426E+02 0.  0.
          5    1    5    5  501    0 -0.31408508750E+02  0.14543981563E+02 -0.67278342548E+02  0.75805588169E+02  0.47000000000E+01 0. -1.
        -13    1    6    6    0    0 -0.13605368944E+03 -0.44535460213E+02 -0.12862294131E+04  0.12941715948E+04  0.00000000000E+00 0.  1.
         14    1    6    6    0    0 -0.40113439056E+02 -0.54749379238E+02 -0.35841638378E+03  0.36478608346E+03  0.00000000000E+00 0. -1.
         -5    1    3    3    0  503  0.10714824929E+02 -0.41551747351E+01  0.80794894473E+01  0.14813544480E+02  0.47000000000E+01 0.  1.
         11    1    4    4    0    0  0.39613337562E+02  0.38022483783E+02 -0.68243424060E+02  0.87590471590E+02  0.00000000000E+00 0. -1.
        -12    1    4    4    0    0  0.15724747475E+03  0.50873548841E+02 -0.45527191849E+03  0.48434224062E+03  0.00000000000E+00 0.  1.
</event>
<event>
12    1  0.8271773E-002  0.2546243E+03  0.7818608E-02  0.1110534E+00
         21   -1    0    0  501  502  0.00000000000E+00  0.00000000000E+00  0.28003586207E+03  0.28003586207E+03  0.00000000000E+00 0.  1.
         21   -1    0    0  502  503 -0.00000000000E+00 -0.00000000000E+00 -0.27063621770E+03  0.27063621770E+03  0.00000000000E+00 0. -1.
         -6    2    1    2    0  503 -0.91649315920E+02  0.16333401648E+03  0.11030313924E+03  0.27748935333E+03  0.17249916127E+03 0.  0.
        -24    2    3    3    0    0 -0.10801639907E+03  0.14733161683E+03  0.13713279752E+03  0.24191016322E+03  0.79630240044E+02 0.  0.
          6    2    1    2  501    0  0.91649315920E+02 -0.16333401648E+03 -0.10090349488E+03  0.27318272643E+03  0.17137586964E+03 0.  0.
         24    2    5    5    0    0  0.87398489804E+02 -0.89072252786E+02 -0.12588023245E+03  0.19457734183E+03  0.80262985208E+02 0.  0.
          5    1    5    5  501    0  0.42508261162E+01 -0.74261763694E+02  0.24976737572E+02  0.78605384608E+02  0.47000000000E+01 0. -1.
        -11    1    6    6    0    0  0.37683678056E+02 -0.32987566569E+02 -0.24095140427E+01  0.50140252272E+02  0.00000000000E+00 0.  1.
         12    1    6    6    0    0  0.49714811747E+02 -0.56084686217E+02 -0.12347071841E+03  0.14443708955E+03  0.00000000000E+00 0. -1.
         -5    1    3    3    0  503  0.16367083147E+02  0.16002399652E+02 -0.26829658284E+02  0.35579190112E+02  0.47000000000E+01 0.  1.
         11    1    4    4    0    0 -0.40153023740E+01  0.68706073427E+02  0.44016673064E+02  0.81695254982E+02  0.00000000000E+00 0. -1.
        -12    1    4    4    0    0 -0.10400109669E+03  0.78625543400E+02  0.93116124459E+02  0.16021490824E+03  0.00000000000E+00 0.  1.
</event>
<event>
12    1  0.8271773E-002  0.2847865E+03  0.7818608E-02  0.1093263E+00
         21   -1    0    0  501  502  0.00000000000E+00  0.00000000000E+00  0.13416670897E+03  0.13416670897E+03  0.00000000000E+00 0.  1.
         21   -1    0    0  502  503 -0.00000000000E+00 -0.00000000000E+00 -0.10208850932E+04  0.10208850932E+04  0.00000000000E+00 0. -1.
         -6    2    1    2    0  503 -0.19672056793E+03 -0.11384234752E+03 -0.72856794979E+02  0.29280240254E+03  0.16960563795E+03 0.  0.
        -24    2    3    3    0    0 -0.83369610142E+02 -0.31085441590E+01 -0.66907489139E+02  0.13415846450E+03  0.81004484762E+02 0.  0.
          6    2    1    2  501    0  0.19672056793E+03  0.11384234752E+03 -0.81386158926E+03  0.86224939964E+03  0.17159335289E+03 0.  0.
         24    2    5    5    0    0  0.11958692032E+03  0.43512288834E+02 -0.28412886089E+03  0.32230980092E+03  0.83426898469E+02 0.  0.
          5    1    5    5  501    0  0.77133647608E+02  0.70330058685E+02 -0.52973272838E+03  0.53993959872E+03  0.47000000000E+01 0. -1.
        -13    1    6    6    0    0  0.38185728451E+02  0.52155214987E+02 -0.16987841925E+03  0.18176081435E+03  0.00000000000E+00 0.  1.
         14    1    6    6    0    0  0.81401191870E+02 -0.86429261530E+01 -0.11425044164E+03  0.14054898657E+03  0.00000000000E+00 0. -1.
         -5    1    3    3    0  503 -0.11335095779E+03 -0.11073380336E+03 -0.59493058396E+01  0.15864393804E+03  0.47000000000E+01 0.  1.
         11    1    4    4    0    0 -0.23890875040E+02 -0.27613181618E+02 -0.58945835583E+02  0.69338829250E+02  0.00000000000E+00 0. -1.
        -12    1    4    4    0    0 -0.59478735102E+02  0.24504637459E+02 -0.79616535567E+01  0.64819635248E+02  0.00000000000E+00 0.  1.
</event>
<event>
12    1  0.8271773E-002  0.2717567E+03  0.7818608E-02  0.1100664E+00
         21   -1    0    0  501  502  0.00000000000E+00  0.00000000000E+00  0.23848007076E+03  0.23848007076E+03  0.00000000000E+00 0.  1.
         21   -1    0    0  502  503 -0.00000000000E+00 -0.00000000000E+00 -0.54646538669E+03  0.54646538669E+03  0.00000000000E+00 0.  1.
         -6    2    1    2    0  503  0.19974889088E+03 -0.53032074572E+02 -0.41444094676E+03  0.49559357752E+03  0.17646437428E+03 0.  0.
        -24    2    3    3    0    0  0.53479809760E+02  0.33742609081E+02 -0.15244407243E+03  0.18320128893E+03  0.79529009337E+02 0.  0.
          6    2    1    2  501    0 -0.19974889088E+03  0.53032074572E+02  0.10645563082E+03  0.28935187992E+03  0.17227794037E+03 0.  0.
         24    2    5    5    0    0 -0.14945377638E+03  0.94918396628E+02  0.11190215546E+03  0.22350495783E+03  0.78015642569E+02 0.  0.
          5    1    5    5  501    0 -0.50295114501E+02 -0.41886322057E+02 -0.54465246407E+01  0.65846922090E+02  0.47000000000E+01 0. -1.
        -13    1    6    6    0    0 -0.70876453899E+02  0.22578778182E+02  0.85800748950E+02  0.11355633607E+03  0.00000000000E+00 0.  1.
         14    1    6    6    0    0 -0.78577322483E+02  0.72339618446E+02  0.26101406514E+02  0.10994862176E+03  0.00000000000E+00 0. -1.
         -5    1    3    3    0  503  0.14626908112E+03 -0.86774683653E+02 -0.26199687432E+03  0.31239228859E+03  0.47000000000E+01 0.  1.
         11    1    4    4    0    0  0.35198491303E+02 -0.13014238603E+02 -0.22166208065E+02  0.43584916845E+02  0.00000000000E+00 0. -1.
        -12    1    4    4    0    0  0.18281318457E+02  0.46756847684E+02 -0.13027786437E+03  0.13961637209E+03  0.00000000000E+00 0.  1.
</event>
<event>
12    1  0.8271773E-002  0.2526675E+03  0.7818608E-02  0.1113765E+00
         21   -1    0    0  501  502  0.00000000000E+00  0.00000000000E+00  0.25477802091E+03  0.25477802091E+03  0.00000000000E+00 0.  1.
         21   -1    0    0  502  503 -0.00000000000E+00 -0.00000000000E+00 -0.28568483928E+03  0.28568483928E+03  0.00000000000E+00 0. -1.
         -6    2    1    2    0  503  0.15969895378E+03 -0.52801983852E+02 -0.12598967112E+03  0.27049690798E+03  0.17030377172E+03 0.  0.
        -24    2    3    3    0    0  0.15437709111E+03 -0.89682622399E+02 -0.82984690369E+02  0.21340030483E+03  0.82328441299E+02 0.  0.
          6    2    1    2  501    0 -0.15969895378E+03  0.52801983852E+02  0.95082852752E+02  0.26996595220E+03  0.18854458656E+03 0.  0.
         24    2    5    5    0    0 -0.17555622906E+03  0.20533929855E+02  0.11798348500E+03  0.22707994696E+03  0.80022295266E+02 0.  0.
          5    1    5    5  501    0  0.15857275281E+02  0.32268053997E+02 -0.22900632251E+02  0.42886005242E+02  0.47000000000E+01 0. -1.
        -11    1    6    6    0    0 -0.55953093961E+02 -0.29943277909E+02  0.29560549931E+02  0.70008390411E+02  0.00000000000E+00 0.  1.
         12    1    6    6    0    0 -0.11960313510E+03  0.50477207764E+02  0.88422935072E+02  0.15707155655E+03  0.00000000000E+00 0. -1.
         -5    1    3    3    0  503  0.53218626681E+01  0.36880638547E+02 -0.43004980750E+02  0.57096603149E+02  0.47000000000E+01 0.  1.
         11    1    4    4    0    0 -0.21139648853E+01 -0.32819755098E+01 -0.25249681863E+02  0.25549689723E+02  0.00000000000E+00 0. -1.
        -12    1    4    4    0    0  0.15649105600E+03 -0.86400646889E+02 -0.57735008507E+02  0.18785061511E+03  0.00000000000E+00 0.  1.
</event>
<event>
12    1  0.8271773E-002  0.1784348E+03  0.7818608E-02  0.1171019E+00
         21   -1    0    0  501  502  0.00000000000E+00  0.00000000000E+00  0.12125368105E+03  0.12125368105E+03  0.00000000000E+00 0.  1.
         21   -1    0    0  502  503 -0.00000000000E+00 -0.00000000000E+00 -0.26482773833E+03  0.26482773833E+03  0.00000000000E+00 0.  1.
         -6    2    1    2    0  503 -0.24811260148E+01 -0.12389437434E+02 -0.11440112002E+03  0.21195896488E+03  0.17798688824E+03 0.  0.
        -24    2    3    3    0    0  0.32385211889E+02  0.30177818845E+02 -0.13415235473E+02  0.96859565647E+02  0.85101728627E+02 0.  0.
          6    2    1    2  501    0  0.24811260148E+01  0.12389437434E+02 -0.29172937259E+02  0.17412245450E+03  0.17119554534E+03 0.  0.
         24    2    5    5    0    0  0.61005811063E+02  0.37523395093E+02 -0.24187793385E+02  0.11006157527E+03  0.79992417388E+02 0.  0.
          5    1    5    5  501    0 -0.58524685048E+02 -0.25133957659E+02 -0.49851438733E+01  0.64060879225E+02  0.47000000000E+01 0. -1.
        -13    1    6    6    0    0 -0.11729301580E+02  0.92088041874E+01 -0.28206841250E+02  0.31906182526E+02  0.00000000000E+00 0.  1.
         14    1    6    6    0    0  0.72735112643E+02  0.28314590905E+02  0.40190478647E+01  0.78155392745E+02  0.00000000000E+00 0. -1.
         -5    1    3    3    0  503 -0.34866337904E+02 -0.42567256279E+02 -0.10098588455E+03  0.11509939923E+03  0.47000000000E+01 0.  1.
         11    1    4    4    0    0  0.22429104851E+01 -0.79543919828E+01 -0.40419054395E+02  0.41255338533E+02  0.00000000000E+00 0. -1.
        -12    1    4    4    0    0  0.30142301404E+02  0.38132210828E+02  0.27003818923E+02  0.55604227114E+02  0.00000000000E+00 0.  1.
</event>
<event>
12    1  0.8271773E-002  0.4823267E+03  0.7818608E-02  0.1018548E+00
         21   -1    0    0  503  502  0.00000000000E+00  0.00000000000E+00  0.51461382035E+03  0.51461382035E+03  0.00000000000E+00 0. -1.
         21   -1    0    0  501  503 -0.00000000000E+00 -0.00000000000E+00 -0.51020185016E+03  0.51020185016E+03  0.00000000000E+00 0. -1.
          6    2    1    2  501    0 -0.45851754317E+02  0.44831711410E+03 -0.17178641292E+03  0.51200547542E+03  0.17189652999E+03 0.  0.
         24    2    3    3    0    0 -0.25549147276E+02  0.17131118250E+03 -0.13165957484E+03  0.23133354036E+03  0.78617320429E+02 0.  0.
         -6    2    1    2    0  502  0.45851754317E+02 -0.44831711410E+03  0.17619838312E+03  0.51281019510E+03  0.16981698329E+03 0.  0.
        -24    2    5    5    0    0  0.27756207489E+02 -0.42957334595E+03  0.19556589684E+03  0.48000824017E+03  0.82814394977E+02 0.  0.
          5    1    3    3  501    0 -0.20302607041E+02  0.27700593160E+03 -0.40126838082E+02  0.28067193506E+03  0.47000000000E+01 0. -1.
        -13    1    4    4    0    0 -0.36390127940E+02  0.33628957792E+02 -0.52314771378E+02  0.72055419769E+02  0.00000000000E+00 0.  1.
         14    1    4    4    0    0  0.10840980664E+02  0.13768222471E+03 -0.79344803464E+02  0.15927812059E+03  0.00000000000E+00 0. -1.
         -5    1    5    5    0  502  0.18095546828E+02 -0.18743768147E+02 -0.19367513724E+02  0.32801954929E+02  0.47000000000E+01 0.  1.
         11    1    6    6    0    0  0.25591572380E+02 -0.15078443649E+03  0.10995042613E+03  0.18836127806E+03  0.00000000000E+00 0. -1.
        -12    1    6    6    0    0  0.21646351092E+01 -0.27878890946E+03  0.85615470708E+02  0.29164696211E+03  0.00000000000E+00 0.  1.
</event>
<event>
12    1  0.8271773E-002  0.1777083E+03  0.7818608E-02  0.1170219E+00
         21   -1    0    0  503  502  0.00000000000E+00  0.00000000000E+00  0.23522434554E+03  0.23522434554E+03  0.00000000000E+00 0.  1.
         21   -1    0    0  501  503 -0.00000000000E+00 -0.00000000000E+00 -0.14183921689E+03  0.14183921689E+03  0.00000000000E+00 0.  1.
          6    2    1    2  501    0 -0.41678730789E+02 -0.14408604497E+02  0.14577848470E+01  0.17698638637E+03  0.17139816610E+03 0.  0.
         24    2    3    3    0    0 -0.77615944253E+01 -0.72970659824E+02 -0.77912423354E+00  0.10911164714E+03  0.80745185396E+02 0.  0.
         -6    2    1    2    0  502  0.41678730789E+02  0.14408604497E+02  0.91927343800E+02  0.20007717606E+03  0.17214968881E+03 0.  0.
        -24    2    5    5    0    0  0.17673696743E+02  0.71158319913E+02  0.77789031537E+02  0.13668353495E+03  0.85178572716E+02 0.  0.
          5    1    3    3  501    0 -0.33917136364E+02  0.58562055327E+02  0.22369090805E+01  0.67874739229E+02  0.47000000000E+01 0. -1.
        -11    1    4    4    0    0 -0.33747454508E+02 -0.75551079854E+02 -0.37428410566E+01  0.82830339925E+02  0.00000000000E+00 0.  1.
         12    1    4    4    0    0  0.25985860082E+02  0.25804200300E+01  0.29637168231E+01  0.26281307219E+02  0.00000000000E+00 0. -1.
         -5    1    5    5    0  502  0.24005034046E+02 -0.56749715415E+02  0.14138312262E+02  0.63393641108E+02  0.47000000000E+01 0.  1.
         11    1    6    6    0    0  0.29189510737E+02 -0.90989106143E+01  0.14560384028E+02  0.33864767746E+02  0.00000000000E+00 0. -1.
        -12    1    6    6    0    0 -0.11515813994E+02  0.80257230527E+02  0.63228647509E+02  0.10281876721E+03  0.00000000000E+00 0.  1.
</event>
<event>
12    1  0.8271773E-002  0.2038648E+03  0.7818608E-02  0.1146717E+00
         21   -1    0    0  503  502  0.00000000000E+00  0.00000000000E+00  0.20089082205E+03  0.20089082205E+03  0.00000000000E+00 0.  1.
         21   -1    0    0  501  503 -0.00000000000E+00 -0.00000000000E+00 -0.44316759609E+03  0.44316759609E+03  0.00000000000E+00 0.  1.
          6    2    1    2  501    0 -0.94874927738E+02  0.54593831487E+02 -0.35689766627E+03  0.41101920874E+03  0.17198577679E+03 0.  0.
         24    2    3    3    0    0 -0.97676180401E+01  0.40828983520E+02 -0.28432124129E+03  0.29822668831E+03  0.79612669299E+02 0.  0.
         -6    2    1    2    0  502  0.94874927738E+02 -0.54593831487E+02  0.11462089223E+03  0.23303920939E+03  0.17084374683E+03 0.  0.
        -24    2    5    5    0    0  0.86175876432E+02 -0.13573492387E+02  0.65330584685E+01  0.11700726758E+03  0.77701341299E+02 0.  0.
          5    1    3    3  501    0 -0.85107309698E+02  0.13764847967E+02 -0.72576424978E+02  0.11279252044E+03  0.47000000000E+01 0. -1.
        -11    1    4    4    0    0 -0.16977624188E+02  0.53308235129E+02 -0.27594021520E+03  0.28155463062E+03  0.00000000000E+00 0.  1.
         12    1    4    4    0    0  0.72100061483E+01 -0.12479251609E+02 -0.83810260876E+01  0.16672057691E+02  0.00000000000E+00 0. -1.
         -5    1    5    5    0  502  0.86990513058E+01 -0.41020339100E+02  0.10808783376E+03  0.11603194181E+03  0.47000000000E+01 0.  1.
         13    1    6    6    0    0 -0.10662624348E+02 -0.67162282100E+01 -0.12863591484E+02  0.18007533569E+02  0.00000000000E+00 0. -1.
        -14    1    6    6    0    0  0.96838500780E+02 -0.68572641772E+01  0.19396649953E+02  0.98999734014E+02  0.00000000000E+00 0.  1.
</event>
<event>
12    1  0.8271773E-002  0.1886312E+03  0.7818608E-02  0.1159907E+00
         21   -1    0    0  501  502  0.00000000000E+00  0.00000000000E+00  0.45098869626E+03  0.45098869626E+03  0.00000000000E+00 0.  1.
         21   -1    0    0  502  503 -0.00000000000E+00 -0.00000000000E+00 -0.82598708761E+02  0.82598708761E+02  0.00000000000E+00 0. -1.
         -6    2    1    2    0  503 -0.53906363858E+02 -0.50572832649E+02  0.12450619837E+03  0.22526774061E+03  0.17256956296E+03 0.  0.
        -24    2    3    3    0    0  0.38675811756E+02 -0.25680223925E+02  0.67787277516E+02  0.11377681186E+03  0.78706769778E+02 0.  0.
          6    2    1    2  501    0  0.53906363858E+02  0.50572832649E+02  0.24388378912E+03  0.30831966441E+03  0.17354597487E+03 0.  0.
         24    2    5    5    0    0  0.23667363547E+02  0.83520572140E+02  0.23401643692E+03  0.26228266497E+03  0.80577127830E+02 0.  0.
          5    1    5    5  501    0  0.30239000312E+02 -0.32947739492E+02  0.98673522095E+01  0.46036999436E+02  0.47000000000E+01 0. -1.
        -11    1    6    6    0    0 -0.16783512122E+02  0.12117578690E+01  0.85444791396E+01  0.18872274904E+02  0.00000000000E+00 0.  1.
         12    1    6    6    0    0  0.40450875668E+02  0.82308814271E+02  0.22547195778E+03  0.24341039007E+03  0.00000000000E+00 0. -1.
         -5    1    3    3    0  503 -0.92582175614E+02 -0.24892608724E+02  0.56718920858E+02  0.11149092875E+03  0.47000000000E+01 0.  1.
         13    1    4    4    0    0  0.57426841571E+02  0.25169850205E+01  0.44147988179E+02  0.72479115658E+02  0.00000000000E+00 0. -1.
        -14    1    4    4    0    0 -0.18751029815E+02 -0.28197208946E+02  0.23639289337E+02  0.41297696205E+02  0.00000000000E+00 0.  1.
</event>
<event>
12    1  0.8271773E-002  0.1785535E+03  0.7818608E-02  0.1169495E+00
         21   -1    0    0  503  502  0.00000000000E+00  0.00000000000E+00  0.74399346222E+03  0.74399346222E+03  0.00000000000E+00 0.  1.
         21   -1    0    0  501  503 -0.00000000000E+00 -0.00000000000E+00 -0.42756889555E+02  0.42756889555E+02  0.00000000000E+00 0.  1.
          6    2    1    2  501    0 -0.15203142492E+02  0.44669150430E+02  0.32371533087E+03  0.36913373443E+03  0.17100184184E+03 0.  0.
         24    2    3    3    0    0  0.30783163997E+01  0.81370929894E+02  0.30128428705E+03  0.32216061359E+03  0.79903285666E+02 0.  0.
         -6    2    1    2    0  502  0.15203142492E+02 -0.44669150430E+02  0.37752124180E+03  0.41761661735E+03  0.17220593060E+03 0.  0.
        -24    2    5    5    0    0 -0.28763048225E+02 -0.88347130578E+00  0.89552714903E+02  0.12300131886E+03  0.79256181015E+02 0.  0.
          5    1    3    3  501    0 -0.18281458892E+02 -0.36701779464E+02  0.22431043821E+02  0.46973120845E+02  0.47000000000E+01 0. -1.
        -11    1    4    4    0    0  0.29487762687E+02  0.69402507680E+02  0.14740173003E+03  0.16557024562E+03  0.00000000000E+00 0.  1.
         12    1    4    4    0    0 -0.26409446287E+02  0.11968422214E+02  0.15388255702E+03  0.15659036796E+03  0.00000000000E+00 0. -1.
         -5    1    5    5    0  502  0.43966190717E+02 -0.43785679125E+02  0.28796852689E+03  0.29461529849E+03  0.47000000000E+01 0.  1.
         11    1    6    6    0    0 -0.90599034116E+01  0.31351920089E+02  0.76262571887E+02  0.82951821040E+02  0.00000000000E+00 0. -1.
        -12    1    6    6    0    0 -0.19703144814E+02 -0.32235391395E+02  0.13290143016E+02  0.40049497816E+02  0.00000000000E+00 0.  1.
</event>
<event>
12    1  0.8271773E-002  0.1996203E+03  0.7818608E-02  0.1151420E+00
         21   -1    0    0  503  502  0.00000000000E+00  0.00000000000E+00  0.13125609847E+04  0.13125609847E+04  0.00000000000E+00 0. -1.
         21   -1    0    0  501  503 -0.00000000000E+00 -0.00000000000E+00 -0.49583992365E+02  0.49583992365E+02  0.00000000000E+00 0. -1.
          6    2    1    2  501    0 -0.75466971928E+02  0.44809904191E+02  0.20306672194E+03  0.28475314300E+03  0.17929045575E+03 0.  0.
         24    2    3    3    0    0 -0.24849958631E+02 -0.38542031290E+02  0.14261731338E+03  0.16992349448E+03  0.80195307097E+02 0.  0.
         -6    2    1    2    0  502  0.75466971928E+02 -0.44809904191E+02  0.10599102704E+04  0.10773918341E+04  0.17222134439E+03 0.  0.
        -24    2    5    5    0    0  0.96266261241E+02 -0.26794203776E+02  0.10242658277E+04  0.10321172033E+04  0.78487662066E+02 0.  0.
          5    1    3    3  501    0 -0.50617013297E+02  0.83351935481E+02  0.60449408558E+02  0.11482964852E+03  0.47000000000E+01 0. -1.
        -11    1    4    4    0    0 -0.63194890395E+01  0.24620350364E+02  0.52460829925E+02  0.58294393129E+02  0.00000000000E+00 0.  1.
         12    1    4    4    0    0 -0.18530469592E+02 -0.63162381654E+02  0.90156483458E+02  0.11162910135E+03  0.00000000000E+00 0. -1.
         -5    1    5    5    0  502 -0.20799289314E+02 -0.18015700415E+02  0.35644442646E+02  0.45274630743E+02  0.47000000000E+01 0.  1.
         13    1    6    6    0    0  0.27692881219E+02 -0.46442723864E+02  0.36111261783E+03  0.36513852854E+03  0.00000000000E+00 0. -1.
        -14    1    6    6    0    0  0.68573380023E+02  0.19648520088E+02  0.66315320991E+03  0.66697867478E+03  0.00000000000E+00 0.  1.
</event>
<event>
12    1  0.8271773E-002  0.2217291E+03  0.7818608E-02  0.1132954E+00
         21   -1    0    0  503  502  0.00000000000E+00  0.00000000000E+00  0.23545543808E+03  0.23545543808E+03  0.00000000000E+00 0.  1.
         21   -1    0    0  501  503 -0.00000000000E+00 -0.00000000000E+00 -0.22803567461E+03  0.22803567461E+03  0.00000000000E+00 0.  1.
          6    2    1    2  501    0  0.13853521785E+03 -0.17980530794E+02  0.74065726352E+02  0.23196257962E+03  0.16972212717E+03 0.  0.
         24    2    3    3    0    0  0.15345837027E+03  0.18391993211E+02  0.37652154161E+02  0.17816946463E+03  0.80242984710E+02 0.  0.
         -6    2    1    2    0  502 -0.13853521785E+03  0.17980530794E+02 -0.66645962888E+02  0.23152853307E+03  0.17218731424E+03 0.  0.
        -24    2    5    5    0    0 -0.18572782723E+02  0.26139147200E+02  0.16423763097E+02  0.85308772987E+02  0.77328154509E+02 0.  0.
          5    1    3    3  501    0 -0.14923152413E+02 -0.36372524005E+02  0.36413572191E+02  0.53793114988E+02  0.47000000000E+01 0. -1.
        -11    1    4    4    0    0  0.16213811000E+03  0.10636391068E+02  0.34473413238E+02  0.16610332853E+03  0.00000000000E+00 0.  1.
         12    1    4    4    0    0 -0.86797397353E+01  0.77556021425E+01  0.31787409227E+01  0.12066136097E+02  0.00000000000E+00 0. -1.
         -5    1    5    5    0  502 -0.11996243513E+03 -0.81586164059E+01 -0.83069725984E+02  0.14621976008E+03  0.47000000000E+01 0.  1.
         13    1    6    6    0    0  0.21687315452E+02 -0.13166483445E+02 -0.35179099935E+01  0.25613895224E+02  0.00000000000E+00 0. -1.
        -14    1    6    6    0    0 -0.40260098176E+02  0.39305630645E+02  0.19941673090E+02  0.59694877763E+02  0.00000000000E+00 0.  1.
</event>
<event>
12    1  0.8271773E-002  0.1916411E+03  0.7818608E-02  0.1157019E+00
         21   -1    0    0  501  502  0.00000000000E+00  0.00000000000E+00  0.10035496056E+04  0.10035496056E+04  0.00000000000E+00 0.  1.
         21   -1    0    0  502  503 -0.00000000000E+00 -0.00000000000E+00 -0.45810571131E+02  0.45810571131E+02  0.00000000000E+00 0. -1.
         -6    2    1    2    0  503 -0.28991087545E+02 -0.77920553302E+02  0.24310409981E+03  0.30947546170E+03  0.17252061404E+03 0.  0.
        -24    2    3    3    0    0 -0.68083234412E+01 -0.11833464823E+03  0.20356631762E+03  0.24855994388E+03  0.79330686321E+02 0.  0.
          6    2    1    2  501    0  0.28991087545E+02  0.77920553302E+02  0.71463493466E+03  0.73988471503E+03  0.17266790642E+03 0.  0.
         24    2    5    5    0    0  0.54854911743E+02 -0.12566039004E+02  0.31073731329E+03  0.32514125294E+03  0.77409235997E+02 0.  0.
          5    1    5    5  501    0 -0.25863824197E+02  0.90486592306E+02  0.40389762138E+03  0.41474346209E+03  0.47000000000E+01 0. -1.
        -11    1    6    6    0    0  0.27305199257E+02 -0.28876338872E+02  0.27199074719E+03  0.27487885224E+03  0.00000000000E+00 0.  1.
         12    1    6    6    0    0  0.27549712486E+02  0.16310299868E+02  0.38746566097E+02  0.50262400700E+02  0.00000000000E+00 0. -1.
         -5    1    3    3    0  503 -0.22182764104E+02  0.40414094924E+02  0.39537782187E+02  0.60915517827E+02  0.47000000000E+01 0.  1.
         13    1    4    4    0    0 -0.87607282611E+01 -0.90031642968E+02  0.20057918374E+03  0.22003285219E+03  0.00000000000E+00 0. -1.
        -14    1    4    4    0    0  0.19524048199E+01 -0.28303005258E+02  0.29871338832E+01  0.28527091686E+02  0.00000000000E+00 0.  1.
</event>
<event>
12    1  0.8271773E-002  0.2705490E+03  0.7818608E-02  0.1101041E+00
         21   -1    0    0  501  502  0.00000000000E+00  0.00000000000E+00  0.64095306587E+03  0.64095306587E+03  0.00000000000E+00 0.  1.
         21   -1    0    0  502  503 -0.00000000000E+00 -0.00000000000E+00 -0.20785766025E+03  0.20785766025E+03  0.00000000000E+00 0. -1.
         -6    2    1    2    0  503 -0.19734522437E+03 -0.65843867305E+02  0.50188426971E+03  0.57016188714E+03  0.17296301605E+03 0.  0.
        -24    2    3    3    0    0 -0.14925954308E+03 -0.10290467256E+02  0.44861753152E+03  0.47928918277E+03  0.77949510675E+02 0.  0.
          6    2    1    2  501    0  0.19734522437E+03  0.65843867305E+02 -0.68788864089E+02  0.27864883898E+03  0.17214155570E+03 0.  0.
         24    2    5    5    0    0  0.46803656519E+02  0.49701138691E+02 -0.71610817471E+02  0.12714502794E+03  0.79855892089E+02 0.  0.
          5    1    5    5  501    0  0.15054156785E+03  0.16142728614E+02  0.28219533820E+01  0.15150381104E+03  0.47000000000E+01 0. -1.
        -11    1    6    6    0    0  0.60204297153E+02  0.15572127296E+02 -0.64875566408E+02  0.89865942720E+02  0.00000000000E+00 0.  1.
         12    1    6    6    0    0 -0.13400640634E+02  0.34129011395E+02 -0.67352510626E+01  0.37279085224E+02  0.00000000000E+00 0. -1.
         -5    1    3    3    0  503 -0.48085681291E+02 -0.55553400049E+02  0.53266738187E+02  0.90872704369E+02  0.47000000000E+01 0.  1.
         11    1    4    4    0    0 -0.21818492863E+02  0.26076496096E+02  0.12611627603E+03  0.13061908497E+03  0.00000000000E+00 0. -1.
        -12    1    4    4    0    0 -0.12744105022E+03 -0.36366963352E+02  0.32250125549E+03  0.34867009780E+03  0.00000000000E+00 0.  1.
</event>
<event>
12    1  0.8271773E-002  0.2088183E+03  0.7818608E-02  0.1146088E+00
         21   -1    0    0  501  502  0.00000000000E+00  0.00000000000E+00  0.45683335599E+03  0.45683335599E+03  0.00000000000E+00 0.  1.
         21   -1    0    0  502  503 -0.00000000000E+00 -0.00000000000E+00 -0.27607947056E+03  0.27607947056E+03  0.00000000000E+00 0.  1.
         -6    2    1    2    0  503 -0.37360946784E+02 -0.78401319907E+02 -0.21095664596E+03  0.29682956751E+03  0.18990123319E+03 0.  0.
        -24    2    3    3    0    0  0.17065834946E+02 -0.60706369210E+02 -0.27735570276E+02  0.10482061349E+03  0.79003754143E+02 0.  0.
          6    2    1    2  501    0  0.37360946784E+02  0.78401319907E+02  0.39171053139E+03  0.43608325904E+03  0.17084747908E+03 0.  0.
         24    2    5    5    0    0 -0.27041391789E+02  0.91402707038E+02  0.26633242937E+03  0.29445538133E+03  0.81763787414E+02 0.  0.
          5    1    5    5  501    0  0.64402338573E+02 -0.13001387131E+02  0.12537810202E+03  0.14162787772E+03  0.47000000000E+01 0. -1.
        -11    1    6    6    0    0 -0.14247167045E+02  0.98188824127E+02  0.26065509607E+03  0.27889981366E+03  0.00000000000E+00 0.  1.
         12    1    6    6    0    0 -0.12794224744E+02 -0.67861170889E+01  0.56773333012E+01  0.15555567664E+02  0.00000000000E+00 0. -1.
         -5    1    3    3    0  503 -0.54426781730E+02 -0.17694950697E+02 -0.18322107568E+03  0.19200895402E+03  0.47000000000E+01 0.  1.
         13    1    4    4    0    0 -0.14480572287E+02 -0.45469242750E+02 -0.45153471085E+02  0.65696080256E+02  0.00000000000E+00 0. -1.
        -14    1    4    4    0    0  0.31546407233E+02 -0.15237126460E+02  0.17417900810E+02  0.39124533233E+02  0.00000000000E+00 0.  1.
</event>
<event>
12    1  0.8271773E-002  0.1878550E+03  0.7818608E-02  0.1160459E+00
         21   -1    0    0  503  502  0.00000000000E+00  0.00000000000E+00  0.15989548102E+03  0.15989548102E+03  0.00000000000E+00 0. -1.
         21   -1    0    0  501  503 -0.00000000000E+00 -0.00000000000E+00 -0.27628963021E+03  0.27628963021E+03  0.00000000000E+00 0.  1.
          6    2    1    2  501    0  0.44745782286E+02  0.60666485684E+02 -0.15621282724E+03  0.24415640713E+03  0.17183508440E+03 0.  0.
         24    2    3    3    0    0  0.15793433319E+01  0.30839002487E+01 -0.15467106218E+03  0.17202068341E+03  0.75206205067E+02 0.  0.
         -6    2    1    2    0  502 -0.44745782286E+02 -0.60666485684E+02  0.39818678047E+02  0.19202870409E+03  0.17206652364E+03 0.  0.
        -24    2    5    5    0    0 -0.87403871301E+02 -0.80948153463E+02  0.19360248025E+02  0.14034025311E+03  0.71613735915E+02 0.  0.
          5    1    3    3  501    0  0.43166438954E+02  0.57582585435E+02 -0.15417650646E+01  0.72135723722E+02  0.47000000000E+01 0. -1.
        -11    1    4    4    0    0 -0.17559262415E+02 -0.17001490805E+02 -0.13691968323E+03  0.13908406825E+03  0.00000000000E+00 0.  1.
         12    1    4    4    0    0  0.19138605747E+02  0.20085391054E+02 -0.17751378951E+02  0.32936615163E+02  0.00000000000E+00 0. -1.
         -5    1    5    5    0  502  0.42658089015E+02  0.20281667779E+02  0.20458430022E+02  0.51688450985E+02  0.47000000000E+01 0.  1.
         11    1    6    6    0    0 -0.85474362942E+02 -0.35788667623E+02  0.21363534047E+02  0.95095194608E+02  0.00000000000E+00 0. -1.
        -12    1    6    6    0    0 -0.19295083587E+01 -0.45159485840E+02 -0.20032860221E+01  0.45245058501E+02  0.00000000000E+00 0.  1.
</event>
<event>
12    1  0.8271773E-002  0.1919460E+03  0.7818608E-02  0.1156876E+00
         21   -1    0    0  501  502  0.00000000000E+00  0.00000000000E+00  0.21505372781E+04  0.21505372781E+04  0.00000000000E+00 0.  1.
         21   -1    0    0  502  503 -0.00000000000E+00 -0.00000000000E+00 -0.72347511118E+02  0.72347511118E+02  0.00000000000E+00 0. -1.
         -6    2    1    2    0  503  0.69704023963E+02 -0.45157755122E+02  0.67117357746E+02  0.20267304286E+03  0.17226070007E+03 0.  0.
        -24    2    3    3    0    0  0.82275368446E+02 -0.78958959566E+02  0.18168516594E+02  0.14169239696E+03  0.82115082741E+02 0.  0.
          6    2    1    2  501    0 -0.69704023963E+02  0.45157755122E+02  0.20110724092E+04  0.20202117463E+04  0.17304736670E+03 0.  0.
         24    2    5    5    0    0  0.12357991938E+01  0.78559452244E+02  0.12800961729E+04  0.12850270893E+04  0.80469209206E+02 0.  0.
          5    1    5    5  501    0 -0.70939823157E+02 -0.33401697122E+02  0.73097623634E+03  0.73518465705E+03  0.47000000000E+01 0. -1.
        -11    1    6    6    0    0  0.35188101299E+02  0.49391353116E+02  0.94658346792E+03  0.94852410090E+03  0.00000000000E+00 0.  1.
         12    1    6    6    0    0 -0.33952302105E+02  0.29168099128E+02  0.33351270496E+03  0.33650298839E+03  0.00000000000E+00 0. -1.
         -5    1    3    3    0  503 -0.12571344482E+02  0.33801204444E+02  0.48948841152E+02  0.60980645898E+02  0.47000000000E+01 0.  1.
         13    1    4    4    0    0  0.24673850138E+02 -0.76110326700E+02  0.24492614416E+02  0.83674780382E+02  0.00000000000E+00 0. -1.
        -14    1    4    4    0    0  0.57601518308E+02 -0.28486328657E+01 -0.63240978223E+01  0.58017616582E+02  0.00000000000E+00 0.  1.
</event>
<event>
12    1  0.8271773E-002  0.2267072E+03  0.7818608E-02  0.1129327E+00
         21   -1    0    0  503  502  0.00000000000E+00  0.00000000000E+00  0.10386225419E+03  0.10386225419E+03  0.00000000000E+00 0.  1.
         21   -1    0    0  501  503 -0.00000000000E+00 -0.00000000000E+00 -0.86476681522E+03  0.86476681522E+03  0.00000000000E+00 0.  1.
          6    2    1    2  501    0  0.11730645192E+03  0.84361897387E+02 -0.69808238715E+03  0.73337865404E+03  0.17218448699E+03 0.  0.
         24    2    3    3    0    0  0.34370220879E+02 -0.17973455609E+02 -0.31909774812E+03  0.33212762349E+03  0.83552547799E+02 0.  0.
         -6    2    1    2    0  502 -0.11730645192E+03 -0.84361897387E+02 -0.62822173879E+02  0.23525041537E+03  0.17469516024E+03 0.  0.
        -24    2    5    5    0    0 -0.10813692553E+03 -0.76534004035E+02 -0.10807790643E+03  0.18818102556E+03  0.78614350381E+02 0.  0.
          5    1    3    3  501    0  0.82936231041E+02  0.10233535300E+03 -0.37898463903E+03  0.40125103054E+03  0.47000000000E+01 0. -1.
        -13    1    4    4    0    0  0.30016699481E+02 -0.12949609854E+02 -0.34779343360E+02  0.47731513360E+02  0.00000000000E+00 0.  1.
         14    1    4    4    0    0  0.43535213979E+01 -0.50238457553E+01 -0.28431840476E+03  0.28439611013E+03  0.00000000000E+00 0. -1.
         -5    1    5    5    0  502 -0.91695263945E+01 -0.78278933522E+01  0.45255732553E+02  0.47069389815E+02  0.47000000000E+01 0.  1.
         11    1    6    6    0    0 -0.16428118201E+02 -0.57461145146E+02 -0.50385185232E+02  0.78168620046E+02  0.00000000000E+00 0. -1.
        -12    1    6    6    0    0 -0.91708807325E+02 -0.19072858889E+02 -0.57692721200E+02  0.11001240551E+03  0.00000000000E+00 0.  1.
</event>
<event>
12    1  0.8271773E-002  0.1723846E+03  0.7818608E-02  0.1178388E+00
         21   -1    0    0  503  502  0.00000000000E+00  0.00000000000E+00  0.38666363074E+03  0.38666363074E+03  0.00000000000E+00 0. -1.
         21   -1    0    0  501  503 -0.00000000000E+00 -0.00000000000E+00 -0.12656632097E+03  0.12656632097E+03  0.00000000000E+00 0.  1.
          6    2    1    2  501    0  0.12403629876E+02 -0.17824986801E+02 -0.41066715238E+02  0.16621952856E+03  0.15959597860E+03 0.  0.
         24    2    3    3    0    0 -0.52548580579E+02 -0.74279963860E+01 -0.23935509101E+02  0.98083963130E+02  0.78936853093E+02 0.  0.
         -6    2    1    2    0  502 -0.12403629876E+02  0.17824986801E+02  0.30116402500E+03  0.34701042316E+03  0.17101135528E+03 0.  0.
        -24    2    5    5    0    0  0.58521576193E+02  0.20890981117E+02  0.20895313394E+03  0.23054272974E+03  0.75015532285E+02 0.  0.
          5    1    3    3  501    0  0.64952210455E+02 -0.10396990415E+02 -0.17131206136E+02  0.68135565429E+02  0.47000000000E+01 0. -1.
        -11    1    4    4    0    0 -0.20227046784E+02  0.13757751532E+02  0.25499330826E+02  0.35335888575E+02  0.00000000000E+00 0.  1.
         12    1    4    4    0    0 -0.32321533795E+02 -0.21185747918E+02 -0.49434839928E+02  0.62748074555E+02  0.00000000000E+00 0. -1.
         -5    1    5    5    0  502 -0.70925206069E+02 -0.30659943154E+01  0.92210891069E+02  0.11646769341E+03  0.47000000000E+01 0.  1.
         13    1    6    6    0    0  0.20080062113E+02  0.44045185669E+02  0.14127636220E+03  0.14933920380E+03  0.00000000000E+00 0. -1.
        -14    1    6    6    0    0  0.38441514080E+02 -0.23154204552E+02  0.67676771735E+02  0.81203525944E+02  0.00000000000E+00 0.  1.
</event>
<event>
12    1  0.8271773E-002  0.1884589E+03  0.7818608E-02  0.1159928E+00
         21   -1    0    0  503  502  0.00000000000E+00  0.00000000000E+00  0.72432098186E+03  0.72432098186E+03  0.00000000000E+00 0.  1.
         21   -1    0    0  501  503 -0.00000000000E+00 -0.00000000000E+00 -0.70063425920E+02  0.70063425920E+02  0.00000000000E+00 0.  1.
          6    2    1    2  501    0  0.42493582491E+02 -0.64899170788E+02  0.10893036596E+03  0.21741084323E+03  0.17141774471E+03 0.  0.
         24    2    3    3    0    0 -0.11839023146E+02 -0.90221998033E+02  0.45044081479E+02  0.12967929269E+03  0.80669562273E+02 0.  0.
         -6    2    1    2    0  502 -0.42493582491E+02  0.64899170788E+02  0.54532718997E+03  0.57697356455E+03  0.17175314595E+03 0.  0.
        -24    2    5    5    0    0 -0.95397266166E+02  0.43804461731E+02  0.37071572043E+03  0.39324811233E+03  0.78704912293E+02 0.  0.
          5    1    3    3  501    0  0.54332605637E+02  0.25322827245E+02  0.63886284486E+02  0.87731550541E+02  0.47000000000E+01 0. -1.
        -11    1    4    4    0    0  0.85502232273E+01 -0.29530128052E+02 -0.21361135529E+02  0.37435716784E+02  0.00000000000E+00 0.  1.
         12    1    4    4    0    0 -0.20389246373E+02 -0.60691869981E+02  0.66405217008E+02  0.92243575903E+02  0.00000000000E+00 0. -1.
         -5    1    5    5    0  502  0.52903683675E+02  0.21094709057E+02  0.17461146954E+03  0.18372545222E+03  0.47000000000E+01 0.  1.
         11    1    6    6    0    0 -0.38841666780E+02 -0.12899012092E+02  0.61826282651E+02  0.74145457161E+02  0.00000000000E+00 0. -1.
        -12    1    6    6    0    0 -0.56555599386E+02  0.56703473823E+02  0.30888943778E+03  0.31910265517E+03  0.00000000000E+00 0.  1.
</event>
<event>
12    1  0.8271773E-002  0.1979456E+03  0.7818608E-02  0.1151599E+00
         21   -1    0    0  501  502  0.00000000000E+00  0.00000000000E+00  0.25115715962E+03  0.25115715962E+03  0.00000000000E+00 0.  1.
         21   -1    0    0  502  503 -0.00000000000E+00 -0.00000000000E+00 -0.62063414650E+03  0.62063414650E+03  0.00000000000E+00 0.  1.
         -6    2    1    2    0  503 -0.60905918760E+02 -0.76109138671E+02 -0.56212508435E+03  0.59595894070E+03  0.17227976267E+03 0.  0.
        -24    2    3    3    0    0  0.12560869847E+02 -0.71434131922E+02 -0.42075447452E+03  0.43650059492E+03  0.90762497135E+02 0.  0.
          6    2    1    2  501    0  0.60905918760E+02  0.76109138671E+02  0.19264809746E+03  0.27583236542E+03  0.17166267046E+03 0.  0.
         24    2    5    5    0    0  0.92855408707E+02  0.32672397172E+02  0.18015596039E+03  0.22028361288E+03  0.79869190401E+02 0.  0.
          5    1    5    5  501    0 -0.31949489946E+02  0.43436741500E+02  0.12492137064E+02  0.55548752537E+02  0.47000000000E+01 0. -1.
        -11    1    6    6    0    0  0.14284270421E+02  0.29317775508E+02  0.11055458910E+03  0.11526443300E+03  0.00000000000E+00 0.  1.
         12    1    6    6    0    0  0.78571138285E+02  0.33546216632E+01  0.69601371289E+02  0.10501917988E+03  0.00000000000E+00 0. -1.
         -5    1    3    3    0  503 -0.73466788607E+02 -0.46750067491E+01 -0.14137060983E+03  0.15945834578E+03  0.47000000000E+01 0.  1.
         13    1    4    4    0    0 -0.10153831569E+02 -0.47987636020E+02 -0.77636871771E+02  0.91833530721E+02  0.00000000000E+00 0. -1.
        -14    1    4    4    0    0  0.22714701416E+02 -0.23446495902E+02 -0.34311760275E+03  0.34466706420E+03  0.00000000000E+00 0.  1.
</event>
<event>
12    1  0.8271773E-002  0.1952413E+03  0.7818608E-02  0.1153853E+00
         21   -1    0    0  501  502  0.00000000000E+00  0.00000000000E+00  0.39347671730E+03  0.39347671730E+03  0.00000000000E+00 0. -1.
         21   -1    0    0  502  503 -0.00000000000E+00 -0.00000000000E+00 -0.13223131960E+03  0.13223131960E+03  0.00000000000E+00 0. -1.
         -6    2    1    2    0  503 -0.85684652296E+02  0.34572586395E+02 -0.54069330544E+01  0.19531613251E+03  0.17199428283E+03 0.  0.
        -24    2    3    3    0    0 -0.14282988131E+02  0.75335912804E+02 -0.20779912876E+02  0.11154104711E+03  0.78294935366E+02 0.  0.
          6    2    1    2  501    0  0.85684652296E+02 -0.34572586395E+02  0.26665233076E+03  0.33039190439E+03  0.17180867736E+03 0.  0.
         24    2    5    5    0    0  0.90415321380E+02  0.14804565858E+02  0.24918031294E+03  0.27759186839E+03  0.81069794192E+02 0.  0.
          5    1    5    5  501    0 -0.47306690844E+01 -0.49377152253E+02  0.17472017821E+02  0.52800035997E+02  0.47000000000E+01 0. -1.
        -11    1    6    6    0    0  0.22686037040E+02  0.18176291456E+02  0.12954785438E+02  0.31825466429E+02  0.00000000000E+00 0.  1.
         12    1    6    6    0    0  0.67729284340E+02 -0.33717255984E+01  0.23622552750E+03  0.24576640196E+03  0.00000000000E+00 0. -1.
         -5    1    3    3    0  503 -0.71401664165E+02 -0.40763326409E+02  0.15372979822E+02  0.83775085401E+02  0.47000000000E+01 0.  1.
         13    1    4    4    0    0 -0.28335210091E+02  0.29427631214E+02 -0.42407754344E+02  0.58883675482E+02  0.00000000000E+00 0. -1.
        -14    1    4    4    0    0  0.14052221960E+02  0.45908281590E+02  0.21627841468E+02  0.52657371631E+02  0.00000000000E+00 0.  1.
</event>
<event>
12    1  0.8271773E-002  0.1897832E+03  0.7818608E-02  0.1158968E+00
         21   -1    0    0  503  502  0.00000000000E+00  0.00000000000E+00  0.27952405795E+03  0.27952405795E+03  0.00000000000E+00 0. -1.
         21   -1    0    0  501  503 -0.00000000000E+00 -0.00000000000E+00 -0.14663697567E+03  0.14663697567E+03  0.00000000000E+00 0. -1.
          6    2    1    2  501    0 -0.80464719598E+02  0.20207027578E+02 -0.98863788493E+01  0.18867016647E+03  0.16916204115E+03 0.  0.
         24    2    3    3    0    0 -0.72516252882E+02  0.75367025412E+02 -0.18047712887E+02  0.13215025089E+03  0.78734829761E+02 0.  0.
         -6    2    1    2    0  502  0.80464719598E+02 -0.20207027578E+02  0.14277346113E+03  0.23749086716E+03  0.17068906150E+03 0.  0.
        -24    2    5    5    0    0  0.39562303034E+02 -0.52910847822E+02  0.15382818888E+03  0.18376150326E+03  0.75765722781E+02 0.  0.
          5    1    3    3  501    0 -0.79484667159E+01 -0.55159997834E+02  0.81613340376E+01  0.56519915583E+02  0.47000000000E+01 0. -1.
        -11    1    4    4    0    0 -0.10649182697E+02 -0.76452120267E+01 -0.25165575109E+02  0.28375350740E+02  0.00000000000E+00 0.  1.
         12    1    4    4    0    0 -0.61867070186E+02  0.83012237439E+02  0.71178622222E+01  0.10377490015E+03  0.00000000000E+00 0. -1.
         -5    1    5    5    0  502  0.40902416564E+02  0.32703820245E+02 -0.11054727746E+02  0.53729363899E+02  0.47000000000E+01 0.  1.
         11    1    6    6    0    0  0.29118098654E+01 -0.57591998950E+02  0.12220867208E+03  0.13513059058E+03  0.00000000000E+00 0. -1.
        -12    1    6    6    0    0  0.36650493168E+02  0.46811511272E+01  0.31619516797E+02  0.48630912677E+02  0.00000000000E+00 0.  1.
</event>
<event>
12    1  0.8271773E-002  0.1961581E+03  0.7818608E-02  0.1153155E+00
         21   -1    0    0  501  502  0.00000000000E+00  0.00000000000E+00  0.13003626534E+04  0.13003626534E+04  0.00000000000E+00 0.  1.
         21   -1    0    0  502  503 -0.00000000000E+00 -0.00000000000E+00 -0.33110305456E+02  0.33110305456E+02  0.00000000000E+00 0.  1.
         -6    2    1    2    0  503 -0.23482683938E+02 -0.89982007049E+02  0.41426436081E+03  0.45835899147E+03  0.17271307532E+03 0.  0.
        -24    2    3    3    0    0 -0.52921927345E+02 -0.67393813440E+02  0.40146245181E+03  0.41882578496E+03  0.83067932754E+02 0.  0.
          6    2    1    2  501    0  0.23482683938E+02  0.89982007049E+02  0.85298798718E+03  0.87511396743E+03  0.17201090571E+03 0.  0.
         24    2    5    5    0    0 -0.50264016882E+02  0.26400659843E+02  0.36698377936E+03  0.37942924544E+03  0.77884476955E+02 0.  0.
          5    1    5    5  501    0  0.73746700820E+02  0.63581347206E+02  0.48600420782E+03  0.49568472199E+03  0.47000000000E+01 0. -1.
        -11    1    6    6    0    0  0.15530826085E+02  0.25394028076E+02  0.13826397025E+03  0.14143192245E+03  0.00000000000E+00 0.  1.
         12    1    6    6    0    0 -0.65794842967E+02  0.10066317664E+01  0.22871980912E+03  0.23799732299E+03  0.00000000000E+00 0. -1.
         -5    1    3    3    0  503  0.29439243407E+02 -0.22588193608E+02  0.12801909001E+02  0.39533206510E+02  0.47000000000E+01 0.  1.
         13    1    4    4    0    0 -0.26705355561E+01  0.18909874678E+02  0.77582354634E+02  0.79898290790E+02  0.00000000000E+00 0. -1.
        -14    1    4    4    0    0 -0.50251391789E+02 -0.86303688119E+02  0.32388009718E+03  0.33892749417E+03  0.00000000000E+00 0.  1.
</event>
<event>
12    1  0.8271773E-002  0.1846921E+03  0.7818608E-02  0.1163364E+00
         21   -1    0    0  501  502  0.00000000000E+00  0.00000000000E+00  0.15705105130E+03  0.15705105130E+03  0.00000000000E+00 0. -1.
         21   -1    0    0  502  503 -0.00000000000E+00 -0.00000000000E+00 -0.23368993109E+03  0.23368993109E+03  0.00000000000E+00 0. -1.
         -6    2    1    2    0  503 -0.27537928026E+02 -0.62201950566E+02  0.13803490497E+02  0.18509326748E+03  0.17158543407E+03 0.  0.
        -24    2    3    3    0    0  0.25958088210E+02 -0.70329766332E+02  0.49335517209E+02  0.12018949206E+03  0.79946371820E+02 0.  0.
          6    2    1    2  501    0  0.27537928026E+02  0.62201950566E+02 -0.90442370286E+02  0.20564771490E+03  0.17170829964E+03 0.  0.
         24    2    5    5    0    0 -0.15534457760E+02  0.96984133312E+02 -0.70175474623E+02  0.14650494092E+03  0.83017221013E+02 0.  0.
          5    1    5    5  501    0  0.43072385786E+02 -0.34782182745E+02 -0.20266895663E+02  0.59142773976E+02  0.47000000000E+01 0. -1.
        -13    1    6    6    0    0  0.17065827287E+02 -0.41355374377E+01  0.25633248083E+01  0.17745866137E+02  0.00000000000E+00 0.  1.
         14    1    6    6    0    0 -0.32600285046E+02  0.10111967075E+03 -0.72738799431E+02  0.12875907479E+03  0.00000000000E+00 0. -1.
         -5    1    3    3    0  503 -0.53496016236E+02  0.81278157653E+01 -0.35532026712E+02  0.64903775425E+02  0.47000000000E+01 0.  1.
         13    1    4    4    0    0  0.28370030153E+02 -0.55621631849E+02 -0.61461313827E+01  0.62740732156E+02  0.00000000000E+00 0. -1.
        -14    1    4    4    0    0 -0.24119419432E+01 -0.14708134482E+02  0.55481648592E+02  0.57448759903E+02  0.00000000000E+00 0.  1.
</event>
<event>
12    1  0.8271773E-002  0.1849125E+03  0.7818608E-02  0.1163864E+00
         21   -1    0    0  503  502  0.00000000000E+00  0.00000000000E+00  0.24099258602E+03  0.24099258602E+03  0.00000000000E+00 0. -1.
         21   -1    0    0  501  503 -0.00000000000E+00 -0.00000000000E+00 -0.26163149337E+03  0.26163149337E+03  0.00000000000E+00 0. -1.
          6    2    1    2  501    0  0.47995247299E+02 -0.28896711094E+02 -0.18196766541E+03  0.25722724969E+03  0.17295971511E+03 0.  0.
         24    2    3    3    0    0  0.17445751700E+01 -0.60088651412E+01 -0.18839314507E+03  0.20501274065E+03  0.80616975377E+02 0.  0.
         -6    2    1    2    0  502 -0.47995247299E+02  0.28896711094E+02  0.16132875806E+03  0.24539682970E+03  0.17622165637E+03 0.  0.
        -24    2    5    5    0    0 -0.95365022073E+02  0.17049828253E+02  0.14984458499E+03  0.19501607518E+03  0.78693620117E+02 0.  0.
          5    1    3    3  501    0  0.46250672129E+02 -0.22887845953E+02  0.64254796582E+01  0.52214509033E+02  0.47000000000E+01 0. -1.
        -13    1    4    4    0    0 -0.29598157910E+02  0.23300394817E+02 -0.79623161197E+02  0.88084091352E+02  0.00000000000E+00 0.  1.
         14    1    4    4    0    0  0.31342733080E+02 -0.29309259958E+02 -0.10876998387E+03  0.11692864930E+03  0.00000000000E+00 0. -1.
         -5    1    5    5    0  502  0.47369774774E+02  0.11846882841E+02  0.11484173068E+02  0.50380754523E+02  0.47000000000E+01 0.  1.
         11    1    6    6    0    0 -0.37661254561E+02 -0.44659000819E+01  0.58094139420E+01  0.38367481661E+02  0.00000000000E+00 0. -1.
        -12    1    6    6    0    0 -0.57703767513E+02  0.21515728335E+02  0.14403517105E+03  0.15664859352E+03  0.00000000000E+00 0.  1.
</event>
<event>
12    1  0.8271773E-002  0.1929338E+03  0.7818608E-02  0.1155915E+00
         21   -1    0    0  501  502  0.00000000000E+00  0.00000000000E+00  0.29803214094E+03  0.29803214094E+03  0.00000000000E+00 0.  1.
         21   -1    0    0  502  503 -0.00000000000E+00 -0.00000000000E+00 -0.19483278426E+03  0.19483278426E+03  0.00000000000E+00 0.  1.
         -6    2    1    2    0  503 -0.63742088110E+02 -0.60396920570E+02 -0.96300320142E+02  0.21533373859E+03  0.17141769309E+03 0.  0.
        -24    2    3    3    0    0 -0.10106658516E+03 -0.10089192239E+02 -0.54354707340E+02  0.13979891190E+03  0.79202620669E+02 0.  0.
          6    2    1    2  501    0  0.63742088110E+02  0.60396920570E+02  0.19949967682E+03  0.27753118661E+03  0.17179230681E+03 0.  0.
         24    2    5    5    0    0  0.58508490997E+02  0.71706141977E+02  0.61193484250E+02  0.13858521894E+03  0.83043398765E+02 0.  0.
          5    1    5    5  501    0  0.52335971131E+01 -0.11309221407E+02  0.13830619258E+03  0.13894596767E+03  0.47000000000E+01 0. -1.
        -11    1    6    6    0    0 -0.14155326035E+02 -0.81833075877E+01  0.81399043351E+01  0.18264660435E+02  0.00000000000E+00 0.  1.
         12    1    6    6    0    0  0.72663817032E+02  0.79889449565E+02  0.53053579914E+02  0.12032055851E+03  0.00000000000E+00 0. -1.
         -5    1    3    3    0  503  0.37324497053E+02 -0.50307728330E+02 -0.41945612801E+02  0.75534826691E+02  0.47000000000E+01 0.  1.
         13    1    4    4    0    0 -0.10421152137E+03 -0.29044171894E+02 -0.53183566412E+02  0.12054914700E+03  0.00000000000E+00 0. -1.
        -14    1    4    4    0    0  0.31449362033E+01  0.18954979655E+02 -0.11711409280E+01  0.19249764895E+02  0.00000000000E+00 0.  1.
</event>
<event>
12    1  0.8271773E-002  0.1880181E+03  0.7818608E-02  0.1160590E+00
         21   -1    0    0  503  502  0.00000000000E+00  0.00000000000E+00  0.33418841964E+04  0.33418841964E+04  0.00000000000E+00 0. -1.
         21   -1    0    0  501  503 -0.00000000000E+00 -0.00000000000E+00 -0.25751398685E+02  0.25751398685E+02  0.00000000000E+00 0. -1.
          6    2    1    2  501    0 -0.44603761417E+01 -0.73068638013E+02  0.35955137539E+03  0.40508187752E+03  0.17162521706E+03 0.  0.
         24    2    3    3    0    0 -0.26657800031E+02 -0.11264270230E+03  0.25822578192E+03  0.29396123100E+03  0.79584132811E+02 0.  0.
         -6    2    1    2    0  502  0.44603761417E+01  0.73068638013E+02  0.29565814223E+04  0.29625537176E+04  0.17318170177E+03 0.  0.
        -24    2    5    5    0    0 -0.46265616356E+02  0.49835744461E+02  0.10601780396E+04  0.10653239545E+04  0.79457811540E+02 0.  0.
          5    1    3    3  501    0  0.22197423889E+02  0.39574064288E+02  0.10132559347E+03  0.11112064652E+03  0.47000000000E+01 0. -1.
        -13    1    4    4    0    0  0.73622712535E+01  0.81086848011E+01  0.65765239614E+01  0.12775150670E+02  0.00000000000E+00 0.  1.
         14    1    4    4    0    0 -0.34020071284E+02 -0.12075138710E+03  0.25164925796E+03  0.28118608033E+03  0.00000000000E+00 0. -1.
         -5    1    5    5    0  502  0.50725992498E+02  0.23232893552E+02  0.18964033827E+04  0.18972297630E+04  0.47000000000E+01 0.  1.
         13    1    6    6    0    0 -0.64983396900E+02  0.22225054274E+02  0.81473524081E+03  0.81762479630E+03  0.00000000000E+00 0. -1.
        -14    1    6    6    0    0  0.18717780544E+02  0.27610690187E+02  0.24544279877E+03  0.24769915824E+03  0.00000000000E+00 0.  1.
</event>
<event>
12    1  0.8271773E-002  0.2288897E+03  0.7818608E-02  0.1127564E+00
         21   -1    0    0  501  502  0.00000000000E+00  0.00000000000E+00  0.39338442485E+03  0.39338442485E+03  0.00000000000E+00 0. -1.
         21   -1    0    0  502  503 -0.00000000000E+00 -0.00000000000E+00 -0.23946397704E+03  0.23946397704E+03  0.00000000000E+00 0. -1.
         -6    2    1    2    0  503 -0.51802287617E+02  0.14134114416E+03 -0.13437529443E+03  0.26473846081E+03  0.17137367605E+03 0.  0.
        -24    2    3    3    0    0 -0.80760096204E+02  0.38258904358E+02 -0.60735917306E+02  0.13470250154E+03  0.80436157093E+02 0.  0.
          6    2    1    2  501    0  0.51802287617E+02 -0.14134114416E+03  0.28829574224E+03  0.36810994108E+03  0.17242301962E+03 0.  0.
         24    2    5    5    0    0  0.68583434704E+02 -0.12498432665E+03  0.13070275599E+03  0.20871486057E+03  0.78446881243E+02 0.  0.
          5    1    5    5  501    0 -0.16781147087E+02 -0.16356817516E+02  0.15759298624E+03  0.15939508051E+03  0.47000000000E+01 0. -1.
        -11    1    6    6    0    0  0.50631091245E+02 -0.13345262678E+03  0.11748731022E+03  0.18486854535E+03  0.00000000000E+00 0.  1.
         12    1    6    6    0    0  0.17952343458E+02  0.84683001368E+01  0.13215445770E+02  0.23846315224E+02  0.00000000000E+00 0. -1.
         -5    1    3    3    0  503  0.28957808587E+02  0.10308223980E+03 -0.73639377122E+02  0.13003595927E+03  0.47000000000E+01 0.  1.
         13    1    4    4    0    0 -0.60350456396E+02  0.10550947343E+01 -0.68783155964E+02  0.91511820857E+02  0.00000000000E+00 0. -1.
        -14    1    4    4    0    0 -0.20409639808E+02  0.37203809624E+02  0.80472386583E+01  0.43190680681E+02  0.00000000000E+00 0.  1.
</event>
<event>
12    1  0.8271773E-002  0.1762195E+03  0.7818608E-02  0.1172476E+00
         21   -1    0    0  501  502  0.00000000000E+00  0.00000000000E+00  0.73663292166E+02  0.73663292166E+02  0.00000000000E+00 0. -1.
         21   -1    0    0  502  503 -0.00000000000E+00 -0.00000000000E+00 -0.42303648774E+03  0.42303648774E+03  0.00000000000E+00 0. -1.
         -6    2    1    2    0  503  0.11321934856E+02 -0.56133660699E+01 -0.21210083658E+03  0.27332342167E+03  0.17192798454E+03 0.  0.
        -24    2    3    3    0    0 -0.75426256189E+01 -0.26657178912E+02 -0.22589678310E+03  0.24152512232E+03  0.80855004246E+02 0.  0.
          6    2    1    2  501    0 -0.11321934856E+02  0.56133660699E+01 -0.13727235900E+03  0.22337635824E+03  0.17576575545E+03 0.  0.
         24    2    5    5    0    0  0.16707744830E+02 -0.11738818796E+02 -0.16212664148E+03  0.18182414265E+03  0.79737208174E+02 0.  0.
          5    1    5    5  501    0 -0.28029679686E+02  0.17352184866E+02  0.24854282483E+02  0.41552215593E+02  0.47000000000E+01 0. -1.
        -13    1    6    6    0    0  0.22237042495E+02 -0.85780547968E+01 -0.47303926349E+01  0.24299088409E+02  0.00000000000E+00 0.  1.
         14    1    6    6    0    0 -0.55292976654E+01 -0.31607639995E+01 -0.15739624885E+03  0.15752505424E+03  0.00000000000E+00 0. -1.
         -5    1    3    3    0  503  0.18864560475E+02  0.21043812843E+02  0.13795946518E+02  0.31798299344E+02  0.47000000000E+01 0.  1.
         13    1    4    4    0    0 -0.20464947952E+02 -0.71011144347E+01 -0.91509374870E+01  0.23515517808E+02  0.00000000000E+00 0. -1.
        -14    1    4    4    0    0  0.12922322333E+02 -0.19556064478E+02 -0.21674584561E+03  0.21800960452E+03  0.00000000000E+00 0.  1.
</event>
<event>
12    1  0.8271773E-002  0.1958052E+03  0.7818608E-02  0.1153466E+00
         21   -1    0    0  503  502  0.00000000000E+00  0.00000000000E+00  0.47000811957E+02  0.47000811957E+02  0.00000000000E+00 0.  1.
         21   -1    0    0  501  503 -0.00000000000E+00 -0.00000000000E+00 -0.89357367414E+03  0.89357367414E+03  0.00000000000E+00 0.  1.
          6    2    1    2  501    0  0.45343792189E+02  0.81417643659E+02 -0.56507131617E+03  0.59803450445E+03  0.17220564438E+03 0.  0.
         24    2    3    3    0    0  0.89558254988E+02  0.35586339389E+02 -0.33442875317E+03  0.35871566055E+03  0.86874999815E+02 0.  0.
         -6    2    1    2    0  502 -0.45343792189E+02 -0.81417643659E+02 -0.28150154601E+03  0.34253998165E+03  0.17148068823E+03 0.  0.
        -24    2    5    5    0    0 -0.89697414903E+01 -0.24761245729E+02 -0.40823105507E+02  0.92577543048E+02  0.78806725481E+02 0.  0.
          5    1    3    3  501    0 -0.44214462799E+02  0.45831304270E+02 -0.23064256301E+03  0.23931884389E+03  0.47000000000E+01 0. -1.
        -13    1    4    4    0    0  0.92376499125E+01  0.20128731825E+02 -0.20096447578E+03  0.20218115774E+03  0.00000000000E+00 0.  1.
         14    1    4    4    0    0  0.80320605076E+02  0.15457607564E+02 -0.13346427739E+03  0.15653450281E+03  0.00000000000E+00 0. -1.
         -5    1    5    5    0  502 -0.36374050698E+02 -0.56656397930E+02 -0.24067844050E+03  0.24996243861E+03  0.47000000000E+01 0.  1.
         13    1    6    6    0    0  0.13367901069E+02  0.25057576395E+02 -0.11906909741E+02  0.30795412213E+02  0.00000000000E+00 0. -1.
        -14    1    6    6    0    0 -0.22337642559E+02 -0.49818822124E+02 -0.28916195766E+02  0.61782130835E+02  0.00000000000E+00 0.  1.
</event>
<event>
12    1  0.8271773E-002  0.2071175E+03  0.7818608E-02  0.1144507E+00
         21   -1    0    0  501  502  0.00000000000E+00  0.00000000000E+00  0.47592078745E+03  0.47592078745E+03  0.00000000000E+00 0.  1.
         21   -1    0    0  502  503 -0.00000000000E+00 -0.00000000000E+00 -0.14063997833E+03  0.14063997833E+03  0.00000000000E+00 0. -1.
         -6    2    1    2    0  503 -0.80273924721E+02  0.82085467297E+02 -0.20372826344E+02  0.20499403942E+03  0.16859886480E+03 0.  0.
        -24    2    3    3    0    0 -0.78304393384E+02 -0.10226185856E+02 -0.73795308175E+01  0.11163325487E+03  0.78558088179E+02 0.  0.
          6    2    1    2  501    0  0.80273924721E+02 -0.82085467297E+02  0.35565363546E+03  0.41156672637E+03  0.17238252495E+03 0.  0.
         24    2    5    5    0    0  0.62205460521E+02 -0.11313722453E+02  0.89675292406E+02  0.13570140009E+03  0.79847932253E+02 0.  0.
          5    1    5    5  501    0  0.18068464201E+02 -0.70771744844E+02  0.26597834306E+03  0.27586532628E+03  0.47000000000E+01 0. -1.
        -11    1    6    6    0    0  0.19008913587E+02 -0.32508686451E+02  0.77352447454E+02  0.86032288228E+02  0.00000000000E+00 0.  1.
         12    1    6    6    0    0  0.43196546934E+02  0.21194963998E+02  0.12322844952E+02  0.49669111867E+02  0.00000000000E+00 0. -1.
         -5    1    3    3    0  503 -0.19695313378E+01  0.92311653153E+02 -0.12993295527E+02  0.93360784541E+02  0.47000000000E+01 0.  1.
         13    1    4    4    0    0  0.11328221461E+02  0.10293737079E+02 -0.12173069162E+02  0.19556923003E+02  0.00000000000E+00 0. -1.
        -14    1    4    4    0    0 -0.89632614844E+02 -0.20519922935E+02  0.47935383442E+01  0.92076331872E+02  0.00000000000E+00 0.  1.
</event>
<event>
12    1  0.8271773E-002  0.1748954E+03  0.7818608E-02  0.1173244E+00
         21   -1    0    0  503  502  0.00000000000E+00  0.00000000000E+00  0.44947893920E+03  0.44947893920E+03  0.00000000000E+00 0. -1.
         21   -1    0    0  501  503 -0.00000000000E+00 -0.00000000000E+00 -0.73087213816E+02  0.73087213816E+02  0.00000000000E+00 0. -1.
          6    2    1    2  501    0 -0.17842951059E+02 -0.16601550531E+02  0.26171058974E+03  0.31477107397E+03  0.17318895415E+03 0.  0.
         24    2    3    3    0    0 -0.50104776555E+01 -0.48059543670E-01  0.27706393124E+03  0.28837968271E+03  0.79833027059E+02 0.  0.
         -6    2    1    2    0  502  0.17842951059E+02  0.16601550531E+02  0.11468113564E+03  0.20779507905E+03  0.17156062958E+03 0.  0.
        -24    2    5    5    0    0  0.38323237944E+02  0.66223658437E+02  0.44012394033E+02  0.11892462961E+03  0.79697761544E+02 0.  0.
          5    1    3    3  501    0 -0.12832473404E+02 -0.16553490988E+02 -0.15353341494E+02  0.26391391259E+02  0.47000000000E+01 0. -1.
        -11    1    4    4    0    0 -0.29346116988E+02 -0.27348201040E+02  0.10343869648E+03  0.11094450239E+03  0.00000000000E+00 0.  1.
         12    1    4    4    0    0  0.24335639332E+02  0.27300141496E+02  0.17362523476E+03  0.17743518032E+03  0.00000000000E+00 0. -1.
         -5    1    5    5    0  502 -0.20480286885E+02 -0.49622107906E+02  0.70668741607E+02  0.88870449443E+02  0.47000000000E+01 0.  1.
         13    1    6    6    0    0  0.54874428644E+02  0.15351648901E+02  0.23103028952E+02  0.61486795247E+02  0.00000000000E+00 0. -1.
        -14    1    6    6    0    0 -0.16551190700E+02  0.50872009536E+02  0.20909365081E+02  0.57437834359E+02  0.00000000000E+00 0.  1.
</event>
<event>
12    1  0.8271773E-002  0.1773543E+03  0.7818608E-02  0.1171575E+00
         21   -1    0    0  503  502  0.00000000000E+00  0.00000000000E+00  0.84125292038E+02  0.84125292038E+02  0.00000000000E+00 0.  1.
         21   -1    0    0  501  503 -0.00000000000E+00 -0.00000000000E+00 -0.65299384586E+03  0.65299384586E+03  0.00000000000E+00 0.  1.
          6    2    1    2  501    0  0.19296074546E+01 -0.22835881066E+02 -0.52747240972E+03  0.55499777669E+03  0.17108532451E+03 0.  0.
         24    2    3    3    0    0 -0.14204701169E+02  0.23470029510E+02 -0.47828341512E+03  0.48538311977E+03  0.78032890186E+02 0.  0.
         -6    2    1    2    0  502 -0.19296074546E+01  0.22835881066E+02 -0.41396144096E+02  0.18212136120E+03  0.17586741771E+03 0.  0.
        -24    2    5    5    0    0 -0.42473228475E+02 -0.43550910348E+02 -0.27733804170E+02  0.10300283738E+03  0.78356644169E+02 0.  0.
          5    1    3    3  501    0  0.16134308624E+02 -0.46305910576E+02 -0.49188994599E+02  0.69614656924E+02  0.47000000000E+01 0. -1.
        -11    1    4    4    0    0 -0.45710179984E+02  0.20353342962E+02 -0.25459483154E+03  0.25946523345E+03  0.00000000000E+00 0.  1.
         12    1    4    4    0    0  0.31505478815E+02  0.31166865474E+01 -0.22368858359E+03  0.22591788632E+03  0.00000000000E+00 0. -1.
         -5    1    5    5    0  502  0.40543621020E+02  0.66386791414E+02 -0.13662339926E+02  0.79118523823E+02  0.47000000000E+01 0.  1.
         13    1    6    6    0    0  0.16623151592E+02 -0.60881220018E+01 -0.27888044159E+02  0.33032369055E+02  0.00000000000E+00 0. -1.
        -14    1    6    6    0    0 -0.59096380067E+02 -0.37462788346E+02  0.15423998939E+00  0.69970468325E+02  0.00000000000E+00 0.  1.
</event>
<event>
12    1  0.8271773E-002  0.3063198E+03  0.7818608E-02  0.1082610E+00
         21   -1    0    0  503  502  0.00000000000E+00  0.00000000000E+00  0.82067782086E+02  0.82067782086E+02  0.00000000000E+00 0. -1.
         21   -1    0    0  501  503 -0.00000000000E+00 -0.00000000000E+00 -0.20707973829E+04  0.20707973829E+04  0.00000000000E+00 0. -1.
          6    2    1    2  501    0  0.17539728515E+03  0.17548557229E+03 -0.17169203517E+04  0.17433384741E+04  0.17278352850E+03 0.  0.
         24    2    3    3    0    0  0.20057814160E+03  0.13596864186E+03 -0.14718017457E+04  0.14937370232E+04  0.79566659860E+02 0.  0.
         -6    2    1    2    0  502 -0.17539728515E+03 -0.17548557229E+03 -0.27180924912E+03  0.40952669082E+03  0.17964534190E+03 0.  0.
        -24    2    5    5    0    0 -0.13624085269E+03 -0.13738124731E+03 -0.10428561297E+03  0.23325580708E+03  0.78087165456E+02 0.  0.
          5    1    3    3  501    0 -0.25180856446E+02  0.39516930428E+02 -0.24511860591E+03  0.24960145089E+03  0.47000000000E+01 0. -1.
        -13    1    4    4    0    0  0.12065978897E+03  0.12499000042E+03 -0.95401709334E+03  0.96970608912E+03  0.00000000000E+00 0.  1.
         14    1    4    4    0    0  0.79918352631E+02  0.10978641445E+02 -0.51778465240E+03  0.52403093412E+03  0.00000000000E+00 0. -1.
         -5    1    5    5    0  502 -0.39156432458E+02 -0.38104324977E+02 -0.16752363615E+03  0.17627088374E+03  0.47000000000E+01 0.  1.
         11    1    6    6    0    0 -0.45131739909E+02 -0.69563667753E+02 -0.61426426107E+01  0.83148721438E+02  0.00000000000E+00 0. -1.
        -12    1    6    6    0    0 -0.91109112783E+02 -0.67817579560E+02 -0.98142970358E+02  0.15010708564E+03  0.00000000000E+00 0.  1.
</event>
<event>
12    1  0.8271773E-002  0.1868587E+03  0.7818608E-02  0.1161353E+00
         21   -1    0    0  501  502  0.00000000000E+00  0.00000000000E+00  0.14886884047E+04  0.14886884047E+04  0.00000000000E+00 0.  1.
         21   -1    0    0  502  503 -0.00000000000E+00 -0.00000000000E+00 -0.27092190538E+02  0.27092190538E+02  0.00000000000E+00 0.  1.
         -6    2    1    2    0  503  0.55148914535E+02 -0.50262522448E+02  0.10092858546E+04  0.10264375757E+04  0.17131385415E+03 0.  0.
        -24    2    3    3    0    0  0.93049116091E+02 -0.64598931357E+00  0.73244032280E+03  0.74260000930E+03  0.79544905771E+02 0.  0.
          6    2    1    2  501    0 -0.55148914535E+02  0.50262522448E+02  0.45231035955E+03  0.48934301950E+03  0.17118471147E+03 0.  0.
         24    2    5    5    0    0 -0.81545178905E+02  0.52418528680E+02  0.20087910364E+03  0.23647709142E+03  0.78560054327E+02 0.  0.
          5    1    5    5  501    0  0.26396264371E+02 -0.21560062323E+01  0.25143125591E+03  0.25286592808E+03  0.47000000000E+01 0. -1.
        -13    1    6    6    0    0 -0.57336210523E+02  0.95336368199E+01  0.16667249796E+03  0.17651643789E+03  0.00000000000E+00 0.  1.
         14    1    6    6    0    0 -0.24208968382E+02  0.42884891860E+02  0.34206605680E+02  0.59960653534E+02  0.00000000000E+00 0. -1.
         -5    1    3    3    0  503 -0.37900201556E+02 -0.49616533134E+02  0.27684553176E+03  0.28383756639E+03  0.47000000000E+01 0.  1.
         13    1    4    4    0    0  0.60226772624E+01  0.18704659340E+02  0.41334260437E+02  0.45767433927E+02  0.00000000000E+00 0. -1.
        -14    1    4    4    0    0  0.87026438828E+02 -0.19350648654E+02  0.69110606237E+03  0.69683257537E+03  0.00000000000E+00 0.  1.
</event>
<event>
12    1  0.8271773E-002  0.1827749E+03  0.7818608E-02  0.1168848E+00
         21   -1    0    0  501  502  0.00000000000E+00  0.00000000000E+00  0.28710909539E+03  0.28710909539E+03  0.00000000000E+00 0. -1.
         21   -1    0    0  502  503 -0.00000000000E+00 -0.00000000000E+00 -0.13153687432E+03  0.13153687432E+03  0.00000000000E+00 0. -1.
         -6    2    1    2    0  503  0.42299816743E+01 -0.56556929089E+02  0.17072705521E+03  0.25010875904E+03  0.17375294241E+03 0.  0.
        -24    2    3    3    0    0  0.46273420458E+02 -0.16881376915E+02  0.16766749363E+03  0.19202906291E+03  0.79602526681E+02 0.  0.
          6    2    1    2  501    0 -0.42299816743E+01  0.56556929089E+02 -0.15154834125E+02  0.16853721067E+03  0.15798273137E+03 0.  0.
         24    2    5    5    0    0 -0.38493216527E+02  0.84016979288E+02 -0.19522587918E+02  0.12416164428E+03  0.80587852335E+02 0.  0.
          5    1    5    5  501    0  0.34263234853E+02 -0.27460050198E+02  0.43677537932E+01  0.44375566392E+02  0.47000000000E+01 0. -1.
        -13    1    6    6    0    0  0.13779154297E+02 -0.84513381385E+01 -0.13689291759E-01  0.16164479480E+02  0.00000000000E+00 0.  1.
         14    1    6    6    0    0 -0.52272370824E+02  0.92468317426E+02 -0.19508898627E+02  0.10799716480E+03  0.00000000000E+00 0. -1.
         -5    1    3    3    0  503 -0.42043438784E+02 -0.39675552174E+02  0.30595615719E+01  0.58079696126E+02  0.47000000000E+01 0.  1.
         11    1    4    4    0    0  0.51904722406E+02 -0.50673419912E+01  0.45641172517E+02  0.69302920513E+02  0.00000000000E+00 0. -1.
        -12    1    4    4    0    0 -0.56313019483E+01 -0.11814034924E+02  0.12202632112E+03  0.12272614240E+03  0.00000000000E+00 0.  1.
</event>
<event>
12    1  0.8271773E-002  0.2505737E+03  0.7818608E-02  0.1113414E+00
         21   -1    0    0  503  502  0.00000000000E+00  0.00000000000E+00  0.13464450893E+04  0.13464450893E+04  0.00000000000E+00 0.  1.
         21   -1    0    0  501  503 -0.00000000000E+00 -0.00000000000E+00 -0.40446906576E+03  0.40446906576E+03  0.00000000000E+00 0.  1.
          6    2    1    2  501    0 -0.10927318002E+03 -0.14590933617E+03 -0.35276992000E+03  0.43270518090E+03  0.17192147879E+03 0.  0.
         24    2    3    3    0    0  0.43142439030E+01 -0.54158712580E+02 -0.92013799267E+02  0.13381368838E+03  0.80546788224E+02 0.  0.
         -6    2    1    2    0  502  0.10927318002E+03  0.14590933617E+03  0.12947459435E+04  0.13182089741E+04  0.16756395496E+03 0.  0.
        -24    2    5    5    0    0  0.13237788436E+02  0.10333446480E+03  0.52064432640E+03  0.53699785048E+03  0.80267840077E+02 0.  0.
          5    1    3    3  501    0 -0.11358742392E+03 -0.91750623593E+02 -0.26075612073E+03  0.29889149252E+03  0.47000000000E+01 0. -1.
        -13    1    4    4    0    0 -0.15902760343E+02  0.16445633581E+02 -0.14779432935E+02  0.27235790575E+02  0.00000000000E+00 0.  1.
         14    1    4    4    0    0  0.20217004246E+02 -0.70604346160E+02 -0.77234366332E+02  0.10657789780E+03  0.00000000000E+00 0. -1.
         -5    1    5    5    0  502  0.96035391581E+02  0.42574871371E+02  0.77410161709E+03  0.78121112363E+03  0.47000000000E+01 0.  1.
         13    1    6    6    0    0 -0.12540138044E+02  0.68837575467E+02  0.44044100265E+03  0.44596428520E+03  0.00000000000E+00 0. -1.
        -14    1    6    6    0    0  0.25777926481E+02  0.34496889334E+02  0.80203323752E+02  0.91033565283E+02  0.00000000000E+00 0.  1.
</event>
<event>
12    1  0.8271773E-002  0.1794097E+03  0.7818608E-02  0.1168431E+00
         21   -1    0    0  503  502  0.00000000000E+00  0.00000000000E+00  0.19351343327E+03  0.19351343327E+03  0.00000000000E+00 0.  1.
         21   -1    0    0  501  503 -0.00000000000E+00 -0.00000000000E+00 -0.22330587315E+03  0.22330587315E+03  0.00000000000E+00 0.  1.
          6    2    1    2  501    0 -0.44653943618E+02  0.85360599492E+01  0.90575007058E+02  0.20077264253E+03  0.17331757870E+03 0.  0.
         24    2    3    3    0    0 -0.83136146160E+02  0.45599786457E+02  0.75432375192E+02  0.14504124173E+03  0.79724270162E+02 0.  0.
         -6    2    1    2    0  502  0.44653943618E+02 -0.85360599492E+01 -0.12036744693E+03  0.21604666389E+03  0.17355402530E+03 0.  0.
        -24    2    5    5    0    0 -0.10344111161E+02  0.38716018738E+02 -0.16398540166E+02  0.89203577581E+02  0.77989969811E+02 0.  0.
          5    1    3    3  501    0  0.38482202542E+02 -0.37063726508E+02  0.15142631866E+02  0.55731400799E+02  0.47000000000E+01 0. -1.
        -13    1    4    4    0    0 -0.14883238079E+02 -0.15383152842E+01 -0.15784360369E+02  0.21749097037E+02  0.00000000000E+00 0.  1.
         14    1    4    4    0    0 -0.68252908081E+02  0.47138101741E+02  0.91216735561E+02  0.12329214470E+03  0.00000000000E+00 0. -1.
         -5    1    5    5    0  502  0.54998054778E+02 -0.47252078687E+02 -0.10396890677E+03  0.12684308631E+03  0.47000000000E+01 0.  1.
         11    1    6    6    0    0 -0.13329334229E+02 -0.13133291193E+02  0.18751997779E+02  0.26491355368E+02  0.00000000000E+00 0. -1.
        -12    1    6    6    0    0  0.29852230679E+01  0.51849309930E+02 -0.35150537945E+02  0.62712222213E+02  0.00000000000E+00 0.  1.
</event>
<event>
12    1  0.8271773E-002  0.1789211E+03  0.7818608E-02  0.1169036E+00
         21   -1    0    0  503  502  0.00000000000E+00  0.00000000000E+00  0.45504726065E+03  0.45504726065E+03  0.00000000000E+00 0.  1.
         21   -1    0    0  501  503 -0.00000000000E+00 -0.00000000000E+00 -0.70238533736E+02  0.70238533736E+02  0.00000000000E+00 0.  1.
          6    2    1    2  501    0  0.32209944947E+02 -0.20608323629E+02  0.17850760740E+03  0.25220540963E+03  0.17401269835E+03 0.  0.
         24    2    3    3    0    0 -0.47823181003E+02  0.41503826221E+01  0.10719314992E+03  0.14208667085E+03  0.79962293145E+02 0.  0.
         -6    2    1    2    0  502 -0.32209944947E+02  0.20608323629E+02  0.20630111951E+03  0.27308038476E+03  0.17478718796E+03 0.  0.
        -24    2    5    5    0    0 -0.72546493606E+02  0.24601911699E+02  0.69648528833E+02  0.13046549619E+03  0.79385643119E+02 0.  0.
          5    1    3    3  501    0  0.80033125950E+02 -0.24758706251E+02  0.71314457479E+02  0.11011873878E+03  0.47000000000E+01 0. -1.
        -11    1    4    4    0    0 -0.34955843192E+00 -0.11063887606E+02 -0.98826133958E+01  0.14839064916E+02  0.00000000000E+00 0.  1.
         12    1    4    4    0    0 -0.47473622571E+02  0.15214270228E+02  0.11707576332E+03  0.12724760593E+03  0.00000000000E+00 0. -1.
         -5    1    5    5    0  502  0.40336548659E+02 -0.39935880703E+01  0.13665259068E+03  0.14261488857E+03  0.47000000000E+01 0.  1.
         13    1    6    6    0    0 -0.29146080380E+02 -0.14093683919E+02 -0.81060980367E+01  0.33374162960E+02  0.00000000000E+00 0. -1.
        -14    1    6    6    0    0 -0.43400413226E+02  0.38695595618E+02  0.77754626870E+02  0.97091333228E+02  0.00000000000E+00 0.  1.
</event>
<event>
12    1  0.8271773E-002  0.2704565E+03  0.7818608E-02  0.1103353E+00
         21   -1    0    0  501  502  0.00000000000E+00  0.00000000000E+00  0.28817203784E+03  0.28817203784E+03  0.00000000000E+00 0.  1.
         21   -1    0    0  502  503 -0.00000000000E+00 -0.00000000000E+00 -0.24360893377E+03  0.24360893377E+03  0.00000000000E+00 0. -1.
         -6    2    1    2    0  503 -0.66588468824E+02 -0.19466272231E+03 -0.14180316686E+02  0.25501837499E+03  0.15001896736E+03 0.  0.
        -24    2    3    3    0    0 -0.58116863624E+02 -0.17307739994E+03  0.33469217557E+02  0.20181816494E+03  0.79227690667E+02 0.  0.
          6    2    1    2  501    0  0.66588468824E+02  0.19466272231E+03  0.58743420757E+02  0.27676259661E+03  0.17555382584E+03 0.  0.
         24    2    5    5    0    0  0.70310485946E+02  0.14702353917E+03 -0.22139216440E+02  0.18270178553E+03  0.79563258034E+02 0.  0.
          5    1    5    5  501    0 -0.37220171219E+01  0.47639183138E+02  0.80882637197E+02  0.94060811082E+02  0.47000000000E+01 0. -1.
        -11    1    6    6    0    0  0.42768451349E+02  0.13451227792E+02 -0.23958182274E+01  0.44897838532E+02  0.00000000000E+00 0.  1.
         12    1    6    6    0    0  0.27542034598E+02  0.13357231138E+03 -0.19743398213E+02  0.13780394700E+03  0.00000000000E+00 0. -1.
         -5    1    3    3    0  503 -0.84716052003E+01 -0.21585322369E+02 -0.47649534243E+02  0.53200210056E+02  0.47000000000E+01 0.  1.
         13    1    4    4    0    0 -0.13750695838E+02 -0.24899661279E+02 -0.23588757714E+02  0.36952730052E+02  0.00000000000E+00 0. -1.
        -14    1    4    4    0    0 -0.44366167786E+02 -0.14817773866E+03  0.57057975271E+02  0.16486543489E+03  0.00000000000E+00 0.  1.
</event>
<event>
12    1  0.8271773E-002  0.2021526E+03  0.7818608E-02  0.1151733E+00
         21   -1    0    0  501  502  0.00000000000E+00  0.00000000000E+00  0.27768313834E+03  0.27768313834E+03  0.00000000000E+00 0.  1.
         21   -1    0    0  502  503 -0.00000000000E+00 -0.00000000000E+00 -0.17217939823E+03  0.17217939823E+03  0.00000000000E+00 0.  1.
         -6    2    1    2    0  503 -0.16524747937E+02  0.83467628773E+02 -0.53866708056E+02  0.19244338379E+03  0.16399061369E+03 0.  0.
        -24    2    3    3    0    0 -0.35880475735E+02 -0.62340227615E+01 -0.43431052966E+01  0.88060877029E+02  0.80059877097E+02 0.  0.
          6    2    1    2  501    0  0.16524747937E+02 -0.83467628773E+02  0.15937044817E+03  0.25741915277E+03  0.18337330263E+03 0.  0.
         24    2    5    5    0    0  0.77182738374E+02 -0.68806038084E+02  0.69200717594E+02  0.14766021529E+03  0.79519518896E+02 0.  0.
          5    1    5    5  501    0 -0.60657990437E+02 -0.14661590689E+02  0.90169730572E+02  0.10975893748E+03  0.47000000000E+01 0. -1.
        -11    1    6    6    0    0  0.37390145600E+01 -0.54999118253E+02  0.36325473201E+02  0.66018355340E+02  0.00000000000E+00 0.  1.
         12    1    6    6    0    0  0.73443723814E+02 -0.13806919830E+02  0.32875244393E+02  0.81641859954E+02  0.00000000000E+00 0. -1.
         -5    1    3    3    0  503  0.19355727798E+02  0.89701651534E+02 -0.49523602760E+02  0.10438250676E+03  0.47000000000E+01 0.  1.
         13    1    4    4    0    0 -0.48292001434E+02  0.20503023976E+02 -0.18143636429E+02  0.55512907846E+02  0.00000000000E+00 0. -1.
        -14    1    4    4    0    0  0.12411525698E+02 -0.26737046738E+02  0.13800531133E+02  0.32547969183E+02  0.00000000000E+00 0.  1.
</event>
<event>
12    1  0.8271773E-002  0.1737478E+03  0.7818608E-02  0.1174081E+00
         21   -1    0    0  503  502  0.00000000000E+00  0.00000000000E+00  0.67471517573E+02  0.67471517573E+02  0.00000000000E+00 0. -1.
         21   -1    0    0  501  503 -0.00000000000E+00 -0.00000000000E+00 -0.46420529689E+03  0.46420529689E+03  0.00000000000E+00 0. -1.
          6    2    1    2  501    0 -0.30042156532E+01 -0.23523131630E+02 -0.25002015178E+03  0.30427151375E+03  0.17178100812E+03 0.  0.
         24    2    3    3    0    0 -0.20317397214E+02  0.47254406516E+02 -0.92437428757E+02  0.13059477162E+03  0.76580288423E+02 0.  0.
         -6    2    1    2    0  502  0.30042156532E+01  0.23523131630E+02 -0.14671362753E+03  0.22740530071E+03  0.17212181515E+03 0.  0.
        -24    2    5    5    0    0  0.17923417564E+02 -0.37239710514E+02 -0.25918340144E+02  0.91286613428E+02  0.77158541322E+02 0.  0.
          5    1    3    3  501    0  0.17313181561E+02 -0.70777538146E+02 -0.15758272302E+03  0.17367674213E+03  0.47000000000E+01 0. -1.
        -13    1    4    4    0    0 -0.12181436779E+02  0.21503082218E+02  0.84786001761E+01  0.26127698097E+02  0.00000000000E+00 0.  1.
         14    1    4    4    0    0 -0.81359604358E+01  0.25751324298E+02 -0.10091602893E+03  0.10446707352E+03  0.00000000000E+00 0. -1.
         -5    1    5    5    0  502 -0.14919201910E+02  0.60762842144E+02 -0.12079528739E+03  0.13611868728E+03  0.47000000000E+01 0.  1.
         13    1    6    6    0    0 -0.40450316375E+01  0.61156714178E+01  0.21905406394E+02  0.23100011843E+02  0.00000000000E+00 0. -1.
        -14    1    6    6    0    0  0.21968449201E+02 -0.43355381932E+02 -0.47823746538E+02  0.68186601585E+02  0.00000000000E+00 0.  1.
</event>
<event>
12    1  0.8271773E-002  0.2074831E+03  0.7818608E-02  0.1143697E+00
         21   -1    0    0  501  502  0.00000000000E+00  0.00000000000E+00  0.85332112076E+02  0.85332112076E+02  0.00000000000E+00 0.  1.
         21   -1    0    0  502  503 -0.00000000000E+00 -0.00000000000E+00 -0.50538335043E+03  0.50538335043E+03  0.00000000000E+00 0.  1.
         -6    2    1    2    0  503  0.25056313695E+02 -0.11170175439E+03 -0.22995955592E+03  0.30931876809E+03  0.17231251302E+03 0.  0.
        -24    2    3    3    0    0 -0.40094142110E+02 -0.97334129634E+02 -0.19214270924E+03  0.23248638934E+03  0.77779351292E+02 0.  0.
          6    2    1    2  501    0 -0.25056313695E+02  0.11170175439E+03 -0.19009168244E+03  0.28139669442E+03  0.17304378378E+03 0.  0.
         24    2    5    5    0    0 -0.40430551205E+02 -0.14850493526E+01 -0.98526811747E+02  0.13492541646E+03  0.82828138523E+02 0.  0.
          5    1    5    5  501    0  0.15374237510E+02  0.11318680375E+03 -0.91564870692E+02  0.14647127796E+03  0.47000000000E+01 0. -1.
        -13    1    6    6    0    0 -0.54184880310E+02  0.13807585278E+02 -0.99715117235E+02  0.11432303036E+03  0.00000000000E+00 0.  1.
         14    1    6    6    0    0  0.13754329105E+02 -0.15292634631E+02  0.11883054872E+01  0.20602386100E+02  0.00000000000E+00 0. -1.
         -5    1    3    3    0  503  0.65150455805E+02 -0.14367624760E+02 -0.37816846672E+02  0.76832378754E+02  0.47000000000E+01 0.  1.
         11    1    4    4    0    0  0.70436210121E+01  0.72555799695E+01 -0.43837139476E+02  0.44988341102E+02  0.00000000000E+00 0. -1.
        -12    1    4    4    0    0 -0.47137763122E+02 -0.10458970960E+03 -0.14830556977E+03  0.18749804823E+03  0.00000000000E+00 0.  1.
</event>
<event>
12    1  0.8271773E-002  0.2713328E+03  0.7818608E-02  0.1100626E+00
         21   -1    0    0  501  502  0.00000000000E+00  0.00000000000E+00  0.92354152521E+02  0.92354152521E+02  0.00000000000E+00 0. -1.
         21   -1    0    0  502  503 -0.00000000000E+00 -0.00000000000E+00 -0.12087331062E+04  0.12087331062E+04  0.00000000000E+00 0.  1.
         -6    2    1    2    0  503 -0.20770534870E+02 -0.20826390907E+03 -0.93830168082E+03  0.97653682135E+03  0.17149008218E+03 0.  0.
        -24    2    3    3    0    0 -0.19169309282E+01 -0.18524895448E+03 -0.91841530266E+03  0.94044382268E+03  0.81406791558E+02 0.  0.
          6    2    1    2  501    0  0.20770534870E+02  0.20826390907E+03 -0.17807727282E+03  0.32455043733E+03  0.17267368166E+03 0.  0.
         24    2    5    5    0    0 -0.12413129530E+02  0.12663241905E+03 -0.18489855943E+03  0.23604351276E+03  0.73069879553E+02 0.  0.
          5    1    5    5  501    0  0.33183664400E+02  0.81631490015E+02  0.68212866127E+01  0.88506924566E+02  0.47000000000E+01 0. -1.
        -13    1    6    6    0    0  0.28410005654E+02  0.27741415904E+02 -0.47804778637E+02  0.62145083781E+02  0.00000000000E+00 0.  1.
         14    1    6    6    0    0 -0.40823135184E+02  0.98891003148E+02 -0.13709378079E+03  0.17389842898E+03  0.00000000000E+00 0. -1.
         -5    1    3    3    0  503 -0.18853603942E+02 -0.23014954589E+02 -0.19886378164E+02  0.36092998668E+02  0.47000000000E+01 0.  1.
         13    1    4    4    0    0  0.11035153843E+02 -0.74355262879E+02 -0.20504178941E+03  0.21838638956E+03  0.00000000000E+00 0. -1.
        -14    1    4    4    0    0 -0.12952084771E+02 -0.11089369160E+03 -0.71337351324E+03  0.72205743313E+03  0.00000000000E+00 0.  1.
</event>
<event>
12    1  0.8271773E-002  0.1813179E+03  0.7818608E-02  0.1167450E+00
         21   -1    0    0  503  502  0.00000000000E+00  0.00000000000E+00  0.24645830783E+03  0.24645830783E+03  0.00000000000E+00 0.  1.
         21   -1    0    0  501  503 -0.00000000000E+00 -0.00000000000E+00 -0.76489716309E+03  0.76489716309E+03  0.00000000000E+00 0.  1.
          6    2    1    2  501    0  0.35196912876E+02 -0.44927773037E+02 -0.72015958455E+03  0.74263450658E+03  0.17210129482E+03 0.  0.
         24    2    3    3    0    0 -0.38425713381E+02 -0.13079475009E+01 -0.25936405230E+03  0.27393674382E+03  0.79330837718E+02 0.  0.
         -6    2    1    2    0  502 -0.35196912876E+02  0.44927773037E+02  0.20172072929E+03  0.26872096434E+03  0.16811417723E+03 0.  0.
        -24    2    5    5    0    0  0.69354412172E+01 -0.31752983328E+01  0.62977718510E+02  0.11587871306E+03  0.96971646613E+02 0.  0.
          5    1    3    3  501    0  0.73622626257E+02 -0.43619825536E+02 -0.46079553224E+03  0.46869776276E+03  0.47000000000E+01 0. -1.
        -11    1    4    4    0    0 -0.27044767918E+02 -0.83396898317E+00 -0.26102661260E+03  0.26242524166E+03  0.00000000000E+00 0.  1.
         12    1    4    4    0    0 -0.11380945463E+02 -0.47397851771E+00  0.16625602949E+01  0.11511502161E+02  0.00000000000E+00 0. -1.
         -5    1    5    5    0  502 -0.42132354093E+02  0.48103071370E+02  0.13874301078E+03  0.15284225128E+03  0.47000000000E+01 0.  1.
         13    1    6    6    0    0  0.46246768004E+02  0.21027476020E+02  0.28413662904E+02  0.58208715312E+02  0.00000000000E+00 0. -1.
        -14    1    6    6    0    0 -0.39311326787E+02 -0.24202774353E+02  0.34564055606E+02  0.57669997747E+02  0.00000000000E+00 0.  1.
</event>
<event>
12    1  0.8271773E-002  0.1998531E+03  0.7818608E-02  0.1150098E+00
         21   -1    0    0  503  502  0.00000000000E+00  0.00000000000E+00  0.13488523478E+03  0.13488523478E+03  0.00000000000E+00 0. -1.
         21   -1    0    0  501  503 -0.00000000000E+00 -0.00000000000E+00 -0.58746690239E+03  0.58746690239E+03  0.00000000000E+00 0. -1.
          6    2    1    2  501    0  0.50434195084E+02  0.87829631866E+02 -0.48104348813E+03  0.52048250501E+03  0.17100160314E+03 0.  0.
         24    2    3    3    0    0 -0.35701672152E+02  0.30721061543E+02 -0.18682171890E+03  0.20860221400E+03  0.79963341700E+02 0.  0.
         -6    2    1    2    0  502 -0.50434195084E+02 -0.87829631866E+02  0.28461820523E+02  0.20186963216E+03  0.17228935223E+03 0.  0.
        -24    2    5    5    0    0 -0.56787156093E+02 -0.12229750057E+03  0.92600174853E-02  0.15648205362E+03  0.79405121222E+02 0.  0.
          5    1    3    3  501    0  0.86135867236E+02  0.57108570323E+02 -0.29422176923E+03  0.31188029101E+03  0.47000000000E+01 0. -1.
        -13    1    4    4    0    0 -0.11982020915E+02  0.51963158735E+02 -0.15356365849E+03  0.16255933040E+03  0.00000000000E+00 0.  1.
         14    1    4    4    0    0 -0.23719651237E+02 -0.21242097193E+02 -0.33258060408E+02  0.46042883598E+02  0.00000000000E+00 0. -1.
         -5    1    5    5    0  502  0.63529610093E+01  0.34467868700E+02  0.28452560506E+02  0.45387578539E+02  0.47000000000E+01 0.  1.
         11    1    6    6    0    0 -0.46927100199E+02 -0.15810671628E+02  0.11873105516E+01  0.49533218922E+02  0.00000000000E+00 0. -1.
        -12    1    6    6    0    0 -0.98600558943E+01 -0.10648682894E+03 -0.11780505341E+01  0.10694883469E+03  0.00000000000E+00 0.  1.
</event>
<event>
12    1  0.8271773E-002  0.2520064E+03  0.7818608E-02  0.1112174E+00
         21   -1    0    0  503  502  0.00000000000E+00  0.00000000000E+00  0.11037648016E+04  0.11037648016E+04  0.00000000000E+00 0.  1.
         21   -1    0    0  501  503 -0.00000000000E+00 -0.00000000000E+00 -0.67362487841E+02  0.67362487841E+02  0.00000000000E+00 0. -1.
          6    2    1    2  501    0  0.18375591531E+03  0.32695129427E+00  0.29167089882E+03  0.38491351632E+03  0.17123130123E+03 0.  0.
         24    2    3    3    0    0  0.28898015279E+02  0.28248464745E+02  0.11310639613E+03  0.14686320286E+03  0.84514332885E+02 0.  0.
         -6    2    1    2    0  502 -0.18375591531E+03 -0.32695129427E+00  0.74473141498E+03  0.78621377316E+03  0.17245542423E+03 0.  0.
        -24    2    5    5    0    0 -0.13490166052E+03  0.49270252564E+02  0.30363763953E+03  0.33963519152E+03  0.50301405369E+02 0.  0.
          5    1    3    3  501    0  0.15485790003E+03 -0.27921513451E+02  0.17856450270E+03  0.23805031346E+03  0.47000000000E+01 0. -1.
        -13    1    4    4    0    0  0.43174820758E+02  0.37001645785E+02  0.34535243568E+02  0.66527212377E+02  0.00000000000E+00 0.  1.
         14    1    4    4    0    0 -0.14276805479E+02 -0.87531810403E+01  0.78571152559E+02  0.80335990487E+02  0.00000000000E+00 0. -1.
         -5    1    5    5    0  502 -0.48854254791E+02 -0.49597203858E+02  0.44109377545E+03  0.44657858165E+03  0.47000000000E+01 0.  1.
         11    1    6    6    0    0 -0.98079313234E+02  0.46923039215E+02  0.26384321223E+03  0.28536741919E+03  0.00000000000E+00 0. -1.
        -12    1    6    6    0    0 -0.36822347282E+02  0.23472133487E+01  0.39794427298E+02  0.54267772332E+02  0.00000000000E+00 0.  1.
</event>
<event>
12    1  0.8271773E-002  0.2443526E+03  0.7818608E-02  0.1117196E+00
         21   -1    0    0  501  502  0.00000000000E+00  0.00000000000E+00  0.99995802456E+03  0.99995802456E+03  0.00000000000E+00 0.  1.
         21   -1    0    0  502  503 -0.00000000000E+00 -0.00000000000E+00 -0.68995892645E+02  0.68995892645E+02  0.00000000000E+00 0. -1.
         -6    2    1    2    0  503  0.60102620041E+02 -0.16168639903E+03  0.66710342725E+03  0.71044714901E+03  0.17307036808E+03 0.  0.
        -24    2    3    3    0    0  0.58294958442E+02 -0.18848997078E+03  0.54762309849E+03  0.58789373999E+03  0.82469511064E+02 0.  0.
          6    2    1    2  501    0 -0.60102620041E+02  0.16168639903E+03  0.26385870466E+03  0.35850676820E+03  0.17073625933E+03 0.  0.
         24    2    5    5    0    0 -0.29712678198E+02  0.16420832711E+03  0.27005933135E+03  0.32703540887E+03  0.78567794079E+02 0.  0.
          5    1    5    5  501    0 -0.30389941843E+02 -0.25219280791E+01 -0.62006266946E+01  0.31471359326E+02  0.47000000000E+01 0. -1.
        -13    1    6    6    0    0 -0.54434457320E+02  0.85938058104E+02  0.13586809814E+03  0.16973096378E+03  0.00000000000E+00 0.  1.
         14    1    6    6    0    0  0.24721779122E+02  0.78270269008E+02  0.13419123321E+03  0.15730444509E+03  0.00000000000E+00 0. -1.
         -5    1    3    3    0  503  0.18076615992E+01  0.26803571752E+02  0.11948032876E+03  0.12255340901E+03  0.47000000000E+01 0.  1.
         11    1    4    4    0    0  0.19358364402E+02 -0.29766623100E+02  0.35033025066E+02  0.49880967998E+02  0.00000000000E+00 0. -1.
        -12    1    4    4    0    0  0.38936594040E+02 -0.15872334768E+03  0.51259007342E+03  0.53801277199E+03  0.00000000000E+00 0.  1.
</event>
<event>
12    1  0.8271773E-002  0.1877742E+03  0.7818608E-02  0.1161678E+00
         21   -1    0    0  501  502  0.00000000000E+00  0.00000000000E+00  0.40089041226E+03  0.40089041226E+03  0.00000000000E+00 0. -1.
         21   -1    0    0  502  503 -0.00000000000E+00 -0.00000000000E+00 -0.13099988047E+03  0.13099988047E+03  0.00000000000E+00 0. -1.
         -6    2    1    2    0  503  0.56096158734E+02  0.29563542292E+02 -0.22890393455E+02  0.18406873217E+03  0.17127914640E+03 0.  0.
        -24    2    3    3    0    0  0.48409599177E+02  0.28826030716E+01  0.49990692533E+02  0.10593616271E+03  0.79822318540E+02 0.  0.
          6    2    1    2  501    0 -0.56096158734E+02 -0.29563542292E+02  0.29278092525E+03  0.34782156056E+03  0.17674384216E+03 0.  0.
         24    2    5    5    0    0 -0.73701942494E+02 -0.20174714194E+02  0.30087576262E+03  0.32578227502E+03  0.98837597925E+02 0.  0.
          5    1    5    5  501    0  0.17605783760E+02 -0.93888280982E+01 -0.80948373742E+01  0.22039285537E+02  0.47000000000E+01 0. -1.
        -11    1    6    6    0    0 -0.23451119105E+02  0.16391436080E+02  0.13271133680E+02  0.31539770976E+02  0.00000000000E+00 0.  1.
         12    1    6    6    0    0 -0.50250823388E+02 -0.36566150275E+02  0.28760462894E+03  0.29424250404E+03  0.00000000000E+00 0. -1.
         -5    1    3    3    0  503  0.76865595572E+01  0.26680939221E+02 -0.72881085988E+02  0.78132569459E+02  0.47000000000E+01 0.  1.
         11    1    4    4    0    0  0.43657228258E+02  0.37773901874E+02  0.25923503460E+02  0.63283878466E+02  0.00000000000E+00 0. -1.
        -12    1    4    4    0    0  0.47523709183E+01 -0.34891298803E+02  0.24067189073E+02  0.42652284245E+02  0.00000000000E+00 0.  1.
</event>
<event>
12    1  0.8271773E-002  0.1939387E+03  0.7818608E-02  0.1155040E+00
         21   -1    0    0  501  502  0.00000000000E+00  0.00000000000E+00  0.56710336934E+03  0.56710336934E+03  0.00000000000E+00 0.  1.
         21   -1    0    0  502  503 -0.00000000000E+00 -0.00000000000E+00 -0.66195505228E+02  0.66195505228E+02  0.00000000000E+00 0.  1.
         -6    2    1    2    0  503  0.64683222744E+02 -0.59540962400E+02  0.24860564038E+03  0.31530456988E+03  0.17286746904E+03 0.  0.
        -24    2    3    3    0    0  0.21536260406E+02 -0.10314240231E+03  0.17344910759E+03  0.21817918524E+03  0.80096181437E+02 0.  0.
          6    2    1    2  501    0 -0.64683222744E+02  0.59540962400E+02  0.25230222373E+03  0.31799430468E+03  0.17243816342E+03 0.  0.
         24    2    5    5    0    0 -0.22653619695E+02  0.96141790204E+02  0.21810032840E+03  0.25243541686E+03  0.79996600730E+02 0.  0.
          5    1    5    5  501    0 -0.42029603049E+02 -0.36600827804E+02  0.34201895334E+02  0.65558887825E+02  0.47000000000E+01 0. -1.
        -11    1    6    6    0    0 -0.30457774402E+02  0.10266322045E+02  0.10744599134E+03  0.11215040992E+03  0.00000000000E+00 0.  1.
         12    1    6    6    0    0  0.78041547072E+01  0.85875468159E+02  0.11065433705E+03  0.14028500694E+03  0.00000000000E+00 0. -1.
         -5    1    3    3    0  503  0.43146962338E+02  0.43601439911E+02  0.75156532786E+02  0.97125384642E+02  0.47000000000E+01 0.  1.
         11    1    4    4    0    0  0.32448059368E+02 -0.61459946413E+02  0.15764509376E+03  0.17228516232E+03  0.00000000000E+00 0. -1.
        -12    1    4    4    0    0 -0.10911798962E+02 -0.41682455899E+02  0.15804013831E+02  0.45894022917E+02  0.00000000000E+00 0.  1.
</event>
<event>
12    1  0.8271773E-002  0.2151369E+03  0.7818608E-02  0.1137585E+00
         21   -1    0    0  503  502  0.00000000000E+00  0.00000000000E+00  0.14494480759E+03  0.14494480759E+03  0.00000000000E+00 0. -1.
         21   -1    0    0  501  503 -0.00000000000E+00 -0.00000000000E+00 -0.42316930461E+03  0.42316930461E+03  0.00000000000E+00 0.  1.
          6    2    1    2  501    0  0.69460934862E+02  0.10760550292E+03 -0.27992299751E+03  0.35297049559E+03  0.17270645759E+03 0.  0.
         24    2    3    3    0    0  0.79159721053E+02  0.12025985356E+03 -0.15248853639E+03  0.22445656279E+03  0.79995631338E+02 0.  0.
         -6    2    1    2    0  502 -0.69460934862E+02 -0.10760550292E+03  0.16985004943E+01  0.21514361661E+03  0.17285868544E+03 0.  0.
        -24    2    5    5    0    0  0.35574609781E+02 -0.16202718621E+02  0.37882026933E+01  0.75811669548E+02  0.64845800236E+02 0.  0.
          5    1    3    3  501    0 -0.96987861902E+01 -0.12654350645E+02 -0.12743446112E+03  0.12851393280E+03  0.47000000000E+01 0. -1.
        -11    1    4    4    0    0  0.81734026262E+02  0.76396608819E+02 -0.13912793315E+03  0.17853143888E+03  0.00000000000E+00 0.  1.
         12    1    4    4    0    0 -0.25743052093E+01  0.43863244745E+02 -0.13360603243E+02  0.45925123907E+02  0.00000000000E+00 0. -1.
         -5    1    5    5    0  502 -0.10503554464E+03 -0.91402784299E+02 -0.20897021990E+01  0.13933194706E+03  0.47000000000E+01 0.  1.
         13    1    6    6    0    0 -0.12418807697E+01  0.20046849514E+02 -0.98563057777E+01  0.22373314615E+02  0.00000000000E+00 0. -1.
        -14    1    6    6    0    0  0.36816490551E+02 -0.36249568135E+02  0.13644508471E+02  0.53438354933E+02  0.00000000000E+00 0.  1.
</event>
<event>
12    1  0.8271773E-002  0.2047924E+03  0.7818608E-02  0.1145776E+00
         21   -1    0    0  501  502  0.00000000000E+00  0.00000000000E+00  0.43580462097E+03  0.43580462097E+03  0.00000000000E+00 0.  1.
         21   -1    0    0  502  503 -0.00000000000E+00 -0.00000000000E+00 -0.11610386894E+03  0.11610386894E+03  0.00000000000E+00 0.  1.
         -6    2    1    2    0  503  0.85569511541E+02 -0.70146603125E+02  0.27415576612E+03  0.34220066689E+03  0.17232882837E+03 0.  0.
        -24    2    3    3    0    0  0.78860685905E+02 -0.66677120070E+02  0.89664091310E+02  0.15749464715E+03  0.78102935202E+02 0.  0.
          6    2    1    2  501    0 -0.85569511541E+02  0.70146603125E+02  0.45544985903E+02  0.20970782303E+03  0.17222177000E+03 0.  0.
         24    2    5    5    0    0 -0.11595894670E+03  0.29148412169E+02  0.37062321646E+01  0.14354937122E+03  0.79350983421E+02 0.  0.
          5    1    5    5  501    0  0.30389435156E+02  0.40998190956E+02  0.41838753739E+02  0.66158451804E+02  0.47000000000E+01 0. -1.
        -13    1    6    6    0    0 -0.61512964299E+02 -0.16768336823E+02  0.26094028007E+02  0.68890639381E+02  0.00000000000E+00 0.  1.
         14    1    6    6    0    0 -0.54445982398E+02  0.45916748992E+02 -0.22387795842E+02  0.74658731840E+02  0.00000000000E+00 0. -1.
         -5    1    3    3    0  503  0.67088256363E+01 -0.34694830554E+01  0.18449167481E+03  0.18470601974E+03  0.47000000000E+01 0.  1.
         13    1    4    4    0    0 -0.13371092765E+02 -0.14329136513E+02  0.16325267544E+01  0.19666606686E+02  0.00000000000E+00 0. -1.
        -14    1    4    4    0    0  0.92231778670E+02 -0.52347983556E+02  0.88031564556E+02  0.13782804046E+03  0.00000000000E+00 0.  1.
</event>
<event>
12    1  0.8271773E-002  0.1839253E+03  0.7818608E-02  0.1164257E+00
         21   -1    0    0  501  502  0.00000000000E+00  0.00000000000E+00  0.15105558478E+03  0.15105558478E+03  0.00000000000E+00 0. -1.
         21   -1    0    0  502  503 -0.00000000000E+00 -0.00000000000E+00 -0.31640226458E+03  0.31640226458E+03  0.00000000000E+00 0. -1.
         -6    2    1    2    0  503  0.66404986324E+02  0.59887806512E+01 -0.20958569821E+03  0.27828697806E+03  0.17050510128E+03 0.  0.
        -24    2    3    3    0    0  0.40896740184E+02 -0.59173226378E+02 -0.15798274108E+03  0.19121394569E+03  0.80188605619E+02 0.  0.
          6    2    1    2  501    0 -0.66404986324E+02 -0.59887806512E+01  0.44239018404E+02  0.18917087130E+03  0.17141481877E+03 0.  0.
         24    2    5    5    0    0 -0.32731813969E+02  0.57910268900E+02  0.52025525371E+02  0.11637189630E+03  0.80067422017E+02 0.  0.
          5    1    5    5  501    0 -0.33673172354E+02 -0.63899049551E+02 -0.77865069666E+01  0.72798974998E+02  0.47000000000E+01 0. -1.
        -11    1    6    6    0    0 -0.59585216512E+00 -0.14994704613E+01 -0.18586565530E+02  0.18656469915E+02  0.00000000000E+00 0.  1.
         12    1    6    6    0    0 -0.32135961804E+02  0.59409739362E+02  0.70612090901E+02  0.97715426384E+02  0.00000000000E+00 0. -1.
         -5    1    3    3    0  503  0.25508246140E+02  0.65162007029E+02 -0.51602957127E+02  0.87073032366E+02  0.47000000000E+01 0.  1.
         13    1    4    4    0    0  0.59184861306E+02 -0.21156089135E+02 -0.72954985315E+02  0.96295679018E+02  0.00000000000E+00 0. -1.
        -14    1    4    4    0    0 -0.18288121122E+02 -0.38017137243E+02 -0.85027755765E+02  0.94918266676E+02  0.00000000000E+00 0.  1.
</event>
<event>
12    1  0.8271773E-002  0.2192714E+03  0.7818608E-02  0.1134656E+00
         21   -1    0    0  503  502  0.00000000000E+00  0.00000000000E+00  0.42473442826E+03  0.42473442826E+03  0.00000000000E+00 0.  1.
         21   -1    0    0  501  503 -0.00000000000E+00 -0.00000000000E+00 -0.18179197762E+03  0.18179197762E+03  0.00000000000E+00 0.  1.
          6    2    1    2  501    0  0.20337053353E+02 -0.13545920413E+03 -0.65867137288E+02  0.22778732804E+03  0.16966377137E+03 0.  0.
         24    2    3    3    0    0 -0.25487447380E+01 -0.32171819637E+02  0.24494418009E+02  0.88577614922E+02  0.78768618581E+02 0.  0.
         -6    2    1    2    0  502 -0.20337053353E+02  0.13545920413E+03  0.30880958792E+03  0.37873907784E+03  0.17122247448E+03 0.  0.
        -24    2    5    5    0    0  0.23320467473E+02  0.22380081257E+02  0.61594653260E+02  0.10336627403E+03  0.76458963224E+02 0.  0.
          5    1    3    3  501    0  0.22885798091E+02 -0.10328738450E+03 -0.90361555297E+02  0.13920971312E+03  0.47000000000E+01 0. -1.
        -11    1    4    4    0    0 -0.20723562378E+02  0.97032677650E+01 -0.15703067005E+02  0.27752581075E+02  0.00000000000E+00 0.  1.
         12    1    4    4    0    0  0.18174817640E+02 -0.41875087402E+02  0.40197485014E+02  0.60825033848E+02  0.00000000000E+00 0. -1.
         -5    1    5    5    0  502 -0.43657520826E+02  0.11307912288E+03  0.24721493466E+03  0.27537280380E+03  0.47000000000E+01 0.  1.
         11    1    6    6    0    0  0.43450982711E+00 -0.25460314741E+02  0.52695087310E+01  0.26003541062E+02  0.00000000000E+00 0. -1.
        -12    1    6    6    0    0  0.22885957646E+02  0.47840395998E+02  0.56325144529E+02  0.77362732971E+02  0.00000000000E+00 0.  1.
</event>
<event>
12    1  0.8271773E-002  0.2170989E+03  0.7818608E-02  0.1137617E+00
         21   -1    0    0  501  502  0.00000000000E+00  0.00000000000E+00  0.68842676369E+02  0.68842676369E+02  0.00000000000E+00 0. -1.
         21   -1    0    0  502  503 -0.00000000000E+00 -0.00000000000E+00 -0.66366209452E+03  0.66366209452E+03  0.00000000000E+00 0. -1.
         -6    2    1    2    0  503 -0.11903561612E+03  0.35977422200E+01 -0.32061401961E+03  0.38276122107E+03  0.17184406050E+03 0.  0.
        -24    2    3    3    0    0 -0.10042556453E+02  0.15589326043E+02 -0.21808274083E+03  0.23256788478E+03  0.78637517484E+02 0.  0.
          6    2    1    2  501    0  0.11903561612E+03 -0.35977422200E+01 -0.27420539854E+03  0.34974354982E+03  0.18152004958E+03 0.  0.
         24    2    5    5    0    0  0.15345519572E+02  0.47790085293E+02 -0.84147901176E+02  0.12717606063E+03  0.81077147846E+02 0.  0.
          5    1    5    5  501    0  0.10369009654E+03 -0.51387827514E+02 -0.19005749737E+03  0.22256748919E+03  0.47000000000E+01 0. -1.
        -13    1    6    6    0    0 -0.28548613423E+02  0.19311117438E+02 -0.60778210977E+02  0.69870834507E+02  0.00000000000E+00 0.  1.
         14    1    6    6    0    0  0.43894132995E+02  0.28478967855E+02 -0.23369690200E+02  0.57305226128E+02  0.00000000000E+00 0. -1.
         -5    1    3    3    0  503 -0.10899305966E+03 -0.11991583823E+02 -0.10253127878E+03  0.15019333629E+03  0.47000000000E+01 0.  1.
         13    1    4    4    0    0 -0.30016510726E+02  0.38707324743E+02 -0.11360479040E+03  0.12371457597E+03  0.00000000000E+00 0. -1.
        -14    1    4    4    0    0  0.19973954273E+02 -0.23117998700E+02 -0.10447795043E+03  0.10885330881E+03  0.00000000000E+00 0.  1.
</event>
<event>
12    1  0.8271773E-002  0.2808753E+03  0.7818608E-02  0.1095291E+00
         21   -1    0    0  503  502  0.00000000000E+00  0.00000000000E+00  0.68957023517E+03  0.68957023517E+03  0.00000000000E+00 0. -1.
         21   -1    0    0  501  503 -0.00000000000E+00 -0.00000000000E+00 -0.15525769061E+03  0.15525769061E+03  0.00000000000E+00 0. -1.
          6    2    1    2  501    0 -0.34603961193E+02 -0.21770928969E+03  0.50053667182E+02  0.28530038296E+03  0.17405795003E+03 0.  0.
         24    2    3    3    0    0 -0.48207091007E+02 -0.44437621040E+02 -0.48863190251E+00  0.10423484152E+03  0.81031090572E+02 0.  0.
         -6    2    1    2    0  502  0.34603961193E+02  0.21770928969E+03  0.48425887737E+03  0.55952754282E+03  0.17311742233E+03 0.  0.
        -24    2    5    5    0    0  0.33454115513E+02  0.23831067950E+03  0.40838253956E+03  0.48075541548E+03  0.80239099445E+02 0.  0.
          5    1    3    3  501    0  0.13603129813E+02 -0.17327166865E+03  0.50542299085E+02  0.18106554144E+03  0.47000000000E+01 0. -1.
        -11    1    4    4    0    0 -0.60591734380E-01 -0.78145722711E+01 -0.34132735106E+02  0.35015922335E+02  0.00000000000E+00 0.  1.
         12    1    4    4    0    0 -0.48146499273E+02 -0.36623048769E+02  0.33644103203E+02  0.69218919189E+02  0.00000000000E+00 0. -1.
         -5    1    5    5    0  502  0.11498456806E+01 -0.20601389811E+02  0.75876337806E+02  0.78772127342E+02  0.47000000000E+01 0.  1.
         13    1    6    6    0    0  0.37000209731E+02  0.79886521276E+02  0.20361823933E+03  0.22183610885E+03  0.00000000000E+00 0. -1.
        -14    1    6    6    0    0 -0.35460942180E+01  0.15842415823E+03  0.20476430024E+03  0.25891930663E+03  0.00000000000E+00 0.  1.
</event>
<event>
12    1  0.8271773E-002  0.2027805E+03  0.7818608E-02  0.1150329E+00
         21   -1    0    0  503  502  0.00000000000E+00  0.00000000000E+00  0.42224137553E+03  0.42224137553E+03  0.00000000000E+00 0. -1.
         21   -1    0    0  501  503 -0.00000000000E+00 -0.00000000000E+00 -0.93153926079E+02  0.93153926079E+02  0.00000000000E+00 0.  1.
          6    2    1    2  501    0 -0.61841331034E+02 -0.87993507525E+02  0.20942508254E+03  0.29151122827E+03  0.17190905568E+03 0.  0.
         24    2    3    3    0    0  0.32236365116E+02 -0.24943549207E+02  0.10048297068E+03  0.13429677636E+03  0.79230252172E+02 0.  0.
         -6    2    1    2    0  502  0.61841331034E+02  0.87993507525E+02  0.11966236691E+03  0.22388407333E+03  0.15568490179E+03 0.  0.
        -24    2    5    5    0    0  0.72702992440E+02  0.14818143132E+02  0.89563571126E+02  0.14388009124E+03  0.84702685359E+02 0.  0.
          5    1    3    3  501    0 -0.94077696151E+02 -0.63049958318E+02  0.10894211185E+03  0.15721445192E+03  0.47000000000E+01 0. -1.
        -11    1    4    4    0    0 -0.25598891499E+02  0.79510568013E+00  0.32947041273E+02  0.41730599896E+02  0.00000000000E+00 0.  1.
         12    1    4    4    0    0  0.57835256615E+02 -0.25738654887E+02  0.67535929411E+02  0.92566176460E+02  0.00000000000E+00 0. -1.
         -5    1    5    5    0  502 -0.10861661405E+02  0.73175364392E+02  0.30098795785E+02  0.80003982089E+02  0.47000000000E+01 0.  1.
         13    1    6    6    0    0  0.29152490275E+01 -0.19333045932E+02  0.55871526623E+02  0.59193689098E+02  0.00000000000E+00 0. -1.
        -14    1    6    6    0    0  0.69787743412E+02  0.34151189064E+02  0.33692044503E+02  0.84686402143E+02  0.00000000000E+00 0.  1.
</event>
<event>
12    1  0.8271773E-002  0.1941164E+03  0.7818608E-02  0.1157766E+00
         21   -1    0    0  503  502  0.00000000000E+00  0.00000000000E+00  0.11874608129E+04  0.11874608129E+04  0.00000000000E+00 0. -1.
         21   -1    0    0  501  503 -0.00000000000E+00 -0.00000000000E+00 -0.10126311532E+03  0.10126311532E+03  0.00000000000E+00 0. -1.
          6    2    1    2  501    0  0.43009166252E+02  0.39843657306E+02 -0.42507814438E+01  0.18113236298E+03  0.17132880192E+03 0.  0.
         24    2    3    3    0    0  0.81444163553E+02 -0.13780597078E+02  0.82247734524E+01  0.11382308319E+03  0.77878050409E+02 0.  0.
         -6    2    1    2    0  502 -0.43009166252E+02 -0.39843657306E+02  0.10904484790E+04  0.11075915653E+04  0.18505103242E+03 0.  0.
        -24    2    5    5    0    0 -0.85604061480E+02 -0.12813805223E+02  0.48259193366E+03  0.49762713371E+03  0.85120742625E+02 0.  0.
          5    1    3    3  501    0 -0.38434997302E+02  0.53624254384E+02 -0.12475554896E+02  0.67309279789E+02  0.47000000000E+01 0. -1.
        -13    1    4    4    0    0  0.53194280556E+00  0.24629757619E+01 -0.24804593851E+02  0.24932249976E+02  0.00000000000E+00 0.  1.
         14    1    4    4    0    0  0.80912220748E+02 -0.16243572840E+02  0.33029367303E+02  0.88890833213E+02  0.00000000000E+00 0. -1.
         -5    1    5    5    0  502  0.42594895229E+02 -0.27029852083E+02  0.60785654538E+03  0.60996443156E+03  0.47000000000E+01 0.  1.
         13    1    6    6    0    0 -0.50615316388E+02 -0.18911934729E+02  0.43447571849E+03  0.43782270554E+03  0.00000000000E+00 0. -1.
        -14    1    6    6    0    0 -0.34988745092E+02  0.60981295059E+01  0.48116215170E+02  0.59804428171E+02  0.00000000000E+00 0.  1.
</event>
<event>
12    1  0.8271773E-002  0.2980825E+03  0.7818608E-02  0.1087144E+00
         21   -1    0    0  503  502  0.00000000000E+00  0.00000000000E+00  0.18639650600E+03  0.18639650600E+03  0.00000000000E+00 0.  1.
         21   -1    0    0  501  503 -0.00000000000E+00 -0.00000000000E+00 -0.74414415211E+03  0.74414415211E+03  0.00000000000E+00 0.  1.
          6    2    1    2  501    0 -0.12740200923E+03 -0.19743545215E+03 -0.56601548471E+03  0.63970828525E+03  0.18341518900E+03 0.  0.
         24    2    3    3    0    0 -0.19655176706E+02 -0.16910025609E+03 -0.35468596737E+03  0.40076369302E+03  0.76342515113E+02 0.  0.
         -6    2    1    2    0  502  0.12740200923E+03  0.19743545215E+03  0.82678386035E+01  0.29083237287E+03  0.17118143075E+03 0.  0.
        -24    2    5    5    0    0  0.55085698586E+02  0.10568271381E+03 -0.60194087988E+02  0.15534311437E+03  0.79403304495E+02 0.  0.
          5    1    3    3  501    0 -0.10774683252E+03 -0.28335196065E+02 -0.21132951734E+03  0.23894459222E+03  0.47000000000E+01 0. -1.
        -11    1    4    4    0    0 -0.33449410616E+02 -0.12478529169E+03 -0.31206920957E+03  0.33775349540E+03  0.00000000000E+00 0.  1.
         12    1    4    4    0    0  0.13794233910E+02 -0.44314964401E+02 -0.42616757802E+02  0.63010197624E+02  0.00000000000E+00 0. -1.
         -5    1    5    5    0  502  0.72316310640E+02  0.91752738338E+02  0.68461926592E+02  0.13548925850E+03  0.47000000000E+01 0.  1.
         11    1    6    6    0    0  0.63420856298E+02  0.36280464687E+02 -0.26259385353E+02  0.77640404756E+02  0.00000000000E+00 0. -1.
        -12    1    6    6    0    0 -0.83351577127E+01  0.69402249127E+02 -0.33934702635E+02  0.77702709611E+02  0.00000000000E+00 0.  1.
</event>
<event>
12    1  0.8271773E-002  0.2291392E+03  0.7818608E-02  0.1127403E+00
         21   -1    0    0  501  502  0.00000000000E+00  0.00000000000E+00  0.99671813233E+03  0.99671813233E+03  0.00000000000E+00 0. -1.
         21   -1    0    0  502  503 -0.00000000000E+00 -0.00000000000E+00 -0.66985901763E+02  0.66985901763E+02  0.00000000000E+00 0. -1.
         -6    2    1    2    0  503  0.47380417692E+02  0.14435248829E+03  0.21663492423E+03  0.31469633771E+03  0.17035418901E+03 0.  0.
        -24    2    3    3    0    0 -0.54502372961E+01  0.66965415081E+02  0.19050349923E+03  0.21730650980E+03  0.80102834396E+02 0.  0.
          6    2    1    2  501    0 -0.47380417692E+02 -0.14435248829E+03  0.71309730634E+03  0.74900769639E+03  0.17152905317E+03 0.  0.
         24    2    5    5    0    0 -0.14229854278E+02 -0.76411701390E+02  0.19577987396E+03  0.22617471520E+03  0.82365076842E+02 0.  0.
          5    1    5    5  501    0 -0.33150563414E+02 -0.67940786905E+02  0.51731743238E+03  0.52283298119E+03  0.47000000000E+01 0. -1.
        -13    1    6    6    0    0  0.17842354135E+02 -0.40606172340E+02  0.16058710590E+03  0.16659960809E+03  0.00000000000E+00 0.  1.
         14    1    6    6    0    0 -0.32072208412E+02 -0.35805529050E+02  0.35192768057E+02  0.59575107105E+02  0.00000000000E+00 0. -1.
         -5    1    3    3    0  503  0.52830654988E+02  0.77387073213E+02  0.26131424995E+02  0.97389827904E+02  0.47000000000E+01 0.  1.
         13    1    4    4    0    0 -0.18825819775E+02  0.57050460420E+02  0.57149084298E+02  0.82916731487E+02  0.00000000000E+00 0. -1.
        -14    1    4    4    0    0  0.13375582479E+02  0.99149546609E+01  0.13335441494E+03  0.13438977831E+03  0.00000000000E+00 0.  1.
</event>
<event>
12    1  0.8271773E-002  0.1752407E+03  0.7818608E-02  0.1174882E+00
         21   -1    0    0  501  502  0.00000000000E+00  0.00000000000E+00  0.47721413486E+03  0.47721413486E+03  0.00000000000E+00 0. -1.
         21   -1    0    0  502  503 -0.00000000000E+00 -0.00000000000E+00 -0.10084002862E+03  0.10084002862E+03  0.00000000000E+00 0. -1.
         -6    2    1    2    0  503  0.37541371202E+02  0.78584320425E+01  0.96319813094E+01  0.17550523838E+03  0.17099182474E+03 0.  0.
        -24    2    3    3    0    0 -0.38532401711E+02 -0.23594126901E+02  0.12971812092E+02  0.92984169199E+02  0.80226921958E+02 0.  0.
          6    2    1    2  501    0 -0.37541371202E+02 -0.78584320425E+01  0.36674212493E+03  0.40254892510E+03  0.16147675188E+03 0.  0.
         24    2    5    5    0    0 -0.24475075700E+02  0.51812192098E+02  0.27543762072E+03  0.29259478033E+03  0.80388369730E+02 0.  0.
          5    1    5    5  501    0 -0.13066295501E+02 -0.59670624141E+02  0.91304504207E+02  0.10995414477E+03  0.47000000000E+01 0. -1.
        -11    1    6    6    0    0 -0.44190376227E+02  0.36869303519E+02  0.99650020658E+02  0.11507502557E+03  0.00000000000E+00 0.  1.
         12    1    6    6    0    0  0.19715300527E+02  0.14942888579E+02  0.17578760006E+03  0.17751975476E+03  0.00000000000E+00 0. -1.
         -5    1    3    3    0  503  0.76073772913E+02  0.31452558943E+02 -0.33398307825E+01  0.82521069182E+02  0.47000000000E+01 0.  1.
         11    1    4    4    0    0 -0.42731647848E+02  0.53072130656E+01 -0.21230668222E+02  0.48009389827E+02  0.00000000000E+00 0. -1.
        -12    1    4    4    0    0  0.41992461372E+01 -0.28901339966E+02  0.34202480314E+02  0.44974779373E+02  0.00000000000E+00 0.  1.
</event>
<event>
12    1  0.8271773E-002  0.2528952E+03  0.7818608E-02  0.1113667E+00
         21   -1    0    0  501  502  0.00000000000E+00  0.00000000000E+00  0.35157601801E+03  0.35157601801E+03  0.00000000000E+00 0. -1.
         21   -1    0    0  502  503 -0.00000000000E+00 -0.00000000000E+00 -0.19884960273E+03  0.19884960273E+03  0.00000000000E+00 0. -1.
         -6    2    1    2    0  503 -0.16518700483E+03  0.21367359530E+02 -0.26049304755E+02  0.24072136143E+03  0.17182810292E+03 0.  0.
        -24    2    3    3    0    0 -0.46054123045E+02 -0.36175614493E+02 -0.41339404726E+02  0.10745578246E+03  0.80050867997E+02 0.  0.
          6    2    1    2  501    0  0.16518700483E+03 -0.21367359530E+02  0.17877572003E+03  0.30970425931E+03  0.19029624153E+03 0.  0.
         24    2    5    5    0    0  0.15948990590E+03 -0.16218709185E+02  0.58403416742E+02  0.18899573875E+03  0.81291780428E+02 0.  0.
          5    1    5    5  501    0  0.56970989270E+01 -0.51486503447E+01  0.12037230329E+03  0.12070852056E+03  0.47000000000E+01 0. -1.
        -13    1    6    6    0    0  0.54170941103E+02 -0.42682713740E+02  0.85089648661E+01  0.69488901238E+02  0.00000000000E+00 0.  1.
         14    1    6    6    0    0  0.10531896480E+03  0.26464004555E+02  0.49894451876E+02  0.11950683751E+03  0.00000000000E+00 0. -1.
         -5    1    3    3    0  503 -0.11913288178E+03  0.57542974023E+02  0.15290099971E+02  0.13326557897E+03  0.47000000000E+01 0.  1.
         13    1    4    4    0    0 -0.15212275086E+02  0.24179223920E+02 -0.24458475300E+02  0.37606717441E+02  0.00000000000E+00 0. -1.
        -14    1    4    4    0    0 -0.30841847958E+02 -0.60354838413E+02 -0.16880929426E+02  0.69849065016E+02  0.00000000000E+00 0.  1.
</event>
<event>
12    1  0.8271773E-002  0.1951959E+03  0.7818608E-02  0.1155215E+00
         21   -1    0    0  501  502  0.00000000000E+00  0.00000000000E+00  0.52412518101E+02  0.52412518101E+02  0.00000000000E+00 0. -1.
         21   -1    0    0  502  503 -0.00000000000E+00 -0.00000000000E+00 -0.11733425548E+04  0.11733425548E+04  0.00000000000E+00 0. -1.
         -6    2    1    2    0  503  0.86405912151E+02 -0.29574275476E+02 -0.94256675853E+03  0.96134080317E+03  0.16553980225E+03 0.  0.
        -24    2    3    3    0    0  0.34976850782E+02  0.44792184605E+02 -0.42570638383E+03  0.43661034315E+03  0.78568101791E+02 0.  0.
          6    2    1    2  501    0 -0.86405912151E+02  0.29574275476E+02 -0.17836327816E+03  0.26441426972E+03  0.17251326793E+03 0.  0.
         24    2    5    5    0    0 -0.11416641400E+03  0.15355315617E+01 -0.86006167853E+02  0.16387202762E+03  0.80128974680E+02 0.  0.
          5    1    5    5  501    0  0.27760501849E+02  0.28038743914E+02 -0.92357110304E+02  0.10054224210E+03  0.47000000000E+01 0. -1.
        -11    1    6    6    0    0 -0.34526693752E+02 -0.83641917592E+01 -0.74843366973E+02  0.82846737202E+02  0.00000000000E+00 0.  1.
         12    1    6    6    0    0 -0.79639720249E+02  0.98997233209E+01 -0.11162800880E+02  0.81025290414E+02  0.00000000000E+00 0. -1.
         -5    1    3    3    0  503  0.51429061369E+02 -0.74366460081E+02 -0.51686037470E+03  0.52473046002E+03  0.47000000000E+01 0.  1.
         13    1    4    4    0    0  0.39369529545E+02 -0.10793987072E+02 -0.19940882706E+03  0.20354446768E+03  0.00000000000E+00 0. -1.
        -14    1    4    4    0    0 -0.43926787627E+01  0.55586171677E+02 -0.22629755677E+03  0.23306587547E+03  0.00000000000E+00 0.  1.
</event>
<event>
12    1  0.8271773E-002  0.1873280E+03  0.7818608E-02  0.1163227E+00
         21   -1    0    0  501  502  0.00000000000E+00  0.00000000000E+00  0.10265275251E+03  0.10265275251E+03  0.00000000000E+00 0.  1.
         21   -1    0    0  502  503 -0.00000000000E+00 -0.00000000000E+00 -0.33036173035E+03  0.33036173035E+03  0.00000000000E+00 0.  1.
         -6    2    1    2    0  503  0.57024562983E+01 -0.37172505131E+02 -0.87031103980E+02  0.20655792517E+03  0.18351416906E+03 0.  0.
        -24    2    3    3    0    0 -0.50943191085E+02 -0.54980243220E+02 -0.11680424094E+02  0.11050762657E+03  0.80358368325E+02 0.  0.
          6    2    1    2  501    0 -0.57024562983E+01  0.37172505131E+02 -0.14067787386E+03  0.22645655769E+03  0.17343008729E+03 0.  0.
         24    2    5    5    0    0 -0.25126042878E+02  0.65298099497E+02 -0.29398646098E+02  0.10995127323E+03  0.79560305830E+02 0.  0.
          5    1    5    5  501    0  0.19423586580E+02 -0.28125594366E+02 -0.11127922777E+03  0.11650528446E+03  0.47000000000E+01 0. -1.
        -13    1    6    6    0    0  0.27110136950E+02  0.92772874738E+01 -0.13711876381E+02  0.31765439430E+02  0.00000000000E+00 0.  1.
         14    1    6    6    0    0 -0.52236179828E+02  0.56020812023E+02 -0.15686769717E+02  0.78185833799E+02  0.00000000000E+00 0. -1.
         -5    1    3    3    0  503  0.56645647383E+02  0.17807738090E+02 -0.75350679886E+02  0.96050298608E+02  0.47000000000E+01 0.  1.
         11    1    4    4    0    0 -0.98559646576E+01 -0.83923175737E+01  0.32033626427E+02  0.34550314842E+02  0.00000000000E+00 0. -1.
        -12    1    4    4    0    0 -0.41087226427E+02 -0.46587925646E+02 -0.43714050521E+02  0.75957311725E+02  0.00000000000E+00 0.  1.
</event>
<event>
12    1  0.8271773E-002  0.1837360E+03  0.7818608E-02  0.1164492E+00
         21   -1    0    0  501  502  0.00000000000E+00  0.00000000000E+00  0.13278201928E+03  0.13278201928E+03  0.00000000000E+00 0. -1.
         21   -1    0    0  502  503 -0.00000000000E+00 -0.00000000000E+00 -0.29982306788E+03  0.29982306788E+03  0.00000000000E+00 0. -1.
         -6    2    1    2    0  503 -0.36371280387E+02 -0.65501176953E+02  0.23988638532E+01  0.18266748256E+03  0.16657845124E+03 0.  0.
        -24    2    3    3    0    0 -0.10028878059E+02 -0.97239181571E+02  0.33890823837E+02  0.13056127716E+03  0.79634303706E+02 0.  0.
          6    2    1    2  501    0  0.36371280387E+02  0.65501176953E+02 -0.16943991245E+03  0.24993760460E+03  0.16776664759E+03 0.  0.
         24    2    5    5    0    0  0.49665719126E+01 -0.12558560232E+02 -0.30818704918E+02  0.87710888363E+02  0.81000142549E+02 0.  0.
          5    1    5    5  501    0  0.31404708474E+02  0.78059737186E+02 -0.13862120753E+03  0.16222671624E+03  0.47000000000E+01 0. -1.
        -13    1    6    6    0    0 -0.36033207344E+02 -0.13120086439E+02 -0.26210561842E+02  0.46449136179E+02  0.00000000000E+00 0.  1.
         14    1    6    6    0    0  0.40999779257E+02  0.56152620652E+00 -0.46081430756E+01  0.41261752185E+02  0.00000000000E+00 0. -1.
         -5    1    3    3    0  503 -0.26342402328E+02  0.31738004617E+02 -0.31491959984E+02  0.52106205399E+02  0.47000000000E+01 0.  1.
         11    1    4    4    0    0  0.10532299056E+02 -0.39300323469E+02  0.52413771945E+02  0.66352454647E+02  0.00000000000E+00 0. -1.
        -12    1    4    4    0    0 -0.20561177115E+02 -0.57938858101E+02 -0.18522948108E+02  0.64208822517E+02  0.00000000000E+00 0.  1.
</event>
<event>
12    1  0.8271773E-002  0.1720491E+03  0.7818608E-02  0.1176141E+00
         21   -1    0    0  501  502  0.00000000000E+00  0.00000000000E+00  0.72973809000E+03  0.72973809000E+03  0.00000000000E+00 0.  1.
         21   -1    0    0  502  503 -0.00000000000E+00 -0.00000000000E+00 -0.55378230160E+02  0.55378230160E+02  0.00000000000E+00 0.  1.
         -6    2    1    2    0  503 -0.92664116481E+01 -0.78896754296E+00  0.13272107406E+03  0.21729195063E+03  0.17179761190E+03 0.  0.
        -24    2    3    3    0    0  0.28866127158E+02  0.55366672808E+02  0.96155424297E+02  0.14004764209E+03  0.80428568794E+02 0.  0.
          6    2    1    2  501    0  0.92664116481E+01  0.78896754296E+00  0.54163878578E+03  0.56782436953E+03  0.17019239560E+03 0.  0.
         24    2    5    5    0    0 -0.51011096891E+02 -0.27812683336E+00  0.21273924054E+03  0.23341217241E+03  0.81369824888E+02 0.  0.
          5    1    5    5  501    0  0.60277508539E+02  0.10670943763E+01  0.32889954524E+03  0.33441219713E+03  0.47000000000E+01 0. -1.
        -11    1    6    6    0    0 -0.18798615449E+02  0.40072460265E+02  0.91860810781E+02  0.10196861562E+03  0.00000000000E+00 0.  1.
         12    1    6    6    0    0 -0.32212481442E+02 -0.40350587098E+02  0.12087842976E+03  0.13144355678E+03  0.00000000000E+00 0. -1.
         -5    1    3    3    0  503 -0.38132538806E+02 -0.56155640351E+02  0.36565649763E+02  0.77244308538E+02  0.47000000000E+01 0.  1.
         11    1    4    4    0    0  0.54746967790E+02  0.24931277193E+02  0.69992734523E+02  0.92291830357E+02  0.00000000000E+00 0. -1.
        -12    1    4    4    0    0 -0.25880840632E+02  0.30435395615E+02  0.26162689774E+02  0.47755811733E+02  0.00000000000E+00 0.  1.
</event>
<event>
12    1  0.8271773E-002  0.1853861E+03  0.7818608E-02  0.1162951E+00
         21   -1    0    0  503  502  0.00000000000E+00  0.00000000000E+00  0.11901671087E+03  0.11901671087E+03  0.00000000000E+00 0.  1.
         21   -1    0    0  501  503 -0.00000000000E+00 -0.00000000000E+00 -0.74520042995E+03  0.74520042995E+03  0.00000000000E+00 0.  1.
          6    2    1    2  501    0 -0.55592450364E+02 -0.34791386272E+02 -0.65154764192E+03  0.67710396697E+03  0.17220479466E+03 0.  0.
         24    2    3    3    0    0  0.26008918652E+02  0.15172640494E+02 -0.25098941588E+03  0.26524941760E+03  0.80342353596E+02 0.  0.
         -6    2    1    2    0  502  0.55592450364E+02  0.34791386272E+02  0.25363922843E+02  0.18711317385E+03  0.17339852983E+03 0.  0.
        -24    2    5    5    0    0 -0.99312606788E+01  0.81880596686E+01 -0.41682651390E+02  0.89550748643E+02  0.78206258674E+02 0.  0.
          5    1    3    3  501    0 -0.81601369016E+02 -0.49964026766E+02 -0.40055822603E+03  0.41185454937E+03  0.47000000000E+01 0. -1.
        -13    1    4    4    0    0 -0.10310249936E+02  0.33934436346E+02 -0.17885106840E+03  0.18233362798E+03  0.00000000000E+00 0.  1.
         14    1    4    4    0    0  0.36319168588E+02 -0.18761795852E+02 -0.72138347481E+02  0.82915789617E+02  0.00000000000E+00 0. -1.
         -5    1    5    5    0  502  0.65523711043E+02  0.26603326603E+02  0.67046574233E+02  0.97562425204E+02  0.47000000000E+01 0.  1.
         11    1    6    6    0    0  0.18445376642E+01  0.23313612135E+02  0.16283679522E+02  0.28497105972E+02  0.00000000000E+00 0. -1.
        -12    1    6    6    0    0 -0.11775798343E+02 -0.15125552466E+02 -0.57966330913E+02  0.61053642672E+02  0.00000000000E+00 0.  1.
</event>
<event>
12    1  0.8271773E-002  0.2154850E+03  0.7818608E-02  0.1137351E+00
         21   -1    0    0  501  502  0.00000000000E+00  0.00000000000E+00  0.28645801642E+02  0.28645801642E+02  0.00000000000E+00 0.  1.
         21   -1    0    0  502  503 -0.00000000000E+00 -0.00000000000E+00 -0.16830226279E+04  0.16830226279E+04  0.00000000000E+00 0.  1.
         -6    2    1    2    0  503  0.68352296806E+02 -0.11003262539E+03 -0.99390402814E+03  0.10169324441E+04  0.17183469847E+03 0.  0.
        -24    2    3    3    0    0 -0.29795238695E+02 -0.30669340128E+02 -0.39054286465E+03  0.40049246051E+03  0.77731056353E+02 0.  0.
          6    2    1    2  501    0 -0.68352296806E+02  0.11003262539E+03 -0.66047279810E+03  0.69473598542E+03  0.17220498621E+03 0.  0.
         24    2    5    5    0    0  0.31496274341E+02  0.46003491258E+02 -0.31928799964E+03  0.33349005273E+03  0.78501286971E+02 0.  0.
          5    1    5    5  501    0 -0.99848571147E+02  0.64029134128E+02 -0.34118479847E+03  0.36124593269E+03  0.47000000000E+01 0. -1.
        -11    1    6    6    0    0 -0.17645915581E+02  0.31732366292E+02 -0.68431159344E+02  0.77467057362E+02  0.00000000000E+00 0.  1.
         12    1    6    6    0    0  0.49142189922E+02  0.14271124966E+02 -0.25085684029E+03  0.25602299537E+03  0.00000000000E+00 0. -1.
         -5    1    3    3    0  503  0.98147535501E+02 -0.79363285259E+02 -0.60336116349E+03  0.61643998360E+03  0.47000000000E+01 0.  1.
         11    1    4    4    0    0 -0.49483930908E+02 -0.27849388250E+02 -0.17383742031E+03  0.18287617817E+03  0.00000000000E+00 0. -1.
        -12    1    4    4    0    0  0.19688692213E+02 -0.28199518787E+01 -0.21670544434E+03  0.21761628233E+03  0.00000000000E+00 0.  1.
</event>
<event>
12    1  0.8271773E-002  0.2245289E+03  0.7818608E-02  0.1130552E+00
         21   -1    0    0  501  502  0.00000000000E+00  0.00000000000E+00  0.63267122974E+03  0.63267122974E+03  0.00000000000E+00 0. -1.
         21   -1    0    0  502  503 -0.00000000000E+00 -0.00000000000E+00 -0.31739922215E+03  0.31739922215E+03  0.00000000000E+00 0. -1.
         -6    2    1    2    0  503 -0.64556681562E+02 -0.12826188823E+03 -0.25346938482E+03  0.33861477181E+03  0.17261100062E+03 0.  0.
        -24    2    3    3    0    0 -0.24432708692E+02 -0.58619130231E+02 -0.23505529425E+03  0.25602412057E+03  0.79146694638E+02 0.  0.
          6    2    1    2  501    0  0.64556681562E+02  0.12826188823E+03  0.56874139241E+03  0.61145568009E+03  0.17260533064E+03 0.  0.
         24    2    5    5    0    0  0.15350747802E+02  0.12493814172E+03  0.26475336820E+03  0.30345717348E+03  0.78401055173E+02 0.  0.
          5    1    5    5  501    0  0.49205933760E+02  0.33237465161E+01  0.30398802421E+03  0.30799850661E+03  0.47000000000E+01 0. -1.
        -13    1    6    6    0    0 -0.20771997433E+01 -0.10581481496E+02  0.11981379672E+02  0.16119428286E+02  0.00000000000E+00 0.  1.
         14    1    6    6    0    0  0.17427947545E+02  0.13551962321E+03  0.25277198853E+03  0.28733774520E+03  0.00000000000E+00 0. -1.
         -5    1    3    3    0  503 -0.40123972870E+02 -0.69642758002E+02 -0.18414090569E+02  0.82590651241E+02  0.47000000000E+01 0.  1.
         11    1    4    4    0    0  0.11795340643E+02 -0.62638457335E+02 -0.16830131199E+03  0.17996676920E+03  0.00000000000E+00 0. -1.
        -12    1    4    4    0    0 -0.36228049335E+02  0.40193271039E+01 -0.66753982259E+02  0.76057351363E+02  0.00000000000E+00 0.  1.
</event>
<event>
12    1  0.8271773E-002  0.1985128E+03  0.7818608E-02  0.1151158E+00
         21   -1    0    0  503  502  0.00000000000E+00  0.00000000000E+00  0.18860314512E+03  0.18860314512E+03  0.00000000000E+00 0.  1.
         21   -1    0    0  501  503 -0.00000000000E+00 -0.00000000000E+00 -0.25610308822E+03  0.25610308822E+03  0.00000000000E+00 0. -1.
          6    2    1    2  501    0  0.50619238781E+02  0.84616894754E+02  0.62503383736E+02  0.20741273103E+03  0.17143815737E+03 0.  0.
         24    2    3    3    0    0  0.36246458517E+02 -0.78148507260E+01  0.88290233039E+02  0.11026719083E+03  0.54670014415E+02 0.  0.
         -6    2    1    2    0  502 -0.50619238781E+02 -0.84616894754E+02 -0.13000332684E+03  0.23729350230E+03  0.17229339811E+03 0.  0.
        -24    2    5    5    0    0 -0.75932461622E+02 -0.61733527377E+02 -0.15092905881E+03  0.19698985469E+03  0.80303517527E+02 0.  0.
          5    1    3    3  501    0  0.14372780264E+02  0.92431745480E+02 -0.25786849303E+02  0.97145540207E+02  0.47000000000E+01 0. -1.
        -13    1    4    4    0    0 -0.14272347973E+02 -0.26427332813E+01  0.13215486096E+02  0.19629901391E+02  0.00000000000E+00 0.  1.
         14    1    4    4    0    0  0.50518806490E+02 -0.51721174447E+01  0.75074746943E+02  0.90637289437E+02  0.00000000000E+00 0. -1.
         -5    1    5    5    0  502  0.25313222841E+02 -0.22883367377E+02  0.20925731964E+02  0.40303647618E+02  0.47000000000E+01 0.  1.
         11    1    6    6    0    0 -0.31814731268E+02  0.48620162512E+01 -0.92724177663E+02  0.98150850485E+02  0.00000000000E+00 0. -1.
        -12    1    6    6    0    0 -0.44117730353E+02 -0.66595543628E+02 -0.58204881142E+02  0.98839004201E+02  0.00000000000E+00 0.  1.
</event>
<event>
12    1  0.8271773E-002  0.1782244E+03  0.7818608E-02  0.1169953E+00
         21   -1    0    0  501  502  0.00000000000E+00  0.00000000000E+00  0.88783134316E+03  0.88783134316E+03  0.00000000000E+00 0. -1.
         21   -1    0    0  502  503 -0.00000000000E+00 -0.00000000000E+00 -0.11558139866E+03  0.11558139866E+03  0.00000000000E+00 0. -1.
         -6    2    1    2    0  503  0.42538129696E+02  0.10170265472E+02 -0.32222994980E+02  0.17943420442E+03  0.17101282271E+03 0.  0.
        -24    2    3    3    0    0  0.43234564875E+02 -0.47727698808E+02 -0.55644420120E+02  0.11679785359E+03  0.79989226012E+02 0.  0.
          6    2    1    2  501    0 -0.42538129696E+02 -0.10170265472E+02  0.80447293948E+03  0.82397853741E+03  0.17277439907E+03 0.  0.
         24    2    5    5    0    0 -0.26230457463E+02 -0.74327371102E+02  0.49853993390E+03  0.51093034898E+03  0.79342049495E+02 0.  0.
          5    1    5    5  501    0 -0.16307672233E+02  0.64157105630E+02  0.30593300558E+03  0.31304818843E+03  0.47000000000E+01 0. -1.
        -11    1    6    6    0    0 -0.29024746241E+01 -0.41480824202E+02  0.77355096902E+02  0.87823084393E+02  0.00000000000E+00 0.  1.
         12    1    6    6    0    0 -0.23327982839E+02 -0.32846546900E+02  0.42118483700E+03  0.42310726458E+03  0.00000000000E+00 0. -1.
         -5    1    3    3    0  503 -0.69643517958E+00  0.57897964281E+02  0.23421425141E+02  0.62636350831E+02  0.47000000000E+01 0.  1.
         13    1    4    4    0    0  0.16472660686E+02 -0.46351010778E+02  0.60242179387E+01  0.49558611279E+02  0.00000000000E+00 0. -1.
        -14    1    4    4    0    0  0.26761904190E+02 -0.13766880307E+01 -0.61668638059E+02  0.67239242306E+02  0.00000000000E+00 0.  1.
</event>
<event>
12    1  0.8271773E-002  0.1824760E+03  0.7818608E-02  0.1167676E+00
         21   -1    0    0  503  502  0.00000000000E+00  0.00000000000E+00  0.12823583917E+03  0.12823583917E+03  0.00000000000E+00 0. -1.
         21   -1    0    0  501  503 -0.00000000000E+00 -0.00000000000E+00 -0.26832989641E+03  0.26832989641E+03  0.00000000000E+00 0. -1.
          6    2    1    2  501    0  0.27749777616E+02  0.11538974429E+02 -0.12794970426E+03  0.22286454498E+03  0.17998411180E+03 0.  0.
         24    2    3    3    0    0  0.54721105685E+02 -0.91677553767E+01 -0.76829530340E+01  0.97794953765E+02  0.80164693404E+02 0.  0.
         -6    2    1    2    0  502 -0.27749777616E+02 -0.11538974429E+02 -0.12144352990E+02  0.17370119060E+03  0.17064999332E+03 0.  0.
        -24    2    5    5    0    0 -0.28990050710E+02  0.13980303962E+02 -0.69189656537E+02  0.11101922746E+03  0.80636147941E+02 0.  0.
          5    1    3    3  501    0 -0.26971328069E+02  0.20706729806E+02 -0.12026675122E+03  0.12506959121E+03  0.47000000000E+01 0. -1.
        -13    1    4    4    0    0 -0.32936500598E+01  0.13490110507E+02  0.24143435541E+02  0.27852050049E+02  0.00000000000E+00 0.  1.
         14    1    4    4    0    0  0.58014755745E+02 -0.22657865884E+02 -0.31826388575E+02  0.69942903716E+02  0.00000000000E+00 0. -1.
         -5    1    5    5    0  502  0.12402730942E+01 -0.25519278392E+02  0.57045303546E+02  0.62681963145E+02  0.47000000000E+01 0.  1.
         11    1    6    6    0    0 -0.10803857303E+02  0.45977705663E+01  0.17983037935E+02  0.21476789336E+02  0.00000000000E+00 0. -1.
        -12    1    6    6    0    0 -0.18186193407E+02  0.93825333962E+01 -0.87172694471E+02  0.89542438123E+02  0.00000000000E+00 0.  1.
</event>
<event>
12    1  0.8271773E-002  0.1851516E+03  0.7818608E-02  0.1163944E+00
         21   -1    0    0  501  502  0.00000000000E+00  0.00000000000E+00  0.80787427658E+02  0.80787427658E+02  0.00000000000E+00 0.  1.
         21   -1    0    0  502  503 -0.00000000000E+00 -0.00000000000E+00 -0.41774354134E+03  0.41774354134E+03  0.00000000000E+00 0.  1.
         -6    2    1    2    0  503 -0.36228483360E+02 -0.43125486404E+02 -0.19293196311E+03  0.26740208652E+03  0.17637693416E+03 0.  0.
        -24    2    3    3    0    0 -0.59658179722E+02 -0.81966071108E+02 -0.17669724385E+03  0.21899549811E+03  0.80371493631E+02 0.  0.
          6    2    1    2  501    0  0.36228483360E+02  0.43125486404E+02 -0.14402415057E+03  0.23112888248E+03  0.17177105048E+03 0.  0.
         24    2    5    5    0    0  0.87281095213E+02  0.12840235881E+02 -0.10216568842E+03  0.15834298803E+03  0.82775677165E+02 0.  0.
          5    1    5    5  501    0 -0.51052611852E+02  0.30285250523E+02 -0.41858462150E+02  0.72785894442E+02  0.47000000000E+01 0. -1.
        -13    1    6    6    0    0  0.25737999999E+02  0.44417337653E+02 -0.36706856181E+02  0.63108936125E+02  0.00000000000E+00 0.  1.
         14    1    6    6    0    0  0.61543095214E+02 -0.31577101772E+02 -0.65458832238E+02  0.95234051908E+02  0.00000000000E+00 0. -1.
         -5    1    3    3    0  503  0.23429696362E+02  0.38840584704E+02 -0.16234719257E+02  0.48406588406E+02  0.47000000000E+01 0.  1.
         13    1    4    4    0    0 -0.37579408955E+02 -0.35530098086E+02 -0.15461797952E+03  0.16303778531E+03  0.00000000000E+00 0. -1.
        -14    1    4    4    0    0 -0.22078770767E+02 -0.46435973023E+02 -0.22079264335E+02  0.55957712808E+02  0.00000000000E+00 0.  1.
</event>
<event>
12    1  0.8271773E-002  0.2053704E+03  0.7818608E-02  0.1145324E+00
         21   -1    0    0  503  502  0.00000000000E+00  0.00000000000E+00  0.23171920084E+04  0.23171920084E+04  0.00000000000E+00 0.  1.
         21   -1    0    0  501  503 -0.00000000000E+00 -0.00000000000E+00 -0.88200188942E+02  0.88200188942E+02  0.00000000000E+00 0. -1.
          6    2    1    2  501    0  0.52965919187E+02  0.97876510147E+02  0.43040038044E+02  0.20983196160E+03  0.17260303416E+03 0.  0.
         24    2    3    3    0    0  0.50792435586E+02  0.13272680397E+03  0.55503613538E+02  0.17245954230E+03  0.80407503453E+02 0.  0.
         -6    2    1    2    0  502 -0.52965919187E+02 -0.97876510147E+02  0.21859517814E+04  0.21955602357E+04  0.17237853193E+03 0.  0.
        -24    2    5    5    0    0  0.10466809777E+02  0.65676467747E+01  0.73884310504E+03  0.74329376424E+03  0.80273270759E+02 0.  0.
          5    1    3    3  501    0  0.21734836016E+01 -0.34850293819E+02 -0.12463575493E+02  0.37372419299E+02  0.47000000000E+01 0. -1.
        -13    1    4    4    0    0  0.34974043798E+02  0.14862491799E+02  0.35236909056E+02  0.51823905313E+02  0.00000000000E+00 0.  1.
         14    1    4    4    0    0  0.15818391788E+02  0.11786431217E+03  0.20266704482E+02  0.12063563699E+03  0.00000000000E+00 0. -1.
         -5    1    5    5    0  502 -0.63432728964E+02 -0.10444415692E+03  0.14471086764E+04  0.14522664715E+04  0.47000000000E+01 0.  1.
         11    1    6    6    0    0  0.27891751911E+02 -0.18359134271E+02  0.60986223666E+03  0.61077569970E+03  0.00000000000E+00 0. -1.
        -12    1    6    6    0    0 -0.17424942134E+02  0.24926781045E+02  0.12898086838E+03  0.13251806454E+03  0.00000000000E+00 0.  1.
</event>
<event>
12    1  0.8271773E-002  0.1797294E+03  0.7818608E-02  0.1169714E+00
         21   -1    0    0  501  502  0.00000000000E+00  0.00000000000E+00  0.57016125958E+02  0.57016125958E+02  0.00000000000E+00 0.  1.
         21   -1    0    0  502  503 -0.00000000000E+00 -0.00000000000E+00 -0.82848594596E+03  0.82848594596E+03  0.00000000000E+00 0.  1.
         -6    2    1    2    0  503 -0.28855735431E+02  0.14262834696E+02 -0.63955682485E+03  0.66255878410E+03  0.17004448907E+03 0.  0.
        -24    2    3    3    0    0 -0.11150229414E+02 -0.49671026388E+02 -0.25516240490E+03  0.27245343472E+03  0.80817589264E+02 0.  0.
          6    2    1    2  501    0  0.28855735431E+02 -0.14262834696E+02 -0.13191299516E+03  0.22294328782E+03  0.17682361090E+03 0.  0.
         24    2    5    5    0    0  0.32011436345E+02 -0.37188848658E+02 -0.16087885669E+03  0.18557121671E+03  0.78402343207E+02 0.  0.
          5    1    5    5  501    0 -0.31557009141E+01  0.22926013962E+02  0.28965861533E+02  0.37372071106E+02  0.47000000000E+01 0. -1.
        -13    1    6    6    0    0  0.55730272858E+02 -0.33104921812E+02 -0.13752148994E+03  0.15203275752E+03  0.00000000000E+00 0.  1.
         14    1    6    6    0    0 -0.23718836513E+02 -0.40839268458E+01 -0.23357366748E+02  0.33538459198E+02  0.00000000000E+00 0. -1.
         -5    1    3    3    0  503 -0.17705506017E+02  0.63933861084E+02 -0.38439441994E+03  0.39010534939E+03  0.47000000000E+01 0.  1.
         11    1    4    4    0    0  0.24035038073E+02 -0.24257163548E+02 -0.19669113992E+03  0.19963340793E+03  0.00000000000E+00 0. -1.
        -12    1    4    4    0    0 -0.35185267487E+02 -0.25413862840E+02 -0.58471264986E+02  0.72820026789E+02  0.00000000000E+00 0.  1.
</event>
<event>
12    1  0.8271773E-002  0.1804526E+03  0.7818608E-02  0.1167424E+00
         21   -1    0    0  503  502  0.00000000000E+00  0.00000000000E+00  0.36806933145E+02  0.36806933145E+02  0.00000000000E+00 0.  1.
         21   -1    0    0  501  503 -0.00000000000E+00 -0.00000000000E+00 -0.92405915262E+03  0.92405915262E+03  0.00000000000E+00 0.  1.
          6    2    1    2  501    0 -0.32240596607E+02  0.44053036651E+02 -0.54398284550E+03  0.57305556200E+03  0.17174170964E+03 0.  0.
         24    2    3    3    0    0 -0.55358811384E+02  0.58261845075E+02 -0.21442460379E+03  0.24234864225E+03  0.79346790098E+02 0.  0.
         -6    2    1    2    0  502  0.32240596607E+02 -0.44053036651E+02 -0.34326937397E+03  0.38781052377E+03  0.17199713116E+03 0.  0.
        -24    2    5    5    0    0 -0.26045518410E+02 -0.62926550827E+02 -0.28110379157E+03  0.30040268443E+03  0.81143769644E+02 0.  0.
          5    1    3    3  501    0  0.23118214777E+02 -0.14208808424E+02 -0.32955824171E+03  0.33070691975E+03  0.47000000000E+01 0. -1.
        -11    1    4    4    0    0 -0.36260627204E+02  0.32853751079E+02 -0.20261615470E+03  0.20844065868E+03  0.00000000000E+00 0.  1.
         12    1    4    4    0    0 -0.19098184180E+02  0.25408093997E+02 -0.11808449085E+02  0.33907983563E+02  0.00000000000E+00 0. -1.
         -5    1    5    5    0  502  0.58286115017E+02  0.18873514176E+02 -0.62165582404E+02  0.87407839332E+02  0.47000000000E+01 0.  1.
         13    1    6    6    0    0 -0.45174979438E+02 -0.18829629800E+02 -0.81269278485E+02  0.94868484499E+02  0.00000000000E+00 0. -1.
        -14    1    6    6    0    0  0.19129461028E+02 -0.44096921027E+02 -0.19983451308E+03  0.20553419993E+03  0.00000000000E+00 0.  1.
</event>
<event>
12    1  0.8271773E-002  0.3086955E+03  0.7818608E-02  0.1080985E+00
         21   -1    0    0  501  502  0.00000000000E+00  0.00000000000E+00  0.40931816214E+03  0.40931816214E+03  0.00000000000E+00 0.  1.
         21   -1    0    0  502  503 -0.00000000000E+00 -0.00000000000E+00 -0.28197273559E+03  0.28197273559E+03  0.00000000000E+00 0. -1.
         -6    2    1    2    0  503 -0.21988848828E+03 -0.13048711393E+03 -0.80758870296E+02  0.31908448813E+03  0.17295976773E+03 0.  0.
        -24    2    3    3    0    0 -0.21550751716E+03 -0.12000143325E+03 -0.20379792802E+02  0.25746577826E+03  0.70918665268E+02 0.  0.
          6    2    1    2  501    0  0.21988848828E+03  0.13048711393E+03  0.20810429685E+03  0.37220640960E+03  0.17277840953E+03 0.  0.
         24    2    5    5    0    0  0.21348853368E+03  0.14794996111E+03  0.21987998135E+03  0.34969714049E+03  0.80463276484E+02 0.  0.
          5    1    5    5  501    0  0.63999546047E+01 -0.17462847177E+02 -0.11775684504E+02  0.22509269113E+02  0.47000000000E+01 0. -1.
        -13    1    6    6    0    0  0.75962773648E+02  0.89499012008E+02  0.63761284404E+02  0.13358861299E+03  0.00000000000E+00 0.  1.
         14    1    6    6    0    0  0.13752576003E+03  0.58450949100E+02  0.15611869695E+03  0.21610852750E+03  0.00000000000E+00 0. -1.
         -5    1    3    3    0  503 -0.43809711175E+01 -0.10485680679E+02 -0.60379077493E+02  0.61618709871E+02  0.47000000000E+01 0.  1.
         11    1    4    4    0    0 -0.18118619090E+03 -0.70145483292E+02 -0.23306342800E+01  0.19430454564E+03  0.00000000000E+00 0. -1.
        -12    1    4    4    0    0 -0.34321326262E+02 -0.49855949960E+02 -0.18049158522E+02  0.63161232621E+02  0.00000000000E+00 0.  1.
</event>
<event>
12    1  0.8271773E-002  0.2636767E+03  0.7818608E-02  0.1105007E+00
         21   -1    0    0  501  502  0.00000000000E+00  0.00000000000E+00  0.38649506900E+03  0.38649506900E+03  0.00000000000E+00 0.  1.
         21   -1    0    0  502  503 -0.00000000000E+00 -0.00000000000E+00 -0.20544199086E+03  0.20544199086E+03  0.00000000000E+00 0.  1.
         -6    2    1    2    0  503 -0.41809671357E+02  0.19492876919E+03 -0.14299056643E+02  0.26406414097E+03  0.17256921466E+03 0.  0.
        -24    2    3    3    0    0  0.37760181124E+01  0.25009004051E+02 -0.11857413882E+02  0.88056092037E+02  0.83507894743E+02 0.  0.
          6    2    1    2  501    0  0.41809671357E+02 -0.19492876919E+03  0.19535213478E+03  0.32787291889E+03  0.17202593031E+03 0.  0.
         24    2    5    5    0    0  0.76646213189E+01 -0.25363728551E+02  0.97605738909E+02  0.12914034643E+03  0.80301205860E+02 0.  0.
          5    1    5    5  501    0  0.34145050038E+02 -0.16956504064E+03  0.97746395872E+02  0.19873257246E+03  0.47000000000E+01 0. -1.
        -11    1    6    6    0    0 -0.16780941114E+02 -0.34051879278E+02  0.95900413863E+02  0.10314077684E+03  0.00000000000E+00 0.  1.
         12    1    6    6    0    0  0.24445562432E+02  0.86881507276E+01  0.17053250462E+01  0.25999569597E+02  0.00000000000E+00 0. -1.
         -5    1    3    3    0  503 -0.45585689470E+02  0.16991976514E+03 -0.24416427617E+01  0.17600804893E+03  0.47000000000E+01 0.  1.
         11    1    4    4    0    0  0.41112460420E+02  0.35221621720E+01 -0.17089072153E+02  0.44661800403E+02  0.00000000000E+00 0. -1.
        -12    1    4    4    0    0 -0.37336442308E+02  0.21486841879E+02  0.52316582717E+01  0.43394291634E+02  0.00000000000E+00 0.  1.
</event>
<event>
12    1  0.8271773E-002  0.2592131E+03  0.7818608E-02  0.1107638E+00
         21   -1    0    0  501  502  0.00000000000E+00  0.00000000000E+00  0.15314791542E+04  0.15314791542E+04  0.00000000000E+00 0.  1.
         21   -1    0    0  502  503 -0.00000000000E+00 -0.00000000000E+00 -0.43985346240E+02  0.43985346240E+02  0.00000000000E+00 0.  1.
         -6    2    1    2    0  503 -0.12060021216E+03  0.14990790703E+03  0.69978844532E+03  0.74620507996E+03  0.17349743914E+03 0.  0.
        -24    2    3    3    0    0 -0.13428527673E+03  0.85956841643E+02  0.38173386704E+03  0.42146237485E+03  0.80552305955E+02 0.  0.
          6    2    1    2  501    0  0.12060021216E+03 -0.14990790703E+03  0.78770536264E+03  0.82925942049E+03  0.17370853855E+03 0.  0.
         24    2    5    5    0    0  0.14507108208E+03 -0.11424981812E+03  0.72793389147E+03  0.75533350118E+03  0.80884534111E+02 0.  0.
          5    1    5    5  501    0 -0.24470869913E+02 -0.35658088914E+02  0.59771471178E+02  0.73925919312E+02  0.47000000000E+01 0. -1.
        -13    1    6    6    0    0  0.10398656487E+03 -0.67912162545E+02  0.32977471257E+03  0.35238704367E+03  0.00000000000E+00 0.  1.
         14    1    6    6    0    0  0.41084517206E+02 -0.46337655572E+02  0.39815917890E+03  0.40294645751E+03  0.00000000000E+00 0. -1.
         -5    1    3    3    0  503  0.13685064571E+02  0.63951065387E+02  0.31805457828E+03  0.32474270511E+03  0.47000000000E+01 0.  1.
         11    1    4    4    0    0 -0.42450598799E+02  0.10698766577E+02  0.38592991891E+02  0.58360397255E+02  0.00000000000E+00 0. -1.
        -12    1    4    4    0    0 -0.91834677935E+02  0.75258075066E+02  0.34314087515E+03  0.36310197759E+03  0.00000000000E+00 0.  1.
</event>
<event>
12    1  0.8271773E-002  0.1983339E+03  0.7818608E-02  0.1151314E+00
         21   -1    0    0  503  502  0.00000000000E+00  0.00000000000E+00  0.29594730137E+03  0.29594730137E+03  0.00000000000E+00 0.  1.
         21   -1    0    0  501  503 -0.00000000000E+00 -0.00000000000E+00 -0.20020279582E+03  0.20020279582E+03  0.00000000000E+00 0.  1.
          6    2    1    2  501    0 -0.86177109141E+02 -0.42953692681E+02 -0.96425239862E+02  0.22053156044E+03  0.17339212327E+03 0.  0.
         24    2    3    3    0    0 -0.77474232310E+01 -0.63312883345E+02 -0.92930577723E+02  0.13929108445E+03  0.81837461876E+02 0.  0.
         -6    2    1    2    0  502  0.86177109141E+02  0.42953692681E+02  0.19216974541E+03  0.27561853675E+03  0.17252493411E+03 0.  0.
        -24    2    5    5    0    0  0.10105057805E+03  0.39074576430E+02  0.69311768151E+02  0.15171357237E+03  0.80466421498E+02 0.  0.
          5    1    3    3  501    0 -0.78429685910E+02  0.20359190665E+02 -0.34946621394E+01  0.81240475995E+02  0.47000000000E+01 0. -1.
        -13    1    4    4    0    0  0.24581361454E+01  0.15924816971E+02 -0.40874519284E+02  0.43935959709E+02  0.00000000000E+00 0.  1.
         14    1    4    4    0    0 -0.10205559376E+02 -0.79237700316E+02 -0.52056058439E+02  0.95355124738E+02  0.00000000000E+00 0. -1.
         -5    1    5    5    0  502 -0.14873468911E+02  0.38791162503E+01  0.12285797726E+03  0.12390496438E+03  0.47000000000E+01 0.  1.
         13    1    6    6    0    0  0.52160638004E+01 -0.84139473479E+01 -0.13292150184E+02  0.16573565943E+02  0.00000000000E+00 0. -1.
        -14    1    6    6    0    0  0.95834514252E+02  0.47488523778E+02  0.82603918335E+02  0.13514000643E+03  0.00000000000E+00 0.  1.
</event>
<event>
12    1  0.8271773E-002  0.1903065E+03  0.7818608E-02  0.1158486E+00
         21   -1    0    0  503  502  0.00000000000E+00  0.00000000000E+00  0.58085414859E+03  0.58085414859E+03  0.00000000000E+00 0.  1.
         21   -1    0    0  501  503 -0.00000000000E+00 -0.00000000000E+00 -0.15779810607E+03  0.15779810607E+03  0.00000000000E+00 0. -1.
          6    2    1    2  501    0 -0.49618310152E+02 -0.58250554886E+02 -0.76654588352E+02  0.20393055672E+03  0.17279074686E+03 0.  0.
         24    2    3    3    0    0  0.34907665608E+02 -0.42817400147E+02 -0.65979502190E+02  0.11721913701E+03  0.79593696346E+02 0.  0.
         -6    2    1    2    0  502  0.49618310152E+02  0.58250554886E+02  0.49971063087E+03  0.53472169795E+03  0.17424544702E+03 0.  0.
        -24    2    5    5    0    0  0.49674878940E+02  0.62873073905E+02  0.16852420041E+03  0.20346966007E+03  0.81110291721E+02 0.  0.
          5    1    3    3  501    0 -0.84525975760E+02 -0.15433154740E+02 -0.10675086162E+02  0.86711419709E+02  0.47000000000E+01 0. -1.
        -13    1    4    4    0    0 -0.25596604985E+02 -0.17362279343E+02 -0.25626790221E+02  0.40166743804E+02  0.00000000000E+00 0.  1.
         14    1    4    4    0    0  0.60504270593E+02 -0.25455120803E+02 -0.40352711969E+02  0.77052393203E+02  0.00000000000E+00 0. -1.
         -5    1    5    5    0  502 -0.56568787560E-01 -0.46225190190E+01  0.33118643046E+03  0.33125203788E+03  0.47000000000E+01 0.  1.
         11    1    6    6    0    0 -0.12320286578E+02  0.34012533831E+02  0.23518446574E+02  0.43148108281E+02  0.00000000000E+00 0. -1.
        -12    1    6    6    0    0  0.61995165517E+02  0.28860540075E+02  0.14500575384E+03  0.16032155179E+03  0.00000000000E+00 0.  1.
</event>
<event>
12    1  0.8271773E-002  0.1898290E+03  0.7818608E-02  0.1158928E+00
         21   -1    0    0  501  502  0.00000000000E+00  0.00000000000E+00  0.27670762785E+03  0.27670762785E+03  0.00000000000E+00 0. -1.
         21   -1    0    0  502  503 -0.00000000000E+00 -0.00000000000E+00 -0.13280817620E+03  0.13280817620E+03  0.00000000000E+00 0.  1.
         -6    2    1    2    0  503  0.53387970654E+02  0.56321984583E+02  0.38335203320E+02  0.19230884725E+03  0.17172845880E+03 0.  0.
        -24    2    3    3    0    0 -0.17584001911E+00  0.66079165646E+02  0.73830967435E+02  0.12714502549E+03  0.79676588176E+02 0.  0.
          6    2    1    2  501    0 -0.53387970654E+02 -0.56321984583E+02  0.10556424834E+03  0.21720695680E+03  0.17324147944E+03 0.  0.
         24    2    5    5    0    0 -0.80591424173E+02 -0.72265658529E+02  0.34177450762E+02  0.13902515911E+03  0.80265768990E+02 0.  0.
          5    1    5    5  501    0  0.27203453519E+02  0.15943673946E+02  0.71386797575E+02  0.78181797692E+02  0.47000000000E+01 0. -1.
        -13    1    6    6    0    0 -0.49656128212E+02 -0.12452133167E+02 -0.17542411028E+02  0.54115828313E+02  0.00000000000E+00 0.  1.
         14    1    6    6    0    0 -0.30935295961E+02 -0.59813525361E+02  0.51719861790E+02  0.84909330794E+02  0.00000000000E+00 0. -1.
         -5    1    3    3    0  503  0.53563810673E+02 -0.97571810638E+01 -0.35495764115E+02  0.65163821759E+02  0.47000000000E+01 0.  1.
         13    1    4    4    0    0 -0.23172429587E+02 -0.10712045530E+01  0.44817859046E+02  0.50465329303E+02  0.00000000000E+00 0. -1.
        -14    1    4    4    0    0  0.22996589567E+02  0.67150370199E+02  0.29013108389E+02  0.76679696191E+02  0.00000000000E+00 0.  1.
</event>
<event>
12    1  0.8271773E-002  0.2955243E+03  0.7818608E-02  0.1087643E+00
         21   -1    0    0  503  502  0.00000000000E+00  0.00000000000E+00  0.26370458316E+03  0.26370458316E+03  0.00000000000E+00 0.  1.
         21   -1    0    0  501  503 -0.00000000000E+00 -0.00000000000E+00 -0.13293324359E+04  0.13293324359E+04  0.00000000000E+00 0. -1.
          6    2    1    2  501    0 -0.49614598162E+02  0.23382339365E+03 -0.12231990178E+04  0.12581291660E+04  0.17186673131E+03 0.  0.
         24    2    3    3    0    0 -0.56086911562E+02  0.78944961733E+02 -0.33867462829E+03  0.36011206971E+03  0.74847513491E+02 0.  0.
         -6    2    1    2    0  502  0.49614598162E+02 -0.23382339365E+03  0.15757116510E+03  0.33490785306E+03  0.17378035045E+03 0.  0.
        -24    2    5    5    0    0 -0.12525432769E+01 -0.51658993291E+02  0.10052362787E+02  0.95001158964E+02  0.79081917999E+02 0.  0.
          5    1    3    3  501    0  0.64723133997E+01  0.15487843192E+03 -0.88452438952E+03  0.89801709626E+03  0.47000000000E+01 0. -1.
        -11    1    4    4    0    0 -0.12556381379E+02  0.42936233840E+02 -0.55140723257E+02  0.71004804422E+02  0.00000000000E+00 0.  1.
         12    1    4    4    0    0 -0.43530530183E+02  0.36008727894E+02 -0.28353390503E+03  0.28910726529E+03  0.00000000000E+00 0. -1.
         -5    1    5    5    0  502  0.50867141439E+02 -0.18216440036E+03  0.14751880231E+03  0.23990669409E+03  0.47000000000E+01 0.  1.
         13    1    6    6    0    0 -0.31863328983E+02 -0.26948590116E+02 -0.19240578768E+02  0.45953216585E+02  0.00000000000E+00 0. -1.
        -14    1    6    6    0    0  0.30610785707E+02 -0.24710403176E+02  0.29292941556E+02  0.49047942380E+02  0.00000000000E+00 0.  1.
</event>
<event>
12    1  0.8271773E-002  0.1928123E+03  0.7818608E-02  0.1156051E+00
         21   -1    0    0  503  502  0.00000000000E+00  0.00000000000E+00  0.32968501152E+03  0.32968501152E+03  0.00000000000E+00 0.  1.
         21   -1    0    0  501  503 -0.00000000000E+00 -0.00000000000E+00 -0.11308968204E+03  0.11308968204E+03  0.00000000000E+00 0. -1.
          6    2    1    2  501    0 -0.25981438672E+02  0.82846596263E+02  0.92112871994E+02  0.21326986117E+03  0.17164107559E+03 0.  0.
         24    2    3    3    0    0  0.20209887157E+02  0.59976077903E+02  0.11775344426E+03  0.15550976995E+03  0.79447123633E+02 0.  0.
         -6    2    1    2    0  502  0.25981438672E+02 -0.82846596263E+02  0.12448245749E+03  0.22950483239E+03  0.17215688252E+03 0.  0.
        -24    2    5    5    0    0 -0.27489730593E+02 -0.46729241458E+02  0.58077103126E+01  0.94340432943E+02  0.76987534662E+02 0.  0.
          5    1    3    3  501    0 -0.46191325829E+02  0.22870518360E+02 -0.25640572269E+02  0.57760091224E+02  0.47000000000E+01 0. -1.
        -11    1    4    4    0    0 -0.36484746983E+01  0.59072456116E+02  0.11757785968E+03  0.13163365651E+03  0.00000000000E+00 0.  1.
         12    1    4    4    0    0  0.23858361855E+02  0.90362178702E+00  0.17558457914E+00  0.23876113434E+02  0.00000000000E+00 0. -1.
         -5    1    5    5    0  502  0.53471169265E+02 -0.36117354805E+02  0.11867474718E+03  0.13516439945E+03  0.47000000000E+01 0.  1.
         11    1    6    6    0    0 -0.31192016013E+02 -0.66731218440E+02  0.22912500937E+01  0.73696995899E+02  0.00000000000E+00 0. -1.
        -12    1    6    6    0    0  0.37022854204E+01  0.20001976982E+02  0.35164602189E+01  0.20643437044E+02  0.00000000000E+00 0.  1.
</event>
<event>
12    1  0.8271773E-002  0.3538495E+03  0.7818608E-02  0.1061379E+00
         21   -1    0    0  503  502  0.00000000000E+00  0.00000000000E+00  0.64282304119E+03  0.64282304119E+03  0.00000000000E+00 0. -1.
         21   -1    0    0  501  503 -0.00000000000E+00 -0.00000000000E+00 -0.57162311475E+03  0.57162311475E+03  0.00000000000E+00 0. -1.
          6    2    1    2  501    0 -0.17789233443E+03 -0.24821578758E+03 -0.45865710955E+03  0.57729785187E+03  0.17219089925E+03 0.  0.
         24    2    3    3    0    0 -0.30780446612E+02 -0.11724762871E+03 -0.25548330771E+03  0.29428504311E+03  0.81470999394E+02 0.  0.
         -6    2    1    2    0  502  0.17789233443E+03  0.24821578758E+03  0.52985703598E+03  0.63714830407E+03  0.17875324598E+03 0.  0.
        -24    2    5    5    0    0  0.16241250430E+03  0.21778568853E+03  0.53210086362E+03  0.60261222393E+03  0.78751099548E+02 0.  0.
          5    1    3    3  501    0 -0.14711188782E+03 -0.13096815887E+03 -0.20317380183E+03  0.28301280877E+03  0.47000000000E+01 0. -1.
        -13    1    4    4    0    0  0.42878267806E+01  0.10469579088E+02 -0.37987756669E+02  0.39636690093E+02  0.00000000000E+00 0.  1.
         14    1    4    4    0    0 -0.35068273393E+02 -0.12771720780E+03 -0.21749555105E+03  0.25464835301E+03  0.00000000000E+00 0. -1.
         -5    1    5    5    0  502  0.15479830130E+02  0.30430099050E+02 -0.22438276414E+01  0.34536080141E+02  0.47000000000E+01 0.  1.
         11    1    6    6    0    0  0.22015775659E+02  0.90607064740E+02  0.16546529798E+03  0.18992919574E+03  0.00000000000E+00 0. -1.
        -12    1    6    6    0    0  0.14039672864E+03  0.12717862379E+03  0.36663556564E+03  0.41268302819E+03  0.00000000000E+00 0.  1.
</event>
<event>
12    1  0.8271773E-002  0.2809060E+03  0.7818608E-02  0.1095429E+00
         21   -1    0    0  503  502  0.00000000000E+00  0.00000000000E+00  0.18142036732E+03  0.18142036732E+03  0.00000000000E+00 0. -1.
         21   -1    0    0  501  503 -0.00000000000E+00 -0.00000000000E+00 -0.50633314713E+03  0.50633314713E+03  0.00000000000E+00 0. -1.
          6    2    1    2  501    0 -0.21740728851E+03  0.37242601966E+02 -0.29352845075E+03  0.40509975506E+03  0.17115466590E+03 0.  0.
         24    2    3    3    0    0 -0.95213319770E+02  0.27360081418E+02 -0.61606522012E+02  0.14272806979E+03  0.82230092018E+02 0.  0.
         -6    2    1    2    0  502  0.21740728851E+03 -0.37242601966E+02 -0.31384329062E+02  0.28265375939E+03  0.17394030898E+03 0.  0.
        -24    2    5    5    0    0  0.14942420053E+03 -0.80982873413E+02 -0.59488851800E+02  0.19693989939E+03  0.79753263216E+02 0.  0.
          5    1    3    3  501    0 -0.12219396874E+03  0.98825205472E+01 -0.23192192873E+03  0.26237168528E+03  0.47000000000E+01 0. -1.
        -11    1    4    4    0    0 -0.32048356298E+02 -0.24873645701E+02 -0.63600496557E+00  0.40573388991E+02  0.00000000000E+00 0.  1.
         12    1    4    4    0    0 -0.63164963472E+02  0.52233727120E+02 -0.60970517047E+02  0.10215468079E+03  0.00000000000E+00 0. -1.
         -5    1    5    5    0  502  0.67983087975E+02  0.43740271447E+02  0.28104522738E+02  0.85713859995E+02  0.47000000000E+01 0.  1.
         11    1    6    6    0    0  0.56976870875E+02 -0.66700375716E+02 -0.32317340422E+01  0.87782390263E+02  0.00000000000E+00 0. -1.
        -12    1    6    6    0    0  0.92447329656E+02 -0.14282497697E+02 -0.56257117758E+02  0.10915750913E+03  0.00000000000E+00 0.  1.
</event>
<event>
12    1  0.8271773E-002  0.1789476E+03  0.7818608E-02  0.1169128E+00
         21   -1    0    0  503  502  0.00000000000E+00  0.00000000000E+00  0.16352865933E+03  0.16352865933E+03  0.00000000000E+00 0. -1.
         21   -1    0    0  501  503 -0.00000000000E+00 -0.00000000000E+00 -0.20588225981E+03  0.20588225981E+03  0.00000000000E+00 0. -1.
          6    2    1    2  501    0 -0.46206415045E+02  0.73150651852E+01  0.22381263045E+02  0.17911419263E+03  0.17144220629E+03 0.  0.
         24    2    3    3    0    0  0.75782253326E+01 -0.10450397072E+02  0.69972599433E+02  0.10498306227E+03  0.77192217185E+02 0.  0.
         -6    2    1    2    0  502  0.46206415045E+02 -0.73150651852E+01 -0.64734863525E+02  0.19029672650E+03  0.17272434279E+03 0.  0.
        -24    2    5    5    0    0  0.47342617075E+02 -0.96411650536E+01  0.72568042090E+01  0.11810537024E+03  0.10752647031E+03 0.  0.
          5    1    3    3  501    0 -0.53784640378E+02  0.17765462258E+02 -0.47591336388E+02  0.74131130364E+02  0.47000000000E+01 0. -1.
        -13    1    4    4    0    0  0.40643279813E+02 -0.14202471570E+02  0.27743336014E+02  0.51217956674E+02  0.00000000000E+00 0.  1.
         14    1    4    4    0    0 -0.33065054480E+02  0.37520744973E+01  0.42229263419E+02  0.53765105596E+02  0.00000000000E+00 0. -1.
         -5    1    5    5    0  502 -0.11362020299E+01  0.23260998684E+01 -0.71991667734E+02  0.72191356261E+02  0.47000000000E+01 0.  1.
         13    1    6    6    0    0  0.27295310199E+01  0.34653593204E+02  0.35053482418E+02  0.49366673892E+02  0.00000000000E+00 0. -1.
        -14    1    6    6    0    0  0.44613086055E+02 -0.44294758258E+02 -0.27796678209E+02  0.68738696350E+02  0.00000000000E+00 0.  1.
</event>
<event>
12    1  0.8271773E-002  0.2141058E+03  0.7818608E-02  0.1139041E+00
         21   -1    0    0  503  502  0.00000000000E+00  0.00000000000E+00  0.12695434466E+04  0.12695434466E+04  0.00000000000E+00 0. -1.
         21   -1    0    0  501  503 -0.00000000000E+00 -0.00000000000E+00 -0.38500246826E+02  0.38500246826E+02  0.00000000000E+00 0.  1.
          6    2    1    2  501    0  0.11570339693E+03  0.44046521956E+02  0.79285491464E+03  0.82034472310E+03  0.17035015964E+03 0.  0.
         24    2    3    3    0    0  0.25525925249E+02  0.62905371256E+02  0.55810757660E+03  0.56812252877E+03  0.81673019072E+02 0.  0.
         -6    2    1    2    0  502 -0.11570339693E+03 -0.44046521956E+02  0.43818828510E+03  0.48769897030E+03  0.17468239829E+03 0.  0.
        -24    2    5    5    0    0  0.54042334555E+01 -0.71372653291E+00  0.22881370481E+03  0.24192550923E+03  0.78374264647E+02 0.  0.
          5    1    3    3  501    0  0.90177471677E+02 -0.18858849300E+02  0.23474733804E+03  0.25222219433E+03  0.47000000000E+01 0. -1.
        -11    1    4    4    0    0 -0.13412135511E+02  0.32980554193E+02  0.80813233039E+02  0.88308442224E+02  0.00000000000E+00 0.  1.
         12    1    4    4    0    0  0.38938060760E+02  0.29924817063E+02  0.47729434356E+03  0.47981408654E+03  0.00000000000E+00 0. -1.
         -5    1    5    5    0  502 -0.12110763038E+03 -0.43332795423E+02  0.20937458029E+03  0.24577346107E+03  0.47000000000E+01 0.  1.
         11    1    6    6    0    0  0.24651244067E+01  0.30256497676E+02  0.18888259483E+03  0.19130647433E+03  0.00000000000E+00 0. -1.
        -12    1    6    6    0    0  0.29391090488E+01 -0.30970224209E+02  0.39931109985E+02  0.50619034900E+02  0.00000000000E+00 0.  1.
</event>
<event>
12    1  0.8271773E-002  0.1929777E+03  0.7818608E-02  0.1155981E+00
         21   -1    0    0  503  502  0.00000000000E+00  0.00000000000E+00  0.62006605344E+02  0.62006605344E+02  0.00000000000E+00 0.  1.
         21   -1    0    0  501  503 -0.00000000000E+00 -0.00000000000E+00 -0.73997651434E+03  0.73997651434E+03  0.00000000000E+00 0. -1.
          6    2    1    2  501    0 -0.70972965949E+02  0.50799043248E+02 -0.51400263733E+03  0.54875264570E+03  0.17121054376E+03 0.  0.
         24    2    3    3    0    0 -0.63742891221E+02 -0.25949030669E+02 -0.20495786329E+03  0.23020390031E+03  0.79054421890E+02 0.  0.
         -6    2    1    2    0  502  0.70972965949E+02 -0.50799043248E+02 -0.16396727167E+03  0.25323047398E+03  0.17211246929E+03 0.  0.
        -24    2    5    5    0    0  0.22932959013E+02 -0.79827545702E+02 -0.15960126612E+03  0.19673579967E+03  0.79586764382E+02 0.  0.
          5    1    3    3  501    0 -0.72300747277E+01  0.76748073917E+02 -0.30904477404E+03  0.31854874539E+03  0.47000000000E+01 0. -1.
        -13    1    4    4    0    0 -0.23657861808E+01  0.78473419067E+00  0.72604965848E+01  0.76764290306E+01  0.00000000000E+00 0.  1.
         14    1    4    4    0    0 -0.61377105041E+02 -0.26733764860E+02 -0.21221835987E+03  0.22252747128E+03  0.00000000000E+00 0. -1.
         -5    1    5    5    0  502  0.48040006936E+02  0.29028502454E+02 -0.43660055565E+01  0.56494674313E+02  0.47000000000E+01 0.  1.
         13    1    6    6    0    0  0.28402183015E+02 -0.23024880996E+02 -0.12445717298E+03  0.12971667993E+03  0.00000000000E+00 0. -1.
        -14    1    6    6    0    0 -0.54692240020E+01 -0.56802664706E+02 -0.35144093132E+02  0.67019119742E+02  0.00000000000E+00 0.  1.
</event>
<event>
12    1  0.8271773E-002  0.1900810E+03  0.7818608E-02  0.1158389E+00
         21   -1    0    0  501  502  0.00000000000E+00  0.00000000000E+00  0.52253540470E+03  0.52253540470E+03  0.00000000000E+00 0. -1.
         21   -1    0    0  502  503 -0.00000000000E+00 -0.00000000000E+00 -0.96335042831E+02  0.96335042831E+02  0.00000000000E+00 0. -1.
         -6    2    1    2    0  503  0.67588863241E+02  0.43843277440E+02  0.48704789801E+02  0.19622166292E+03  0.17216357640E+03 0.  0.
        -24    2    3    3    0    0  0.87595130226E+02 -0.14112508421E+02 -0.10234568440E+01  0.11713871692E+03  0.76474582741E+02 0.  0.
          6    2    1    2  501    0 -0.67588863241E+02 -0.43843277440E+02  0.37749557207E+03  0.42264878461E+03  0.17215865006E+03 0.  0.
         24    2    5    5    0    0 -0.19602632595E+02 -0.81878904363E+02  0.25216112622E+03  0.28307729553E+03  0.97257922477E+02 0.  0.
          5    1    5    5  501    0 -0.47986230646E+02  0.38035626923E+02  0.12533444585E+03  0.13957148908E+03  0.47000000000E+01 0. -1.
        -11    1    6    6    0    0 -0.20716649123E+02  0.98445676821E+01  0.12018126862E+03  0.12235044909E+03  0.00000000000E+00 0.  1.
         12    1    6    6    0    0  0.11140165277E+01 -0.91723472045E+02  0.13197985759E+03  0.16072684644E+03  0.00000000000E+00 0. -1.
         -5    1    3    3    0  503 -0.20006266985E+02  0.57955785861E+02  0.49728246645E+02  0.79082945999E+02  0.47000000000E+01 0.  1.
         11    1    4    4    0    0  0.84812982643E+02 -0.35177989421E+02  0.11401505412E+02  0.92524198403E+02  0.00000000000E+00 0. -1.
        -12    1    4    4    0    0  0.27821475829E+01  0.21065481000E+02 -0.12424962256E+02  0.24614518520E+02  0.00000000000E+00 0.  1.
</event>
<event>
12    1  0.8271773E-002  0.1831682E+03  0.7818608E-02  0.1165015E+00
         21   -1    0    0  501  502  0.00000000000E+00  0.00000000000E+00  0.92574326752E+03  0.92574326752E+03  0.00000000000E+00 0. -1.
         21   -1    0    0  502  503 -0.00000000000E+00 -0.00000000000E+00 -0.19565030630E+03  0.19565030630E+03  0.00000000000E+00 0. -1.
         -6    2    1    2    0  503 -0.22874083609E+01 -0.64085937789E+02 -0.14157134929E+03  0.23069201886E+03  0.17048202535E+03 0.  0.
        -24    2    3    3    0    0 -0.23352330317E+02 -0.35842567538E+02 -0.45510932667E+01  0.89136166066E+02  0.78067423885E+02 0.  0.
          6    2    1    2  501    0  0.22874083609E+01  0.64085937789E+02  0.87166431051E+03  0.89070155496E+03  0.17157607679E+03 0.  0.
         24    2    5    5    0    0 -0.51256542133E+02  0.52921718683E+02  0.36463918927E+03  0.38071316490E+03  0.80949577873E+02 0.  0.
          5    1    5    5  501    0  0.53543950494E+02  0.11164219106E+02  0.50702512124E+03  0.50998839006E+03  0.47000000000E+01 0. -1.
        -13    1    6    6    0    0  0.89233894249E+01  0.25336254402E+02  0.33095410950E+02  0.42624627763E+02  0.00000000000E+00 0.  1.
         14    1    6    6    0    0 -0.60179931558E+02  0.27585464281E+02  0.33154377832E+03  0.33808853714E+03  0.00000000000E+00 0. -1.
         -5    1    3    3    0  503  0.21064921956E+02 -0.28243370252E+02 -0.13702025602E+03  0.14155585280E+03  0.47000000000E+01 0.  1.
         11    1    4    4    0    0 -0.33401321488E+02 -0.26082785688E+02 -0.35423710920E+02  0.55234040969E+02  0.00000000000E+00 0. -1.
        -12    1    4    4    0    0  0.10048991171E+02 -0.97597818499E+01  0.30872617654E+02  0.33902125097E+02  0.00000000000E+00 0.  1.
</event>
<event>
12    1  0.8271773E-002  0.2066753E+03  0.7818608E-02  0.1144241E+00
         21   -1    0    0  501  502  0.00000000000E+00  0.00000000000E+00  0.28059577611E+03  0.28059577611E+03  0.00000000000E+00 0.  1.
         21   -1    0    0  502  503 -0.00000000000E+00 -0.00000000000E+00 -0.24535286477E+03  0.24535286477E+03  0.00000000000E+00 0. -1.
         -6    2    1    2    0  503  0.10350180578E+03  0.50669748845E+02 -0.14444054063E+03  0.25208588680E+03  0.17147646281E+03 0.  0.
        -24    2    3    3    0    0 -0.61284691121E+01  0.43740511495E+02 -0.88137741526E+02  0.12855893957E+03  0.82512720132E+02 0.  0.
          6    2    1    2  501    0 -0.10350180578E+03 -0.50669748845E+02  0.17968345197E+03  0.27386275408E+03  0.17156520018E+03 0.  0.
         24    2    5    5    0    0 -0.12001005797E+03 -0.45861410559E+02  0.76224007545E+02  0.16887899749E+03  0.78767591531E+02 0.  0.
          5    1    5    5  501    0  0.16508252183E+02 -0.48083382857E+01  0.10345944442E+03  0.10498375659E+03  0.47000000000E+01 0. -1.
        -11    1    6    6    0    0 -0.11264610399E+03 -0.93834828652E+01  0.62855602237E+02  0.12933685178E+03  0.00000000000E+00 0.  1.
         12    1    6    6    0    0 -0.73639539732E+01 -0.36477927694E+02  0.13368405308E+02  0.39542145711E+02  0.00000000000E+00 0. -1.
         -5    1    3    3    0  503  0.10963027490E+03  0.69292373500E+01 -0.56302799109E+02  0.12352694723E+03  0.47000000000E+01 0.  1.
         11    1    4    4    0    0 -0.79592786048E+01 -0.16573208351E+02 -0.58520881761E+02  0.61340972874E+02  0.00000000000E+00 0. -1.
        -12    1    4    4    0    0  0.18308094927E+01  0.60313719845E+02 -0.29616859765E+02  0.67217966700E+02  0.00000000000E+00 0.  1.
</event>
<event>
12    1  0.8271773E-002  0.2849905E+03  0.7818608E-02  0.1094259E+00
         21   -1    0    0  501  502  0.00000000000E+00  0.00000000000E+00  0.19549217795E+03  0.19549217795E+03  0.00000000000E+00 0.  1.
         21   -1    0    0  502  503 -0.00000000000E+00 -0.00000000000E+00 -0.40687718663E+03  0.40687718663E+03  0.00000000000E+00 0.  1.
         -6    2    1    2    0  503 -0.56829682731E+02  0.20951524705E+03 -0.14039929158E+03  0.31769727075E+03  0.18464382788E+03 0.  0.
        -24    2    3    3    0    0  0.11403132073E+02  0.42123334277E+02 -0.95033239200E+02  0.13126782514E+03  0.79344304480E+02 0.  0.
          6    2    1    2  501    0  0.56829682731E+02 -0.20951524705E+03 -0.70985717093E+02  0.28467209383E+03  0.16992050314E+03 0.  0.
         24    2    5    5    0    0  0.73038875228E+02 -0.18791845749E+03 -0.10065006983E+02  0.21786953279E+03  0.81962216871E+02 0.  0.
          5    1    5    5  501    0 -0.16209192496E+02 -0.21596789568E+02 -0.60920710110E+02  0.66802561039E+02  0.47000000000E+01 0. -1.
        -11    1    6    6    0    0  0.49915708096E+01 -0.93460137337E+02 -0.32951715230E+02  0.99224636995E+02  0.00000000000E+00 0.  1.
         12    1    6    6    0    0  0.68047304418E+02 -0.94458320150E+02  0.22886708247E+02  0.11864489580E+03  0.00000000000E+00 0. -1.
         -5    1    3    3    0  503 -0.68232814804E+02  0.16739191278E+03 -0.45366052384E+02  0.18642944560E+03  0.47000000000E+01 0.  1.
         11    1    4    4    0    0 -0.35953819895E+01  0.10092091076E+02  0.13432202999E+02  0.17181418782E+02  0.00000000000E+00 0. -1.
        -12    1    4    4    0    0  0.14998514062E+02  0.32031243201E+02 -0.10846544220E+03  0.11408640636E+03  0.00000000000E+00 0.  1.
</event>
<event>
12    1  0.8271773E-002  0.2033306E+03  0.7818608E-02  0.1147233E+00
         21   -1    0    0  501  502  0.00000000000E+00  0.00000000000E+00  0.30240002811E+03  0.30240002811E+03  0.00000000000E+00 0. -1.
         21   -1    0    0  502  503 -0.00000000000E+00 -0.00000000000E+00 -0.33746938587E+03  0.33746938587E+03  0.00000000000E+00 0. -1.
         -6    2    1    2    0  503  0.89801459363E+02 -0.59971082503E+02 -0.26481489551E+03  0.33306926691E+03  0.17072602272E+03 0.  0.
        -24    2    3    3    0    0  0.14292838765E+02 -0.74969062145E+02 -0.21326333367E+03  0.24029995783E+03  0.80238237315E+02 0.  0.
          6    2    1    2  501    0 -0.89801459363E+02  0.59971082503E+02  0.22974553774E+03  0.30680014707E+03  0.17228605658E+03 0.  0.
         24    2    5    5    0    0 -0.13072849870E+03  0.49365660819E+02  0.17298893179E+03  0.23587131064E+03  0.78633299689E+02 0.  0.
          5    1    5    5  501    0  0.40927039341E+02  0.10605421684E+02  0.56756605953E+02  0.70928836432E+02  0.47000000000E+01 0. -1.
        -11    1    6    6    0    0 -0.57417570721E+02  0.62842244061E+02  0.10301667213E+03  0.13363517427E+03  0.00000000000E+00 0.  1.
         12    1    6    6    0    0 -0.73310927983E+02 -0.13476583242E+02  0.69972259661E+02  0.10223613637E+03  0.00000000000E+00 0. -1.
         -5    1    3    3    0  503  0.75508620598E+02  0.14997979642E+02 -0.51551561841E+02  0.92769309075E+02  0.47000000000E+01 0.  1.
         13    1    4    4    0    0  0.33008833977E+02 -0.29408498496E+02 -0.16690286762E+03  0.17265865204E+03  0.00000000000E+00 0. -1.
        -14    1    4    4    0    0 -0.18715995212E+02 -0.45560563650E+02 -0.46360466045E+02  0.67641305788E+02  0.00000000000E+00 0.  1.
</event>
<event>
12    1  0.8271773E-002  0.1780960E+03  0.7818608E-02  0.1170162E+00
         21   -1    0    0  503  502  0.00000000000E+00  0.00000000000E+00  0.35079139604E+03  0.35079139604E+03  0.00000000000E+00 0. -1.
         21   -1    0    0  501  503 -0.00000000000E+00 -0.00000000000E+00 -0.90568861824E+02  0.90568861824E+02  0.00000000000E+00 0. -1.
          6    2    1    2  501    0 -0.15659409095E+02 -0.35606652946E+02  0.10564190054E+03  0.20707101222E+03  0.17379626614E+03 0.  0.
         24    2    3    3    0    0  0.17392915425E+02  0.40531702037E+02  0.70037189308E+02  0.11663158101E+03  0.82172899582E+02 0.  0.
         -6    2    1    2    0  502  0.15659409095E+02  0.35606652946E+02  0.15458063368E+03  0.23428924565E+03  0.17170680677E+03 0.  0.
        -24    2    5    5    0    0 -0.40386384563E+02  0.31121178721E+02  0.33251807539E+02  0.10048332456E+03  0.79947657793E+02 0.  0.
          5    1    3    3  501    0 -0.33052324520E+02 -0.76138354982E+02  0.35604711230E+02  0.90439431209E+02  0.47000000000E+01 0. -1.
        -11    1    4    4    0    0 -0.21378064682E+02  0.36182059594E+02  0.71561279112E+01  0.42630660946E+02  0.00000000000E+00 0.  1.
         12    1    4    4    0    0  0.38770980107E+02  0.43496424423E+01  0.62881061397E+02  0.74000920064E+02  0.00000000000E+00 0. -1.
         -5    1    5    5    0  502  0.56045793659E+02  0.44854742254E+01  0.12132882614E+03  0.13380592109E+03  0.47000000000E+01 0.  1.
         13    1    6    6    0    0  0.24266914396E+02  0.97557193025E+01  0.43604661500E+01  0.26515483372E+02  0.00000000000E+00 0. -1.
        -14    1    6    6    0    0 -0.64653298959E+02  0.21365459418E+02  0.28891341389E+02  0.73967841186E+02  0.00000000000E+00 0.  1.
</event>
<event>
12    1  0.8271773E-002  0.1863856E+03  0.7818608E-02  0.1161873E+00
         21   -1    0    0  503  502  0.00000000000E+00  0.00000000000E+00  0.45385401643E+02  0.45385401643E+02  0.00000000000E+00 0.  1.
         21   -1    0    0  501  503 -0.00000000000E+00 -0.00000000000E+00 -0.27917745271E+04  0.27917745271E+04  0.00000000000E+00 0.  1.
          6    2    1    2  501    0  0.67930632596E+02 -0.26757270837E+02 -0.25818608736E+04  0.25885454862E+04  0.17097263253E+03 0.  0.
         24    2    3    3    0    0  0.11170655891E+03 -0.15022128033E+02 -0.21289939372E+04  0.21333921083E+04  0.77734700049E+02 0.  0.
         -6    2    1    2    0  502 -0.67930632596E+02  0.26757270837E+02 -0.16452825186E+03  0.24861444256E+03  0.17149073736E+03 0.  0.
        -24    2    5    5    0    0 -0.64342078460E+02 -0.46410363706E+02 -0.89690528083E+02  0.14378527025E+03  0.79598920810E+02 0.  0.
          5    1    3    3  501    0 -0.43775926310E+02 -0.11735142804E+02 -0.45286693642E+03  0.45515337789E+03  0.47000000000E+01 0. -1.
        -13    1    4    4    0    0  0.92743053950E+02 -0.43647078874E+02 -0.16260574363E+04  0.16292848516E+04  0.00000000000E+00 0.  1.
         14    1    4    4    0    0  0.18963504957E+02  0.28624950841E+02 -0.50293650086E+03  0.50410725668E+03  0.00000000000E+00 0. -1.
         -5    1    5    5    0  502 -0.35885541357E+01  0.73167634543E+02 -0.74837723782E+02  0.10482917231E+03  0.47000000000E+01 0.  1.
         11    1    6    6    0    0 -0.51449560259E+02  0.78080195900E+01 -0.63809348714E+02  0.82338662875E+02  0.00000000000E+00 0. -1.
        -12    1    6    6    0    0 -0.12892518202E+02 -0.54218383296E+02 -0.25881179369E+02  0.61446607379E+02  0.00000000000E+00 0.  1.
</event>
<event>
12    1  0.8271773E-002  0.3140985E+03  0.7818608E-02  0.1078444E+00
         21   -1    0    0  503  502  0.00000000000E+00  0.00000000000E+00  0.24885785339E+04  0.24885785339E+04  0.00000000000E+00 0. -1.
         21   -1    0    0  501  503 -0.00000000000E+00 -0.00000000000E+00 -0.53906291359E+02  0.53906291359E+02  0.00000000000E+00 0.  1.
          6    2    1    2  501    0  0.24172501926E+03  0.10185085709E+03  0.18728895177E+04  0.18990452910E+04  0.17278104524E+03 0.  0.
         24    2    3    3    0    0  0.16209913714E+03  0.27237346660E+02  0.79671606986E+03  0.81734346658E+03  0.79220218826E+02 0.  0.
         -6    2    1    2    0  502 -0.24172501926E+03 -0.10185085709E+03  0.56178272481E+03  0.64343953426E+03  0.17207562969E+03 0.  0.
        -24    2    5    5    0    0 -0.48754366194E+02 -0.21127915370E+02  0.10949906105E+03  0.14510584207E+03  0.79008126183E+02 0.  0.
          5    1    3    3  501    0  0.79625882121E+02  0.74613510428E+02  0.10761734479E+04  0.10817018244E+04  0.47000000000E+01 0. -1.
        -13    1    4    4    0    0  0.41554211386E+02  0.24486591983E+02  0.10982093337E+03  0.11994575056E+03  0.00000000000E+00 0.  1.
         14    1    4    4    0    0  0.12054492576E+03  0.27507546765E+01  0.68689513649E+03  0.69739771602E+03  0.00000000000E+00 0. -1.
         -5    1    5    5    0  502 -0.19297065307E+03 -0.80722941718E+02  0.45228366376E+03  0.49833369219E+03  0.47000000000E+01 0.  1.
         11    1    6    6    0    0  0.80395623271E+01  0.20369754038E+02  0.43259519266E+02  0.48486569780E+02  0.00000000000E+00 0. -1.
        -12    1    6    6    0    0 -0.56793928521E+02 -0.41497669408E+02  0.66239541781E+02  0.96619272293E+02  0.00000000000E+00 0.  1.
</event>
<event>
12    1  0.8271773E-002  0.1981420E+03  0.7818608E-02  0.1153366E+00
         21   -1    0    0  501  502  0.00000000000E+00  0.00000000000E+00  0.37500744221E+03  0.37500744221E+03  0.00000000000E+00 0.  1.
         21   -1    0    0  502  503 -0.00000000000E+00 -0.00000000000E+00 -0.15749746492E+03  0.15749746492E+03  0.00000000000E+00 0.  1.
         -6    2    1    2    0  503  0.55628038864E+02 -0.57722044301E+02 -0.54025360681E+02  0.19636255903E+03  0.17091869963E+03 0.  0.
        -24    2    3    3    0    0  0.10253122942E+03 -0.55535805721E+02 -0.28739328424E+02  0.14282600749E+03  0.77307442686E+02 0.  0.
          6    2    1    2  501    0 -0.55628038864E+02  0.57722044301E+02  0.27153533797E+03  0.33614234811E+03  0.18120133918E+03 0.  0.
         24    2    5    5    0    0 -0.40561726984E+02 -0.37670357344E+02  0.99685040093E+02  0.13895888297E+03  0.79423890734E+02 0.  0.
          5    1    5    5  501    0 -0.15066311881E+02  0.95392401645E+02  0.17185029787E+03  0.19718346514E+03  0.47000000000E+01 0. -1.
        -11    1    6    6    0    0 -0.88590130806E+01 -0.20467918156E+02  0.10043538571E+03  0.10288189582E+03  0.00000000000E+00 0.  1.
         12    1    6    6    0    0 -0.31702713903E+02 -0.17202439189E+02 -0.75034561396E+00  0.36076987144E+02  0.00000000000E+00 0. -1.
         -5    1    3    3    0  503 -0.46903190551E+02 -0.21862385798E+01 -0.25286032257E+02  0.53536551536E+02  0.47000000000E+01 0.  1.
         13    1    4    4    0    0  0.47431274757E+02 -0.25242569349E+02  0.25787829328E+02  0.59598030788E+02  0.00000000000E+00 0. -1.
        -14    1    4    4    0    0  0.55099954659E+02 -0.30293236372E+02 -0.54527157752E+02  0.83227976702E+02  0.00000000000E+00 0.  1.
</event>
<event>
12    1  0.8271773E-002  0.2314157E+03  0.7818608E-02  0.1125734E+00
         21   -1    0    0  501  502  0.00000000000E+00  0.00000000000E+00  0.41620174749E+03  0.41620174749E+03  0.00000000000E+00 0. -1.
         21   -1    0    0  502  503 -0.00000000000E+00 -0.00000000000E+00 -0.21263168121E+03  0.21263168121E+03  0.00000000000E+00 0.  1.
         -6    2    1    2    0  503 -0.10951396359E+03  0.10922733222E+03 -0.96046056873E+02  0.25055556260E+03  0.17213171289E+03 0.  0.
        -24    2    3    3    0    0 -0.90355236897E+02  0.11463360373E+03 -0.15608552017E+02  0.16755817247E+03  0.80790979248E+02 0.  0.
          6    2    1    2  501    0  0.10951396359E+03 -0.10922733222E+03  0.29961612315E+03  0.37827786610E+03  0.17146546126E+03 0.  0.
         24    2    5    5    0    0  0.71647010652E+01 -0.86271338180E+02  0.20470923896E+03  0.23674428044E+03  0.81534686329E+02 0.  0.
          5    1    5    5  501    0  0.10234926253E+03 -0.22955994036E+02  0.94906884194E+02  0.14153358566E+03  0.47000000000E+01 0. -1.
        -11    1    6    6    0    0 -0.24837815340E+02 -0.52167099309E+02  0.54514204727E+02  0.79436275329E+02  0.00000000000E+00 0.  1.
         12    1    6    6    0    0  0.32002516405E+02 -0.34104238872E+02  0.15019503423E+03  0.15730800511E+03  0.00000000000E+00 0. -1.
         -5    1    3    3    0  503 -0.19158726694E+02 -0.54062715130E+01 -0.80437504856E+02  0.82997390125E+02  0.47000000000E+01 0.  1.
         11    1    4    4    0    0 -0.73796273316E+02  0.11725107468E+03 -0.34020588323E+02  0.14265729879E+03  0.00000000000E+00 0. -1.
        -12    1    4    4    0    0 -0.16558963582E+02 -0.26174709528E+01  0.18412036306E+02  0.24900873679E+02  0.00000000000E+00 0.  1.
</event>
<event>
12    1  0.8271773E-002  0.1814490E+03  0.7818608E-02  0.1168693E+00
         21   -1    0    0  501  502  0.00000000000E+00  0.00000000000E+00  0.17169326781E+03  0.17169326781E+03  0.00000000000E+00 0. -1.
         21   -1    0    0  502  503 -0.00000000000E+00 -0.00000000000E+00 -0.43177062242E+03  0.43177062242E+03  0.00000000000E+00 0. -1.
         -6    2    1    2    0  503 -0.54331182905E+02 -0.55142630690E+01 -0.35802172933E+03  0.39726779951E+03  0.16327847784E+03 0.  0.
        -24    2    3    3    0    0 -0.33081890303E+02 -0.12285744468E+02 -0.36352745103E+03  0.37382023316E+03  0.79649281755E+02 0.  0.
          6    2    1    2  501    0  0.54331182905E+02  0.55142630690E+01  0.97944374715E+02  0.20619609073E+03  0.17303595800E+03 0.  0.
         24    2    5    5    0    0  0.28963691185E+00  0.34363774760E+02 -0.36233715289E+01  0.87491077794E+02  0.80377900987E+02 0.  0.
          5    1    5    5  501    0  0.54041545994E+02 -0.28849511691E+02  0.10156774624E+03  0.11870501293E+03  0.47000000000E+01 0. -1.
        -13    1    6    6    0    0  0.31773188452E+01  0.59060673108E+02  0.86271251591E+01  0.59771947864E+02  0.00000000000E+00 0.  1.
         14    1    6    6    0    0 -0.28876819334E+01 -0.24696898348E+02 -0.12250496688E+02  0.27719129930E+02  0.00000000000E+00 0. -1.
         -5    1    3    3    0  503 -0.21249292602E+02  0.67714813993E+01  0.55057217023E+01  0.23447566353E+02  0.47000000000E+01 0.  1.
         13    1    4    4    0    0 -0.56104300773E+02  0.70523771275E+01 -0.21755292947E+03  0.22478146211E+03  0.00000000000E+00 0. -1.
        -14    1    4    4    0    0  0.23022410469E+02 -0.19338121596E+02 -0.14597452156E+03  0.14903877105E+03  0.00000000000E+00 0.  1.
</event>
<event>
12    1  0.8271773E-002  0.2234053E+03  0.7818608E-02  0.1131636E+00
         21   -1    0    0  501  502  0.00000000000E+00  0.00000000000E+00  0.52095267185E+02  0.52095267185E+02  0.00000000000E+00 0.  1.
         21   -1    0    0  502  503 -0.00000000000E+00 -0.00000000000E+00 -0.16731701211E+04  0.16731701211E+04  0.00000000000E+00 0. -1.
         -6    2    1    2    0  503 -0.13857634771E+03  0.25076491825E+02 -0.13784471206E+04  0.13964334574E+04  0.17342924199E+03 0.  0.
        -24    2    3    3    0    0 -0.52403233802E+02 -0.15233669477E+02 -0.10495160200E+04  0.10539886099E+04  0.80186967808E+02 0.  0.
          6    2    1    2  501    0  0.13857634771E+03 -0.25076491825E+02 -0.24262773332E+03  0.32883193092E+03  0.17155170425E+03 0.  0.
         24    2    5    5    0    0  0.13518567953E+03 -0.60114920283E+02 -0.23866154844E+03  0.29309667212E+03  0.84008052660E+02 0.  0.
          5    1    5    5  501    0  0.33906681807E+01  0.35038428458E+02 -0.39661848828E+01  0.35735258808E+02  0.47000000000E+01 0. -1.
        -13    1    6    6    0    0  0.10770455987E+03 -0.21621513653E+02 -0.10763639644E+03  0.15379647560E+03  0.00000000000E+00 0.  1.
         14    1    6    6    0    0  0.27481119657E+02 -0.38493406631E+02 -0.13102515200E+03  0.13930019651E+03  0.00000000000E+00 0. -1.
         -5    1    3    3    0  503 -0.86173113908E+02  0.40310161303E+02 -0.32893110056E+03  0.34244484750E+03  0.47000000000E+01 0.  1.
         13    1    4    4    0    0 -0.57414741507E+02  0.18988587229E+02 -0.76294847075E+03  0.76534135391E+03  0.00000000000E+00 0. -1.
        -14    1    4    4    0    0  0.50115077051E+01 -0.34222256706E+02 -0.28656754930E+03  0.28864725596E+03  0.00000000000E+00 0.  1.
</event>
<event>
12    1  0.8271773E-002  0.2166853E+03  0.7818608E-02  0.1136438E+00
         21   -1    0    0  503  502  0.00000000000E+00  0.00000000000E+00  0.19363836201E+03  0.19363836201E+03  0.00000000000E+00 0. -1.
         21   -1    0    0  501  503 -0.00000000000E+00 -0.00000000000E+00 -0.32692485116E+03  0.32692485116E+03  0.00000000000E+00 0. -1.
          6    2    1    2  501    0 -0.35102297170E+02  0.12623969667E+03 -0.19916923768E+03  0.29408354198E+03  0.17218627165E+03 0.  0.
         24    2    3    3    0    0  0.35357671736E+02  0.28389944820E+02 -0.10022561591E+03  0.13803511538E+03  0.83380843580E+02 0.  0.
         -6    2    1    2    0  502  0.35102297170E+02 -0.12623969667E+03  0.65882748531E+02  0.22647967120E+03  0.17258004702E+03 0.  0.
        -24    2    5    5    0    0  0.59566927205E+02 -0.12565771929E+03  0.47238130130E+01  0.16043906086E+03  0.79876758852E+02 0.  0.
          5    1    3    3  501    0 -0.70459968906E+02  0.97849751851E+02 -0.98943621764E+02  0.15604842660E+03  0.47000000000E+01 0. -1.
        -11    1    4    4    0    0  0.18389473599E+02 -0.26005093403E+02 -0.14252137501E+02  0.34893567394E+02  0.00000000000E+00 0.  1.
         12    1    4    4    0    0  0.16968198137E+02  0.54395038223E+02 -0.85973478413E+02  0.10314154799E+03  0.00000000000E+00 0. -1.
         -5    1    5    5    0  502 -0.24464630035E+02 -0.58197738058E+00  0.61158935518E+02  0.66040610340E+02  0.47000000000E+01 0.  1.
         13    1    6    6    0    0  0.63389253996E+02 -0.49467816155E+02  0.19494982681E+02  0.82736429142E+02  0.00000000000E+00 0. -1.
        -14    1    6    6    0    0 -0.38223267909E+01 -0.76189903136E+02 -0.14771169668E+02  0.77702631714E+02  0.00000000000E+00 0.  1.
</event>
<event>
12    1  0.8271773E-002  0.1799149E+03  0.7818608E-02  0.1168481E+00
         21   -1    0    0  503  502  0.00000000000E+00  0.00000000000E+00  0.56435034580E+02  0.56435034580E+02  0.00000000000E+00 0. -1.
         21   -1    0    0  501  503 -0.00000000000E+00 -0.00000000000E+00 -0.58280616379E+03  0.58280616379E+03  0.00000000000E+00 0. -1.
          6    2    1    2  501    0  0.39312554103E+02  0.20185152852E+02 -0.20685797535E+03  0.27255600794E+03  0.17188262913E+03 0.  0.
         24    2    3    3    0    0  0.52555384725E+00  0.67594786461E+02 -0.16843935984E+03  0.20009784922E+03  0.84249628824E+02 0.  0.
         -6    2    1    2    0  502 -0.39312554103E+02 -0.20185152852E+02 -0.31951315386E+03  0.36668519042E+03  0.17440314240E+03 0.  0.
        -24    2    5    5    0    0 -0.65959932644E+02  0.86192563303E+01 -0.30898937150E+03  0.32578755276E+03  0.78981602538E+02 0.  0.
          5    1    3    3  501    0  0.38787000256E+02 -0.47409633609E+02 -0.38418615510E+02  0.72458158723E+02  0.47000000000E+01 0. -1.
        -13    1    4    4    0    0  0.20671111282E+02  0.18537270246E+02 -0.13403997550E+03  0.13688550055E+03  0.00000000000E+00 0.  1.
         14    1    4    4    0    0 -0.20145557435E+02  0.49057516214E+02 -0.34399384341E+02  0.63212348671E+02  0.00000000000E+00 0. -1.
         -5    1    5    5    0  502  0.26647378541E+02 -0.28804409182E+02 -0.10523782363E+02  0.40897637666E+02  0.47000000000E+01 0.  1.
         11    1    6    6    0    0 -0.68454222562E+02 -0.11488422070E+02 -0.14731666071E+03  0.16285012420E+03  0.00000000000E+00 0. -1.
        -12    1    6    6    0    0  0.24942899180E+01  0.20107678400E+02 -0.16167271078E+03  0.16293742856E+03  0.00000000000E+00 0.  1.
</event>
<event>
12    1  0.8271773E-002  0.1783159E+03  0.7818608E-02  0.1169547E+00
         21   -1    0    0  501  502  0.00000000000E+00  0.00000000000E+00  0.29667683759E+03  0.29667683759E+03  0.00000000000E+00 0.  1.
         21   -1    0    0  502  503 -0.00000000000E+00 -0.00000000000E+00 -0.10706960796E+03  0.10706960796E+03  0.00000000000E+00 0.  1.
         -6    2    1    2    0  503  0.17015999660E+02  0.44211968268E+02  0.10220251170E+03  0.20516112617E+03  0.17146863243E+03 0.  0.
        -24    2    3    3    0    0  0.39106064883E+02  0.31500030649E+02 -0.71663215381E+01  0.92763634982E+02  0.77667236137E+02 0.  0.
          6    2    1    2  501    0 -0.17015999660E+02 -0.44211968268E+02  0.87404717932E+02  0.19858531939E+03  0.17190782989E+03 0.  0.
         24    2    5    5    0    0  0.46746712902E+01  0.19375304861E+02  0.10130686904E+03  0.12981623974E+03  0.78688750116E+02 0.  0.
          5    1    5    5  501    0 -0.21690670950E+02 -0.63587273130E+02 -0.13902151109E+02  0.68769079649E+02  0.47000000000E+01 0. -1.
        -13    1    6    6    0    0 -0.31405498777E+00 -0.27939662957E+02  0.16158262484E+02  0.32277125696E+02  0.00000000000E+00 0.  1.
         14    1    6    6    0    0  0.49887262779E+01  0.47314967819E+02  0.85148606557E+02  0.97539114042E+02  0.00000000000E+00 0. -1.
         -5    1    3    3    0  503 -0.22090065223E+02  0.12711937619E+02  0.10936883324E+03  0.11239749118E+03  0.47000000000E+01 0.  1.
         11    1    4    4    0    0  0.28158019431E+02 -0.22617435038E+02  0.42998790554E+01  0.36371848810E+02  0.00000000000E+00 0. -1.
        -12    1    4    4    0    0  0.10948045452E+02  0.54117465687E+02 -0.11466200594E+02  0.56391786172E+02  0.00000000000E+00 0.  1.
</event>
<event>
12    1  0.8271773E-002  0.2084025E+03  0.7818608E-02  0.1143243E+00
         21   -1    0    0  501  502  0.00000000000E+00  0.00000000000E+00  0.53207023900E+03  0.53207023900E+03  0.00000000000E+00 0. -1.
         21   -1    0    0  502  503 -0.00000000000E+00 -0.00000000000E+00 -0.86649111574E+02  0.86649111574E+02  0.00000000000E+00 0. -1.
         -6    2    1    2    0  503  0.88892837441E+02  0.72887662855E+02  0.30382901044E+03  0.36843405398E+03  0.17383048238E+03 0.  0.
        -24    2    3    3    0    0  0.79713129508E+02 -0.13597113401E+02  0.21997375984E+03  0.24753047002E+03  0.79648063770E+02 0.  0.
          6    2    1    2  501    0 -0.88892837441E+02 -0.72887662855E+02  0.14159211699E+03  0.25028529659E+03  0.17140552544E+03 0.  0.
         24    2    5    5    0    0 -0.11441303044E+03 -0.63789327814E+02  0.60199652304E+02  0.16437322958E+03  0.78962906405E+02 0.  0.
          5    1    5    5  501    0  0.25520192997E+02 -0.90983350405E+01  0.81392464685E+02  0.85912067014E+02  0.47000000000E+01 0. -1.
        -13    1    6    6    0    0 -0.62022025504E+02 -0.21306392374E+02 -0.10776058444E+02  0.66459141126E+02  0.00000000000E+00 0.  1.
         14    1    6    6    0    0 -0.52391004934E+02 -0.42482935440E+02  0.70975710747E+02  0.97914088454E+02  0.00000000000E+00 0. -1.
         -5    1    3    3    0  503  0.91797079330E+01  0.86484776255E+02  0.83855250598E+02  0.12090358396E+03  0.47000000000E+01 0.  1.
         13    1    4    4    0    0  0.53912535629E+02  0.13546348590E+02  0.54413067569E+02  0.77787190336E+02  0.00000000000E+00 0. -1.
        -14    1    4    4    0    0  0.25800593879E+02 -0.27143461990E+02  0.16556069227E+03  0.16974327969E+03  0.00000000000E+00 0.  1.
</event>
<event>
12    1  0.8271773E-002  0.2662680E+03  0.7818608E-02  0.1104477E+00
         21   -1    0    0  503  502  0.00000000000E+00  0.00000000000E+00  0.56468072693E+03  0.56468072693E+03  0.00000000000E+00 0. -1.
         21   -1    0    0  501  503 -0.00000000000E+00 -0.00000000000E+00 -0.12905091997E+03  0.12905091997E+03  0.00000000000E+00 0. -1.
          6    2    1    2  501    0 -0.15755429050E+03 -0.11624304907E+03  0.13544028006E+03  0.29246811650E+03  0.16987562744E+03 0.  0.
         24    2    3    3    0    0 -0.13882826572E+03 -0.95261276578E+02  0.16678481269E+03  0.25009514744E+03  0.79889992183E+02 0.  0.
         -6    2    1    2    0  502  0.15755429050E+03  0.11624304907E+03  0.30018952691E+03  0.40126353039E+03  0.18045184356E+03 0.  0.
        -24    2    5    5    0    0  0.13813875431E+03  0.27380222324E+02  0.24612746797E+03  0.29534676477E+03  0.82577169689E+02 0.  0.
          5    1    3    3  501    0 -0.18726024787E+02 -0.20981772491E+02 -0.31344532637E+02  0.42372969065E+02  0.47000000000E+01 0. -1.
        -13    1    4    4    0    0  0.29577479256E+01 -0.30213911660E-01  0.33013806420E+02  0.33146049539E+02  0.00000000000E+00 0.  1.
         14    1    4    4    0    0 -0.14178601364E+03 -0.95231062667E+02  0.13377100627E+03  0.21694909790E+03  0.00000000000E+00 0. -1.
         -5    1    5    5    0  502  0.19415536190E+02  0.88862826744E+02  0.54062058934E+02  0.10591676562E+03  0.47000000000E+01 0.  1.
         11    1    6    6    0    0  0.11591720619E+03  0.54549090580E+02  0.19043088449E+03  0.22951323217E+03  0.00000000000E+00 0. -1.
        -12    1    6    6    0    0  0.22221548124E+02 -0.27168868256E+02  0.55696583481E+02  0.65833532601E+02  0.00000000000E+00 0.  1.
</event>
<event>
12    1  0.8271773E-002  0.2132157E+03  0.7818608E-02  0.1139125E+00
         21   -1    0    0  501  502  0.00000000000E+00  0.00000000000E+00  0.85090533904E+02  0.85090533904E+02  0.00000000000E+00 0. -1.
         21   -1    0    0  502  503 -0.00000000000E+00 -0.00000000000E+00 -0.60441616208E+03  0.60441616208E+03  0.00000000000E+00 0. -1.
         -6    2    1    2    0  503  0.77426158679E+02  0.99184807197E+02 -0.37775814326E+03  0.43357252382E+03  0.17161434260E+03 0.  0.
        -24    2    3    3    0    0  0.11667935732E+03  0.57008990755E+02 -0.23951552885E+03  0.28373019491E+03  0.79189882503E+02 0.  0.
          6    2    1    2  501    0 -0.77426158679E+02 -0.99184807197E+02 -0.14156748492E+03  0.25593417217E+03  0.17212934575E+03 0.  0.
         24    2    5    5    0    0 -0.18970194578E+02 -0.45478470728E+02 -0.26982197570E+00  0.93796607521E+02  0.79809593386E+02 0.  0.
          5    1    5    5  501    0 -0.58455964101E+02 -0.53706336469E+02 -0.14129766294E+03  0.16213756464E+03  0.47000000000E+01 0. -1.
        -13    1    6    6    0    0 -0.17191169218E+01  0.18584241382E+02 -0.17140722581E+02  0.25340358351E+02  0.00000000000E+00 0.  1.
         14    1    6    6    0    0 -0.17251077656E+02 -0.64062712111E+02  0.16870900605E+02  0.68456249170E+02  0.00000000000E+00 0. -1.
         -5    1    3    3    0  503 -0.39253198637E+02  0.42175816442E+02 -0.13824261441E+03  0.14984232891E+03  0.47000000000E+01 0.  1.
         11    1    4    4    0    0  0.27089715231E+02  0.55628462375E+02 -0.11068209490E+03  0.12680262075E+03  0.00000000000E+00 0. -1.
        -12    1    4    4    0    0  0.89589642085E+02  0.13805283806E+01 -0.12883343395E+03  0.15692757416E+03  0.00000000000E+00 0.  1.
</event>
<event>
12    1  0.8271773E-002  0.3814201E+03  0.7818608E-02  0.1050505E+00
         21   -1    0    0  503  502  0.00000000000E+00  0.00000000000E+00  0.17388908782E+03  0.17388908782E+03  0.00000000000E+00 0. -1.
         21   -1    0    0  501  503 -0.00000000000E+00 -0.00000000000E+00 -0.83471348887E+03  0.83471348887E+03  0.00000000000E+00 0. -1.
          6    2    1    2  501    0 -0.68934998769E+02  0.33262555016E+03 -0.34091036232E+03  0.51156733489E+03  0.17346317281E+03 0.  0.
         24    2    3    3    0    0 -0.77358184303E+02  0.10152067092E+03 -0.13615090208E+03  0.20265158292E+03  0.78992788397E+02 0.  0.
         -6    2    1    2    0  502  0.68934998769E+02 -0.33262555016E+03 -0.31991403873E+03  0.49703524180E+03  0.17119360017E+03 0.  0.
        -24    2    5    5    0    0  0.38297713021E+02 -0.33711556301E+03 -0.28541759008E+03  0.45044234037E+03  0.79507758317E+02 0.  0.
          5    1    3    3  501    0  0.84231855341E+01  0.23110487924E+03 -0.20475946024E+03  0.30891575198E+03  0.47000000000E+01 0. -1.
        -11    1    4    4    0    0 -0.21815595817E+02 -0.73384009176E+01 -0.43773949206E+02  0.49456354273E+02  0.00000000000E+00 0.  1.
         12    1    4    4    0    0 -0.55542588486E+02  0.10885907183E+03 -0.92376952876E+02  0.15319522864E+03  0.00000000000E+00 0. -1.
         -5    1    5    5    0  502  0.30637285748E+02  0.44900128474E+01 -0.34496448649E+02  0.46592901421E+02  0.47000000000E+01 0.  1.
         11    1    6    6    0    0  0.51311669031E+02 -0.14870264641E+03 -0.10410546878E+03  0.18863539715E+03  0.00000000000E+00 0. -1.
        -12    1    6    6    0    0 -0.13013956010E+02 -0.18841291660E+03 -0.18131212130E+03  0.26180694322E+03  0.00000000000E+00 0.  1.
</event>
<event>
12    1  0.8271773E-002  0.2062880E+03  0.7818608E-02  0.1145044E+00
         21   -1    0    0  503  502  0.00000000000E+00  0.00000000000E+00  0.92252324085E+02  0.92252324085E+02  0.00000000000E+00 0. -1.
         21   -1    0    0  501  503 -0.00000000000E+00 -0.00000000000E+00 -0.58845594468E+03  0.58845594468E+03  0.00000000000E+00 0. -1.
          6    2    1    2  501    0 -0.11066211645E+03 -0.23475694964E+02 -0.41087654875E+03  0.45975460156E+03  0.17250374799E+03 0.  0.
         24    2    3    3    0    0 -0.97773665217E+02  0.45684457038E+02 -0.27910877927E+03  0.31030871210E+03  0.82115935843E+02 0.  0.
         -6    2    1    2    0  502  0.11066211645E+03  0.23475694964E+02 -0.85327071853E+02  0.22095366721E+03  0.16953643147E+03 0.  0.
        -24    2    5    5    0    0  0.84915639169E+02  0.29782895283E+02  0.10655138064E+02  0.12126747715E+03  0.80588972082E+02 0.  0.
          5    1    3    3  501    0 -0.12888451229E+02 -0.69160152002E+02 -0.13176776948E+03  0.14944588945E+03  0.47000000000E+01 0. -1.
        -11    1    4    4    0    0  0.83354563073E+00 -0.99965117207E+01 -0.10637160015E+01  0.10087444505E+02  0.00000000000E+00 0.  1.
         12    1    4    4    0    0 -0.98607210848E+02  0.55680968759E+02 -0.27804506327E+03  0.30022126760E+03  0.00000000000E+00 0. -1.
         -5    1    5    5    0  502  0.25746477277E+02 -0.63072003191E+01 -0.95982209917E+02  0.99686190060E+02  0.47000000000E+01 0.  1.
         11    1    6    6    0    0  0.56435940955E+02 -0.38788247283E+00 -0.29367124475E+02  0.63620703267E+02  0.00000000000E+00 0. -1.
        -12    1    6    6    0    0  0.28479698214E+02  0.30170777756E+02  0.40022262540E+02  0.57646773887E+02  0.00000000000E+00 0.  1.
</event>
<event>
12    1  0.8271773E-002  0.2544775E+03  0.7818608E-02  0.1110604E+00
         21   -1    0    0  501  502  0.00000000000E+00  0.00000000000E+00  0.61146880187E+03  0.61146880187E+03  0.00000000000E+00 0. -1.
         21   -1    0    0  502  503 -0.00000000000E+00 -0.00000000000E+00 -0.11574833788E+03  0.11574833788E+03  0.00000000000E+00 0.  1.
         -6    2    1    2    0  503 -0.11762827965E+03  0.14582604613E+03  0.14071837413E+03  0.29079282563E+03  0.17221253936E+03 0.  0.
        -24    2    3    3    0    0 -0.51849943979E+02  0.74658889532E+01  0.28296917231E+02  0.10071127337E+03  0.81227389901E+02 0.  0.
          6    2    1    2  501    0  0.11762827965E+03 -0.14582604613E+03  0.35500208986E+03  0.43642431412E+03  0.17128353757E+03 0.  0.
         24    2    5    5    0    0  0.11373578822E+03 -0.45387362322E+02  0.15909081835E+03  0.21618263550E+03  0.80182299970E+02 0.  0.
          5    1    5    5  501    0  0.38924914309E+01 -0.10043868381E+03  0.19591127151E+03  0.22024167862E+03  0.47000000000E+01 0. -1.
        -11    1    6    6    0    0  0.59090846666E+02  0.15045433094E+02  0.93312194804E+02  0.11146864544E+03  0.00000000000E+00 0.  1.
         12    1    6    6    0    0  0.54644941555E+02 -0.60432795416E+02  0.65778623542E+02  0.10471399006E+03  0.00000000000E+00 0. -1.
         -5    1    3    3    0  503 -0.65778335673E+02  0.13836015717E+03  0.11242145690E+03  0.19008155226E+03  0.47000000000E+01 0.  1.
         11    1    4    4    0    0 -0.19859923552E+02  0.10076997748E+02  0.54758076774E+02  0.59113529915E+02  0.00000000000E+00 0. -1.
        -12    1    4    4    0    0 -0.31990020427E+02 -0.26111087952E+01 -0.26461159543E+02  0.41597743453E+02  0.00000000000E+00 0.  1.
</event>
<event>
12    1  0.8271773E-002  0.1904195E+03  0.7818608E-02  0.1158142E+00
         21   -1    0    0  501  502  0.00000000000E+00  0.00000000000E+00  0.15532460629E+03  0.15532460629E+03  0.00000000000E+00 0. -1.
         21   -1    0    0  502  503 -0.00000000000E+00 -0.00000000000E+00 -0.40446685473E+03  0.40446685473E+03  0.00000000000E+00 0.  1.
         -6    2    1    2    0  503  0.70194348993E+02  0.42560569781E+02 -0.30669659767E+03  0.36086414041E+03  0.17152689608E+03 0.  0.
        -24    2    3    3    0    0  0.11337058187E+03  0.43937374474E+02 -0.25493293276E+03  0.29327975107E+03  0.78986267620E+02 0.  0.
          6    2    1    2  501    0 -0.70194348993E+02 -0.42560569781E+02  0.57554349231E+02  0.19892732061E+03  0.17181655054E+03 0.  0.
         24    2    5    5    0    0 -0.42925595910E+02 -0.64684291190E+02 -0.15943163768E+02  0.11733676748E+03  0.86527846504E+02 0.  0.
          5    1    5    5  501    0 -0.27268753084E+02  0.22123721409E+02  0.73497513000E+02  0.81590553135E+02  0.47000000000E+01 0. -1.
        -13    1    6    6    0    0 -0.59699908200E+02 -0.48972397603E+02  0.15132530948E+02  0.78685248039E+02  0.00000000000E+00 0.  1.
         14    1    6    6    0    0  0.16774312290E+02 -0.15711893588E+02 -0.31075694717E+02  0.38651519441E+02  0.00000000000E+00 0. -1.
         -5    1    3    3    0  503 -0.43176232879E+02 -0.13768046935E+01 -0.51763664910E+02  0.67584389334E+02  0.47000000000E+01 0.  1.
         11    1    4    4    0    0  0.35231942211E+02 -0.22727330006E+02 -0.83423233801E+02  0.93366253106E+02  0.00000000000E+00 0. -1.
        -12    1    4    4    0    0  0.78138639662E+02  0.66664704480E+02 -0.17150969896E+03  0.19991349797E+03  0.00000000000E+00 0.  1.
</event>
<event>
12    1  0.8271773E-002  0.2035115E+03  0.7818608E-02  0.1147001E+00
         21   -1    0    0  501  502  0.00000000000E+00  0.00000000000E+00  0.21585950160E+03  0.21585950160E+03  0.00000000000E+00 0.  1.
         21   -1    0    0  502  503 -0.00000000000E+00 -0.00000000000E+00 -0.54646159042E+03  0.54646159042E+03  0.00000000000E+00 0. -1.
         -6    2    1    2    0  503  0.10710240919E+03  0.12526021969E+02 -0.47284649248E+03  0.51478220752E+03  0.17259515765E+03 0.  0.
        -24    2    3    3    0    0 -0.76116956629E+01  0.39538934809E+02 -0.21690058844E+03  0.23296769563E+03  0.74878679658E+02 0.  0.
          6    2    1    2  501    0 -0.10710240919E+03 -0.12526021969E+02  0.14224440366E+03  0.24753888449E+03  0.17150568994E+03 0.  0.
         24    2    5    5    0    0 -0.13145432783E+03  0.15773696980E+02  0.14156642318E+03  0.20990326717E+03  0.80556064791E+02 0.  0.
          5    1    5    5  501    0  0.24351918642E+02 -0.28299718949E+02  0.67798048633E+00  0.37635617328E+02  0.47000000000E+01 0. -1.
        -11    1    6    6    0    0 -0.42630347045E+01  0.26385274182E+02  0.17774477254E+02  0.32098102751E+02  0.00000000000E+00 0.  1.
         12    1    6    6    0    0 -0.12719129312E+03 -0.10611577202E+02  0.12379194592E+03  0.17780516441E+03  0.00000000000E+00 0. -1.
         -5    1    3    3    0  503  0.11471410485E+03 -0.27012912841E+02 -0.25594590404E+03  0.28181451188E+03  0.47000000000E+01 0.  1.
         11    1    4    4    0    0  0.32023139513E+02  0.12650312844E+02 -0.63106527497E+02  0.71888425299E+02  0.00000000000E+00 0. -1.
        -12    1    4    4    0    0 -0.39634835176E+02  0.26888621965E+02 -0.15379406094E+03  0.16107927033E+03  0.00000000000E+00 0.  1.
</event>
<event>
12    1  0.8271773E-002  0.3379040E+03  0.7818608E-02  0.1068279E+00
         21   -1    0    0  503  502  0.00000000000E+00  0.00000000000E+00  0.20689073467E+03  0.20689073467E+03  0.00000000000E+00 0.  1.
         21   -1    0    0  501  503 -0.00000000000E+00 -0.00000000000E+00 -0.63320334353E+03  0.63320334353E+03  0.00000000000E+00 0. -1.
          6    2    1    2  501    0 -0.20808163242E+03 -0.19445236491E+03 -0.37015633569E+03  0.49755557606E+03  0.17156966645E+03 0.  0.
         24    2    3    3    0    0 -0.84706611817E+02 -0.18194291965E+02 -0.95270200798E+02  0.14845275289E+03  0.73861805658E+02 0.  0.
         -6    2    1    2    0  502  0.20808163242E+03  0.19445236491E+03 -0.56156273163E+02  0.34253850214E+03  0.18184996692E+03 0.  0.
        -24    2    5    5    0    0  0.22505206928E+03  0.13270718960E+03 -0.45449653531E+02  0.27744484573E+03  0.81549612857E+02 0.  0.
          5    1    3    3  501    0 -0.12337502060E+03 -0.17625807294E+03 -0.27488613489E+03  0.34910282317E+03  0.47000000000E+01 0. -1.
        -11    1    4    4    0    0 -0.37108282671E+02 -0.13054209147E+01  0.37256094269E+01  0.37317675868E+02  0.00000000000E+00 0.  1.
         12    1    4    4    0    0 -0.47598329146E+02 -0.16888871051E+02 -0.98995810224E+02  0.11113507702E+03  0.00000000000E+00 0. -1.
         -5    1    5    5    0  502 -0.16970436862E+02  0.61745175312E+02 -0.10706619633E+02  0.65093656415E+02  0.47000000000E+01 0.  1.
         13    1    6    6    0    0  0.25284340547E+02 -0.12546914923E+01  0.15017124333E+02  0.29434438178E+02  0.00000000000E+00 0. -1.
        -14    1    6    6    0    0  0.19976772873E+03  0.13396188109E+03 -0.60466777863E+02  0.24801040755E+03  0.00000000000E+00 0.  1.
</event>
<event>
12    1  0.8271773E-002  0.3177344E+03  0.7818608E-02  0.1076962E+00
         21   -1    0    0  503  502  0.00000000000E+00  0.00000000000E+00  0.13114790147E+04  0.13114790147E+04  0.00000000000E+00 0.  1.
         21   -1    0    0  501  503 -0.00000000000E+00 -0.00000000000E+00 -0.93915257029E+02  0.93915257029E+02  0.00000000000E+00 0. -1.
          6    2    1    2  501    0 -0.26524969691E+03 -0.32143004883E+02  0.30734003788E+03  0.44205546026E+03  0.17194346915E+03 0.  0.
         24    2    3    3    0    0 -0.22980925982E+03 -0.12833950102E+02  0.15400289092E+03  0.28342622331E+03  0.60303627341E+02 0.  0.
         -6    2    1    2    0  502  0.26524969691E+03  0.32143004883E+02  0.91022371980E+03  0.96333881149E+03  0.16770173269E+03 0.  0.
        -24    2    5    5    0    0  0.18574895381E+03  0.84565368558E+02  0.59884115581E+03  0.63768613834E+03  0.79868052053E+02 0.  0.
          5    1    3    3  501    0 -0.35440437091E+02 -0.19309054781E+02  0.15333714696E+03  0.15862923695E+03  0.47000000000E+01 0. -1.
        -11    1    4    4    0    0 -0.31791420116E+02  0.18881180451E+02  0.18056936318E+02  0.41149074321E+02  0.00000000000E+00 0.  1.
         12    1    4    4    0    0 -0.19801783971E+03 -0.31715130553E+02  0.13594595460E+03  0.24227714899E+03  0.00000000000E+00 0. -1.
         -5    1    5    5    0  502  0.79500743100E+02 -0.52422363675E+02  0.31138256399E+03  0.32565267314E+03  0.47000000000E+01 0.  1.
         13    1    6    6    0    0  0.43018400879E+01  0.14750886107E+02  0.11850587507E+03  0.11949785310E+03  0.00000000000E+00 0. -1.
        -14    1    6    6    0    0  0.18144711373E+03  0.69814482451E+02  0.48033528074E+03  0.51818828524E+03  0.00000000000E+00 0.  1.
</event>
<event>
12    1  0.8271773E-002  0.1878435E+03  0.7818608E-02  0.1161005E+00
         21   -1    0    0  501  502  0.00000000000E+00  0.00000000000E+00  0.21185812472E+03  0.21185812472E+03  0.00000000000E+00 0.  1.
         21   -1    0    0  502  503 -0.00000000000E+00 -0.00000000000E+00 -0.16448367429E+03  0.16448367429E+03  0.00000000000E+00 0.  1.
         -6    2    1    2    0  503  0.62193535020E+02  0.42144503772E+02  0.29952088841E+02  0.19021645995E+03  0.17216555698E+03 0.  0.
        -24    2    3    3    0    0 -0.14604996960E+02 -0.24680956636E+02  0.16408012244E+02  0.87409900408E+02  0.80924732108E+02 0.  0.
          6    2    1    2  501    0 -0.62193535020E+02 -0.42144503772E+02  0.17422361585E+02  0.18612533907E+03  0.16939571471E+03 0.  0.
         24    2    5    5    0    0 -0.90400426606E+02  0.18094650924E+02  0.39559905999E+02  0.11586478567E+03  0.57965583515E+02 0.  0.
          5    1    5    5  501    0  0.28206891586E+02 -0.60239154696E+02 -0.22137544413E+02  0.70260553400E+02  0.47000000000E+01 0. -1.
        -11    1    6    6    0    0 -0.59238350850E+02  0.11974067221E+02 -0.55573545581E+01  0.60691388903E+02  0.00000000000E+00 0.  1.
         12    1    6    6    0    0 -0.31162075756E+02  0.61205837032E+01  0.45117260557E+02  0.55173396764E+02  0.00000000000E+00 0. -1.
         -5    1    3    3    0  503  0.76798531981E+02  0.66825460409E+02  0.13544076598E+02  0.10280655954E+03  0.47000000000E+01 0.  1.
         13    1    4    4    0    0  0.27535274557E+02 -0.22219174941E+02 -0.11033167055E+02  0.37062296950E+02  0.00000000000E+00 0. -1.
        -14    1    4    4    0    0 -0.42140271517E+02 -0.24617816958E+01  0.27441179298E+02  0.50347603458E+02  0.00000000000E+00 0.  1.
</event>
<event>
12    1  0.8271773E-002  0.2064489E+03  0.7818608E-02  0.1144486E+00
         21   -1    0    0  503  502  0.00000000000E+00  0.00000000000E+00  0.20129307574E+04  0.20129307574E+04  0.00000000000E+00 0.  1.
         21   -1    0    0  501  503 -0.00000000000E+00 -0.00000000000E+00 -0.28010699252E+02  0.28010699252E+02  0.00000000000E+00 0.  1.
          6    2    1    2  501    0  0.73273519897E+02 -0.87014870325E+02  0.14973671936E+04  0.15114804452E+04  0.17182557226E+03 0.  0.
         24    2    3    3    0    0  0.10932224663E+03 -0.96125805124E+02  0.12963297030E+04  0.13069793878E+04  0.80826340236E+02 0.  0.
         -6    2    1    2    0  502 -0.73273519897E+02  0.87014870325E+02  0.48755286459E+03  0.52946101153E+03  0.17228049971E+03 0.  0.
        -24    2    5    5    0    0 -0.58030305025E+02  0.90100634020E+02  0.49461598268E+03  0.51174505334E+03  0.75844503772E+02 0.  0.
          5    1    3    3  501    0 -0.36048726731E+02  0.91109347990E+01  0.20103749058E+03  0.20450105734E+03  0.47000000000E+01 0. -1.
        -11    1    4    4    0    0  0.78084629141E+01 -0.36227235952E+02  0.56482281444E+03  0.56603727477E+03  0.00000000000E+00 0.  1.
         12    1    4    4    0    0  0.10151378371E+03 -0.59898569172E+02  0.73150688857E+03  0.74094211306E+03  0.00000000000E+00 0. -1.
         -5    1    5    5    0  502 -0.15243214872E+02 -0.30857636955E+01 -0.70631180839E+01  0.17715958181E+02  0.47000000000E+01 0.  1.
         13    1    6    6    0    0 -0.52045187857E+02  0.37030719523E+02  0.37957442069E+03  0.38491131006E+03  0.00000000000E+00 0. -1.
        -14    1    6    6    0    0 -0.59851171679E+01  0.53069914497E+02  0.11504156198E+03  0.12683374328E+03  0.00000000000E+00 0.  1.
</event>
<event>
12    1  0.8271773E-002  0.1842491E+03  0.7818608E-02  0.1165541E+00
         21   -1    0    0  503  502  0.00000000000E+00  0.00000000000E+00  0.26472401706E+03  0.26472401706E+03  0.00000000000E+00 0.  1.
         21   -1    0    0  501  503 -0.00000000000E+00 -0.00000000000E+00 -0.32363854923E+03  0.32363854923E+03  0.00000000000E+00 0.  1.
          6    2    1    2  501    0 -0.20674158774E+02 -0.34145966484E+02 -0.26123840322E+03  0.31967679324E+03  0.17987323579E+03 0.  0.
         24    2    3    3    0    0  0.38897871314E+02 -0.61767910166E+02 -0.10830776648E+03  0.15317854042E+03  0.80029830969E+02 0.  0.
         -6    2    1    2    0  502  0.20674158774E+02  0.34145966484E+02  0.20232387104E+03  0.26868577304E+03  0.17223161142E+03 0.  0.
        -24    2    5    5    0    0  0.57283739848E+02 -0.17361499040E+02  0.17097308417E+03  0.19798752505E+03  0.79902541046E+02 0.  0.
          5    1    3    3  501    0 -0.59572030088E+02  0.27621943682E+02 -0.15293063674E+03  0.16649825283E+03  0.47000000000E+01 0. -1.
        -11    1    4    4    0    0 -0.21296434611E+02 -0.10493678421E+02 -0.48622613116E+02  0.54109277580E+02  0.00000000000E+00 0.  1.
         12    1    4    4    0    0  0.60194305925E+02 -0.51274231745E+02 -0.59685153365E+02  0.99069262837E+02  0.00000000000E+00 0. -1.
         -5    1    5    5    0  502 -0.36609581074E+02  0.51507465524E+02  0.31350786873E+02  0.70698247989E+02  0.47000000000E+01 0.  1.
         13    1    6    6    0    0 -0.61131141447E+01  0.21271561689E+02  0.20368845936E+02  0.30078886050E+02  0.00000000000E+00 0. -1.
        -14    1    6    6    0    0  0.63396853992E+02 -0.38633060729E+02  0.15060423823E+03  0.16790863900E+03  0.00000000000E+00 0.  1.
</event>
<event>
12    1  0.8271773E-002  0.1802432E+03  0.7818608E-02  0.1168650E+00
         21   -1    0    0  501  502  0.00000000000E+00  0.00000000000E+00  0.84262034526E+02  0.84262034526E+02  0.00000000000E+00 0.  1.
         21   -1    0    0  502  503 -0.00000000000E+00 -0.00000000000E+00 -0.74810278116E+03  0.74810278116E+03  0.00000000000E+00 0.  1.
         -6    2    1    2    0  503 -0.58745839282E+01 -0.50764592794E+02 -0.62743851870E+03  0.65281444896E+03  0.17284691320E+03 0.  0.
        -24    2    3    3    0    0  0.18041983412E+02 -0.19913885073E+02 -0.59757473990E+03  0.60344134247E+03  0.79522374536E+02 0.  0.
          6    2    1    2  501    0  0.58745839282E+01  0.50764592794E+02 -0.36402227930E+02  0.17955036672E+03  0.16823096437E+03 0.  0.
         24    2    5    5    0    0 -0.38683869054E+02 -0.10644397454E+02 -0.58738924533E+02  0.10031945211E+03  0.70738859857E+02 0.  0.
          5    1    5    5  501    0  0.44558452982E+02  0.61408990248E+02  0.22336696604E+02  0.79230914614E+02  0.47000000000E+01 0. -1.
        -13    1    6    6    0    0  0.15130660548E+02 -0.47729302614E+01  0.50560768210E+01  0.16651776623E+02  0.00000000000E+00 0.  1.
         14    1    6    6    0    0 -0.53814529602E+02 -0.58714671927E+01 -0.63795001354E+02  0.83667675485E+02  0.00000000000E+00 0. -1.
         -5    1    3    3    0  503 -0.23916567340E+02 -0.30850707720E+02 -0.29863778803E+02  0.49373106491E+02  0.47000000000E+01 0.  1.
         11    1    4    4    0    0  0.35891100459E+02 -0.39069425022E+02 -0.29472175782E+03  0.29945868763E+03  0.00000000000E+00 0. -1.
        -12    1    4    4    0    0 -0.17849117047E+02  0.19155539948E+02 -0.30285298208E+03  0.30398265484E+03  0.00000000000E+00 0.  1.
</event>
<event>
12    1  0.8271773E-002  0.2345164E+03  0.7818608E-02  0.1123603E+00
         21   -1    0    0  501  502  0.00000000000E+00  0.00000000000E+00  0.40664215413E+02  0.40664215413E+02  0.00000000000E+00 0.  1.
         21   -1    0    0  502  503 -0.00000000000E+00 -0.00000000000E+00 -0.14324067083E+04  0.14324067083E+04  0.00000000000E+00 0. -1.
         -6    2    1    2    0  503 -0.32965283369E+02  0.15617147915E+03 -0.51903736783E+03  0.56955924321E+03  0.17181880429E+03 0.  0.
        -24    2    3    3    0    0 -0.25692447170E+02  0.16349636048E+03 -0.52472547804E+03  0.55687095607E+03  0.85891051183E+02 0.  0.
          6    2    1    2  501    0  0.32965283369E+02 -0.15617147915E+03 -0.87270512506E+03  0.90351168051E+03  0.17100549904E+03 0.  0.
         24    2    5    5    0    0 -0.39125717102E+02 -0.55295693764E+02 -0.32304483548E+03  0.34002116562E+03  0.81657772767E+02 0.  0.
          5    1    5    5  501    0  0.72091000471E+02 -0.10087578539E+03 -0.54966028959E+03  0.56349051489E+03  0.47000000000E+01 0. -1.
        -13    1    6    6    0    0 -0.46718984562E+01  0.19600862461E+02 -0.34739749520E+02  0.40160560767E+02  0.00000000000E+00 0.  1.
         14    1    6    6    0    0 -0.34453818646E+02 -0.74896556226E+02 -0.28830508596E+03  0.29986060485E+03  0.00000000000E+00 0. -1.
         -5    1    3    3    0  503 -0.72728361985E+01 -0.73248813232E+01  0.56881102112E+01  0.12688287140E+02  0.47000000000E+01 0.  1.
         11    1    4    4    0    0 -0.39202175644E+02  0.59078296392E+02 -0.12706494766E+03  0.14550792626E+03  0.00000000000E+00 0. -1.
        -12    1    4    4    0    0  0.13509728474E+02  0.10441806409E+03 -0.39766053038E+03  0.41136302981E+03  0.00000000000E+00 0.  1.
</event>
<event>
12    1  0.8271773E-002  0.2953790E+03  0.7818608E-02  0.1087598E+00
         21   -1    0    0  501  502  0.00000000000E+00  0.00000000000E+00  0.84195029940E+02  0.84195029940E+02  0.00000000000E+00 0. -1.
         21   -1    0    0  502  503 -0.00000000000E+00 -0.00000000000E+00 -0.13033093723E+04  0.13033093723E+04  0.00000000000E+00 0.  1.
         -6    2    1    2    0  503 -0.16889117476E+02  0.23925591209E+03 -0.92412541366E+03  0.97018377460E+03  0.17239530897E+03 0.  0.
        -24    2    3    3    0    0  0.19287580145E+02  0.39812473376E+02 -0.23974788912E+03  0.25640430950E+03  0.79417100224E+02 0.  0.
          6    2    1    2  501    0  0.16889117476E+02 -0.23925591209E+03 -0.29498892868E+03  0.41732062762E+03  0.17207383425E+03 0.  0.
         24    2    5    5    0    0  0.40363215321E+02 -0.10637502968E+03 -0.22815823254E+03  0.26666607533E+03  0.78165085339E+02 0.  0.
          5    1    5    5  501    0 -0.23474097845E+02 -0.13288088241E+03 -0.66830696142E+02  0.15065455229E+03  0.47000000000E+01 0. -1.
        -11    1    6    6    0    0  0.46096215837E+02 -0.11671509920E+03 -0.19976459213E+03  0.23590923628E+03  0.00000000000E+00 0.  1.
         12    1    6    6    0    0 -0.57330005161E+01  0.10340069515E+02 -0.28393640411E+02  0.30756839049E+02  0.00000000000E+00 0. -1.
         -5    1    3    3    0  503 -0.36176697621E+02  0.19944343872E+03 -0.68437752455E+03  0.71377946510E+03  0.47000000000E+01 0.  1.
         13    1    4    4    0    0 -0.25827683405E+02 -0.14873259173E+01 -0.41200878415E+02  0.48649704528E+02  0.00000000000E+00 0. -1.
        -14    1    4    4    0    0  0.45115263551E+02  0.41299799293E+02 -0.19854701070E+03  0.20775460497E+03  0.00000000000E+00 0.  1.
</event>
<event>
12    1  0.8271773E-002  0.1941463E+03  0.7818608E-02  0.1155124E+00
         21   -1    0    0  501  502  0.00000000000E+00  0.00000000000E+00  0.12883504449E+03  0.12883504449E+03  0.00000000000E+00 0.  1.
         21   -1    0    0  502  503 -0.00000000000E+00 -0.00000000000E+00 -0.35414978119E+03  0.35414978119E+03  0.00000000000E+00 0.  1.
         -6    2    1    2    0  503  0.47536252050E+02 -0.69140474044E+02 -0.21491761126E+03  0.28856028394E+03  0.17331288881E+03 0.  0.
        -24    2    3    3    0    0 -0.23554067419E+01  0.12312411727E+02 -0.43828696486E+02  0.92557077395E+02  0.80552557482E+02 0.  0.
          6    2    1    2  501    0 -0.47536252050E+02  0.69140474044E+02 -0.10397125436E+02  0.19442454173E+03  0.17507913011E+03 0.  0.
         24    2    5    5    0    0 -0.13923400475E+02  0.10834266141E+03  0.18677887502E+02  0.13497639910E+03  0.77056936542E+02 0.  0.
          5    1    5    5  501    0 -0.33612851574E+02 -0.39202187366E+02 -0.29075012938E+02  0.59448142634E+02  0.47000000000E+01 0. -1.
        -11    1    6    6    0    0 -0.90649000874E+01 -0.12677944409E+01  0.23431067123E+02  0.25155409416E+02  0.00000000000E+00 0.  1.
         12    1    6    6    0    0 -0.48585003881E+01  0.10961045585E+03 -0.47531796211E+01  0.10982098968E+03  0.00000000000E+00 0. -1.
         -5    1    3    3    0  503  0.49891658792E+02 -0.81452885771E+02 -0.17108891478E+03  0.19600320655E+03  0.47000000000E+01 0.  1.
         13    1    4    4    0    0  0.24480185196E+02  0.37387763937E+02 -0.21712054582E+02  0.49684380580E+02  0.00000000000E+00 0. -1.
        -14    1    4    4    0    0 -0.26835591938E+02 -0.25075352210E+02 -0.22116641904E+02  0.42872696815E+02  0.00000000000E+00 0.  1.
</event>
<event>
12    1  0.8271773E-002  0.1838238E+03  0.7818608E-02  0.1164276E+00
         21   -1    0    0  503  502  0.00000000000E+00  0.00000000000E+00  0.72843522840E+03  0.72843522840E+03  0.00000000000E+00 0. -1.
         21   -1    0    0  501  503 -0.00000000000E+00 -0.00000000000E+00 -0.11726569148E+03  0.11726569148E+03  0.00000000000E+00 0. -1.
          6    2    1    2  501    0 -0.41819283721E+02 -0.45598784172E+02 -0.23632802912E+02  0.18481879075E+03  0.17254383336E+03 0.  0.
         24    2    3    3    0    0 -0.66451112373E+02 -0.78267357140E+01  0.35999817501E+02  0.10990821710E+03  0.79415497219E+02 0.  0.
         -6    2    1    2    0  502  0.41819283721E+02  0.45598784172E+02  0.63480233983E+03  0.66088212913E+03  0.17309845851E+03 0.  0.
        -24    2    5    5    0    0  0.91872692627E+02  0.48520321322E+02  0.50467376602E+03  0.52134928409E+03  0.79464788937E+02 0.  0.
          5    1    3    3  501    0  0.24631828652E+02 -0.37772048458E+02 -0.59632620413E+02  0.74910573651E+02  0.47000000000E+01 0. -1.
        -13    1    4    4    0    0  0.12000413868E+02  0.65538951299E+01  0.26195244046E+02  0.29549184169E+02  0.00000000000E+00 0.  1.
         14    1    4    4    0    0 -0.78451526241E+02 -0.14380630844E+02  0.98045734545E+01  0.80359032931E+02  0.00000000000E+00 0. -1.
         -5    1    5    5    0  502 -0.50053408906E+02 -0.29215371501E+01  0.13012857382E+03  0.13953284504E+03  0.47000000000E+01 0.  1.
         11    1    6    6    0    0  0.75223146237E+02 -0.21774555895E+01  0.34066200092E+03  0.34887513800E+03  0.00000000000E+00 0. -1.
        -12    1    6    6    0    0  0.16649546389E+02  0.50697776911E+02  0.16401176509E+03  0.17247414609E+03  0.00000000000E+00 0.  1.
</event>
<event>
12    1  0.8271773E-002  0.3250858E+03  0.7818608E-02  0.1073536E+00
         21   -1    0    0  503  502  0.00000000000E+00  0.00000000000E+00  0.14431183843E+04  0.14431183843E+04  0.00000000000E+00 0.  1.
         21   -1    0    0  501  503 -0.00000000000E+00 -0.00000000000E+00 -0.72790833082E+03  0.72790833082E+03  0.00000000000E+00 0. -1.
          6    2    1    2  501    0 -0.22131560284E+02 -0.27267482412E+03 -0.67227576057E+03  0.74596613366E+03  0.17224810202E+03 0.  0.
         24    2    3    3    0    0 -0.60047814310E+02 -0.17307116100E+03 -0.32232106629E+03  0.38011246062E+03  0.83876374346E+02 0.  0.
         -6    2    1    2    0  502  0.22131560284E+02  0.27267482412E+03  0.13874858141E+04  0.14250605815E+04  0.17561153429E+03 0.  0.
        -24    2    5    5    0    0  0.84529803828E+01  0.16526197497E+03  0.11411194371E+04  0.11559080125E+04  0.81159043196E+02 0.  0.
          5    1    3    3  501    0  0.37916254027E+02 -0.99603663121E+02 -0.34995469428E+03  0.36585367304E+03  0.47000000000E+01 0. -1.
        -11    1    4    4    0    0 -0.55647621890E+02 -0.82947426027E+02 -0.10558869045E+03  0.14534753131E+03  0.00000000000E+00 0.  1.
         12    1    4    4    0    0 -0.44001924198E+01 -0.90123734970E+02 -0.21673237584E+03  0.23476492931E+03  0.00000000000E+00 0. -1.
         -5    1    5    5    0  502  0.13678579901E+02  0.10741284915E+03  0.24636637699E+03  0.26915256904E+03  0.47000000000E+01 0.  1.
         13    1    6    6    0    0  0.44749025830E+01 -0.65193373631E+01  0.17210144240E+02  0.18939788213E+02  0.00000000000E+00 0. -1.
        -14    1    6    6    0    0  0.39780777998E+01  0.17178131234E+03  0.11239092929E+04  0.11369682243E+04  0.00000000000E+00 0.  1.
</event>
<event>
12    1  0.8271773E-002  0.1830299E+03  0.7818608E-02  0.1168816E+00
         21   -1    0    0  501  502  0.00000000000E+00  0.00000000000E+00  0.14552535839E+02  0.14552535839E+02  0.00000000000E+00 0.  1.
         21   -1    0    0  502  503 -0.00000000000E+00 -0.00000000000E+00 -0.21791594774E+04  0.21791594774E+04  0.00000000000E+00 0.  1.
         -6    2    1    2    0  503  0.54667212034E+02 -0.29315709972E+02 -0.93154757081E+03  0.94935811261E+03  0.17219766078E+03 0.  0.
        -24    2    3    3    0    0  0.63832957125E+01 -0.14255052672E+02 -0.14409292262E+03  0.16026681692E+03  0.68401237320E+02 0.  0.
          6    2    1    2  501    0 -0.54667212034E+02  0.29315709972E+02 -0.12330593707E+04  0.12443539006E+04  0.15534897259E+03 0.  0.
         24    2    5    5    0    0 -0.16179285158E+01 -0.25266166300E+01 -0.34691160086E+03  0.35603632209E+03  0.80032508119E+02 0.  0.
          5    1    5    5  501    0 -0.53049283519E+02  0.31842326602E+02 -0.88614776986E+03  0.88831757850E+03  0.47000000000E+01 0. -1.
        -13    1    6    6    0    0 -0.17414217372E+02 -0.37654644548E+02 -0.18812417224E+03  0.19264431319E+03  0.00000000000E+00 0.  1.
         14    1    6    6    0    0  0.15796288856E+02  0.35128027918E+02 -0.15878742862E+03  0.16339200891E+03  0.00000000000E+00 0. -1.
         -5    1    3    3    0  503  0.48283916322E+02 -0.15060657300E+02 -0.78745464820E+03  0.78909129569E+03  0.47000000000E+01 0.  1.
         11    1    4    4    0    0 -0.16844589284E+02 -0.25754612873E+02 -0.12317222545E+03  0.12695840813E+03  0.00000000000E+00 0. -1.
        -12    1    4    4    0    0  0.23227884997E+02  0.11499560201E+02 -0.20920697164E+02  0.33308408790E+02  0.00000000000E+00 0.  1.
</event>
<event>
12    1  0.8271773E-002  0.2281985E+03  0.7818608E-02  0.1127969E+00
         21   -1    0    0  503  502  0.00000000000E+00  0.00000000000E+00  0.61758827195E+03  0.61758827195E+03  0.00000000000E+00 0.  1.
         21   -1    0    0  501  503 -0.00000000000E+00 -0.00000000000E+00 -0.93100591871E+02  0.93100591871E+02  0.00000000000E+00 0.  1.
          6    2    1    2  501    0  0.66334101629E+02 -0.13477169623E+03  0.15256464830E+03  0.27450047677E+03  0.17178741715E+03 0.  0.
         24    2    3    3    0    0 -0.89186958871E+01 -0.10196003363E+02  0.57059356990E+02  0.10035847306E+03  0.81440476876E+02 0.  0.
         -6    2    1    2    0  502 -0.66334101629E+02  0.13477169623E+03  0.37192303178E+03  0.43618838705E+03  0.17137661534E+03 0.  0.
        -24    2    5    5    0    0 -0.43326904748E+02  0.85811836641E+02  0.10429488183E+03  0.16310723500E+03  0.80533569092E+02 0.  0.
          5    1    3    3  501    0  0.75252797516E+02 -0.12457569287E+03  0.95505291307E+02  0.17414200371E+03  0.47000000000E+01 0. -1.
        -11    1    4    4    0    0  0.29957691031E+02 -0.14339276970E+02  0.50903450315E+02  0.60780254770E+02  0.00000000000E+00 0.  1.
         12    1    4    4    0    0 -0.38876386918E+02  0.41432736070E+01  0.61559066750E+01  0.39578218289E+02  0.00000000000E+00 0. -1.
         -5    1    5    5    0  502 -0.23007196881E+02  0.48959859591E+02  0.26762814995E+03  0.27308115205E+03  0.47000000000E+01 0.  1.
         13    1    6    6    0    0 -0.37310620328E+02  0.15204484928E+02  0.77500553506E+02  0.87347550309E+02  0.00000000000E+00 0. -1.
        -14    1    6    6    0    0 -0.60162844201E+01  0.70607351713E+02  0.26794328323E+02  0.75759684691E+02  0.00000000000E+00 0.  1.
</event>
<event>
12    1  0.8271773E-002  0.2382093E+03  0.7818608E-02  0.1121085E+00
         21   -1    0    0  501  502  0.00000000000E+00  0.00000000000E+00  0.41235691062E+03  0.41235691062E+03  0.00000000000E+00 0. -1.
         21   -1    0    0  502  503 -0.00000000000E+00 -0.00000000000E+00 -0.14420293560E+03  0.14420293560E+03  0.00000000000E+00 0.  1.
         -6    2    1    2    0  503 -0.16441789098E+03 -0.21829292883E+01  0.72989460374E+02  0.24861040945E+03  0.17158574040E+03 0.  0.
        -24    2    3    3    0    0 -0.26530300503E+02 -0.35914080870E+02  0.45848121911E+01  0.90965034995E+02  0.79119776537E+02 0.  0.
          6    2    1    2  501    0  0.16441789098E+03  0.21829292883E+01  0.19516451465E+03  0.30794943677E+03  0.17235329929E+03 0.  0.
         24    2    5    5    0    0  0.15024840386E+03 -0.36906012404E+02  0.20092341888E+03  0.26571231204E+03  0.79348446095E+02 0.  0.
          5    1    5    5  501    0  0.14169487123E+02  0.39088941693E+02 -0.57589042352E+01  0.42237124736E+02  0.47000000000E+01 0. -1.
        -13    1    6    6    0    0  0.17460936276E+02  0.67637580625E+01 -0.24998826573E+01  0.18891324254E+02  0.00000000000E+00 0.  1.
         14    1    6    6    0    0  0.13278746758E+03 -0.43669770467E+02  0.20342330154E+03  0.24682098778E+03  0.00000000000E+00 0. -1.
         -5    1    3    3    0  503 -0.13788759048E+03  0.33731151582E+02  0.68404648183E+02  0.15764537446E+03  0.47000000000E+01 0.  1.
         11    1    4    4    0    0 -0.39836185708E+02 -0.16572997266E+02  0.32845474994E+02  0.54225558160E+02  0.00000000000E+00 0. -1.
        -12    1    4    4    0    0  0.13305885205E+02 -0.19341083604E+02 -0.28260662803E+02  0.36739476835E+02  0.00000000000E+00 0.  1.
</event>
<event>
12    1  0.8271773E-002  0.2089416E+03  0.7818608E-02  0.1142692E+00
         21   -1    0    0  503  502  0.00000000000E+00  0.00000000000E+00  0.18150273933E+03  0.18150273933E+03  0.00000000000E+00 0. -1.
         21   -1    0    0  501  503 -0.00000000000E+00 -0.00000000000E+00 -0.24177449654E+03  0.24177449654E+03  0.00000000000E+00 0. -1.
          6    2    1    2  501    0  0.79885553894E+02 -0.85325804763E+02 -0.53140690565E+02  0.21421399452E+03  0.17146867870E+03 0.  0.
         24    2    3    3    0    0  0.11142760352E+03 -0.63447080579E+02 -0.75847532971E+02  0.16936680778E+03  0.80564411866E+02 0.  0.
         -6    2    1    2    0  502 -0.79885553894E+02  0.85325804763E+02 -0.71310666447E+01  0.20906324134E+03  0.17318889136E+03 0.  0.
        -24    2    5    5    0    0 -0.63244531493E+02  0.12393972642E+03 -0.24023307628E+02  0.16350672285E+03  0.82440296937E+02 0.  0.
          5    1    3    3  501    0 -0.31542049625E+02 -0.21878724184E+02  0.22706842406E+02  0.44847186740E+02  0.47000000000E+01 0. -1.
        -11    1    4    4    0    0  0.28807427346E+02  0.13593211817E+02  0.24063198569E+01  0.31944227226E+02  0.00000000000E+00 0.  1.
         12    1    4    4    0    0  0.82620176173E+02 -0.77040292396E+02 -0.78253852828E+02  0.13742258055E+03  0.00000000000E+00 0. -1.
         -5    1    5    5    0  502 -0.16641022401E+02 -0.38613921653E+02  0.16892240984E+02  0.45556518495E+02  0.47000000000E+01 0.  1.
         13    1    6    6    0    0 -0.33018607733E+02  0.21293758865E+02  0.24193893514E+02  0.46141056626E+02  0.00000000000E+00 0. -1.
        -14    1    6    6    0    0 -0.30225923760E+02  0.10264596755E+03 -0.48217201142E+02  0.11736566622E+03  0.00000000000E+00 0.  1.
</event>
<event>
12    1  0.8271773E-002  0.1898860E+03  0.7818608E-02  0.1158909E+00
         21   -1    0    0  501  502  0.00000000000E+00  0.00000000000E+00  0.77834212870E+03  0.77834212870E+03  0.00000000000E+00 0. -1.
         21   -1    0    0  502  503 -0.00000000000E+00 -0.00000000000E+00 -0.56523413309E+02  0.56523413309E+02  0.00000000000E+00 0. -1.
         -6    2    1    2    0  503  0.72211919161E+02  0.26330216638E+02  0.18158670467E+03  0.26273644327E+03  0.17363428731E+03 0.  0.
        -24    2    3    3    0    0 -0.33504512630E+01 -0.24037366107E+02  0.12392665954E+03  0.15506408832E+03  0.89989077382E+02 0.  0.
          6    2    1    2  501    0 -0.72211919161E+02 -0.26330216638E+02  0.54023201072E+03  0.57212909874E+03  0.17196871414E+03 0.  0.
         24    2    5    5    0    0  0.73102252859E+01 -0.30594517697E+01  0.12197440793E+03  0.14571754608E+03  0.79328730014E+02 0.  0.
          5    1    5    5  501    0 -0.79522144447E+02 -0.23270764868E+02  0.41825760279E+03  0.42641155266E+03  0.47000000000E+01 0. -1.
        -11    1    6    6    0    0 -0.24352403619E+02  0.20905274522E+02  0.24226983464E+02  0.40212147327E+02  0.00000000000E+00 0.  1.
         12    1    6    6    0    0  0.31662628905E+02 -0.23964726292E+02  0.97747424470E+02  0.10550539875E+03  0.00000000000E+00 0. -1.
         -5    1    3    3    0  503  0.75562370424E+02  0.50367582745E+02  0.57660045127E+02  0.10767235495E+03  0.47000000000E+01 0.  1.
         13    1    4    4    0    0  0.23264411410E+01  0.30538613974E+02  0.17370600145E+02  0.35210183488E+02  0.00000000000E+00 0. -1.
        -14    1    4    4    0    0 -0.56768924040E+01 -0.54575980081E+02  0.10655605940E+03  0.11985390483E+03  0.00000000000E+00 0.  1.
</event>
<event>
12    1  0.8271773E-002  0.2567242E+03  0.7818608E-02  0.1109229E+00
         21   -1    0    0  501  502  0.00000000000E+00  0.00000000000E+00  0.15323578722E+03  0.15323578722E+03  0.00000000000E+00 0.  1.
         21   -1    0    0  502  503 -0.00000000000E+00 -0.00000000000E+00 -0.52260806405E+03  0.52260806405E+03  0.00000000000E+00 0. -1.
         -6    2    1    2    0  503 -0.15646254241E+03 -0.10953185643E+03 -0.32790916890E+03  0.41645139305E+03  0.17155053185E+03 0.  0.
        -24    2    3    3    0    0 -0.76829180959E+02  0.81176581602E+01 -0.10367800770E+03  0.15096206334E+03  0.77921729100E+02 0.  0.
          6    2    1    2  501    0  0.15646254241E+03  0.10953185643E+03 -0.41463107933E+02  0.25939245821E+03  0.17055058871E+03 0.  0.
         24    2    5    5    0    0  0.27313682008E+02  0.66483868639E+02  0.20379336249E+02  0.10979588306E+03  0.80459160923E+02 0.  0.
          5    1    5    5  501    0  0.12914886040E+03  0.43047987792E+02 -0.61842444182E+02  0.14959657515E+03  0.47000000000E+01 0. -1.
        -13    1    6    6    0    0 -0.22701721712E+02  0.45628604855E+02 -0.23834987597E+01  0.51019788475E+02  0.00000000000E+00 0.  1.
         14    1    6    6    0    0  0.50015403720E+02  0.20855263783E+02  0.22762835009E+02  0.58776094583E+02  0.00000000000E+00 0. -1.
         -5    1    3    3    0  503 -0.79633361449E+02 -0.11764951459E+03 -0.22423116120E+03  0.26548932972E+03  0.47000000000E+01 0.  1.
         13    1    4    4    0    0 -0.92133470510E+02  0.12923777955E+01 -0.80454640206E+02  0.12232414218E+03  0.00000000000E+00 0. -1.
        -14    1    4    4    0    0  0.15304289551E+02  0.68252803647E+01 -0.23223367491E+02  0.28637921160E+02  0.00000000000E+00 0.  1.
</event>
<event>
12    1  0.8271773E-002  0.1841671E+03  0.7818608E-02  0.1163888E+00
         21   -1    0    0  503  502  0.00000000000E+00  0.00000000000E+00  0.35704212981E+03  0.35704212981E+03  0.00000000000E+00 0. -1.
         21   -1    0    0  501  503 -0.00000000000E+00 -0.00000000000E+00 -0.94873194835E+02  0.94873194835E+02  0.00000000000E+00 0. -1.
          6    2    1    2  501    0  0.35405236556E+02 -0.55304752336E+02  0.13291596538E+03  0.22712146326E+03  0.17206207837E+03 0.  0.
         24    2    3    3    0    0  0.71638849285E+02 -0.20286414861E+02  0.23878595809E+02  0.10691166077E+03  0.72912636187E+02 0.  0.
         -6    2    1    2    0  502 -0.35405236556E+02  0.55304752336E+02  0.12925296959E+03  0.22479386138E+03  0.17179581940E+03 0.  0.
        -24    2    5    5    0    0 -0.76392430394E+02  0.45604446816E+02  0.41351325162E+02  0.12720884676E+03  0.80972770798E+02 0.  0.
          5    1    3    3  501    0 -0.36233612729E+02 -0.35018337475E+02  0.10903736957E+03  0.12020980249E+03  0.47000000000E+01 0. -1.
        -13    1    4    4    0    0  0.12246517508E+02  0.23911594926E+02 -0.52155187039E+01  0.27366826604E+02  0.00000000000E+00 0.  1.
         14    1    4    4    0    0  0.59392331777E+02 -0.44198009788E+02  0.29094114513E+02  0.79544834165E+02  0.00000000000E+00 0. -1.
         -5    1    5    5    0  502  0.40987193838E+02  0.97003055201E+01  0.87901644429E+02  0.97585014624E+02  0.47000000000E+01 0.  1.
         13    1    6    6    0    0 -0.11584790571E+02  0.40182494442E+02  0.45803493638E+02  0.62022578644E+02  0.00000000000E+00 0. -1.
        -14    1    6    6    0    0 -0.64807639823E+02  0.54219523734E+01 -0.44521684756E+01  0.65186268117E+02  0.00000000000E+00 0.  1.
</event>
<event>
12    1  0.8271773E-002  0.1843072E+03  0.7818608E-02  0.1163784E+00
         21   -1    0    0  503  502  0.00000000000E+00  0.00000000000E+00  0.42205163048E+03  0.42205163048E+03  0.00000000000E+00 0. -1.
         21   -1    0    0  501  503 -0.00000000000E+00 -0.00000000000E+00 -0.11784824518E+03  0.11784824518E+03  0.00000000000E+00 0. -1.
          6    2    1    2  501    0  0.58405789645E+02 -0.27778702704E+02 -0.11625218648E+00  0.18430724520E+03  0.17258694775E+03 0.  0.
         24    2    3    3    0    0  0.97656546710E+02 -0.21307426558E+01 -0.27192591737E+02  0.12995967904E+03  0.81294156927E+02 0.  0.
         -6    2    1    2    0  502 -0.58405789645E+02  0.27778702704E+02  0.30431963749E+03  0.35559263046E+03  0.17219983880E+03 0.  0.
        -24    2    5    5    0    0 -0.89844858792E+02  0.38076781857E+02  0.29542175443E+03  0.32101333280E+03  0.79079750142E+02 0.  0.
          5    1    3    3  501    0 -0.39250757065E+02 -0.25647960048E+02  0.27076339551E+02  0.54347566167E+02  0.47000000000E+01 0. -1.
        -13    1    4    4    0    0  0.66601320098E+02  0.54071284461E-01  0.23369059038E+02  0.70582233478E+02  0.00000000000E+00 0.  1.
         14    1    4    4    0    0  0.31055226612E+02 -0.21848139403E+01 -0.50561650776E+02  0.59377445558E+02  0.00000000000E+00 0. -1.
         -5    1    5    5    0  502  0.31439069147E+02 -0.10298079153E+02  0.88978830657E+01  0.34579297652E+02  0.47000000000E+01 0.  1.
         13    1    6    6    0    0  0.11661985562E+02  0.53903864515E+01  0.75676823090E+02  0.76759623021E+02  0.00000000000E+00 0. -1.
        -14    1    6    6    0    0 -0.10150684435E+03  0.32686395405E+02  0.21974493134E+03  0.24425370978E+03  0.00000000000E+00 0.  1.
</event>
<event>
12    1  0.8271773E-002  0.2101296E+03  0.7818608E-02  0.1141476E+00
         21   -1    0    0  501  502  0.00000000000E+00  0.00000000000E+00  0.30300673244E+02  0.30300673244E+02  0.00000000000E+00 0. -1.
         21   -1    0    0  502  503 -0.00000000000E+00 -0.00000000000E+00 -0.14752974903E+04  0.14752974903E+04  0.00000000000E+00 0.  1.
         -6    2    1    2    0  503 -0.11839637905E+03 -0.23116911329E+02 -0.80699348603E+03  0.83390223589E+03  0.17205335908E+03 0.  0.
        -24    2    3    3    0    0 -0.10324914906E+03 -0.16304018316E+02 -0.31779101882E+03  0.34439534318E+03  0.81797389741E+02 0.  0.
          6    2    1    2  501    0  0.11839637905E+03  0.23116911329E+02 -0.63800333098E+03  0.67169592761E+03  0.17197405228E+03 0.  0.
         24    2    5    5    0    0  0.12471436340E+03 -0.28725693873E+02 -0.53746706885E+03  0.55830632207E+03  0.80350863333E+02 0.  0.
          5    1    5    5  501    0 -0.63179843507E+01  0.51842605202E+02 -0.10053626213E+03  0.11338960554E+03  0.47000000000E+01 0. -1.
        -11    1    6    6    0    0  0.64314734766E+02 -0.12287151588E+02 -0.42120363370E+03  0.42626266579E+03  0.00000000000E+00 0.  1.
         12    1    6    6    0    0  0.60399628631E+02 -0.16438542285E+02 -0.11626343514E+03  0.13204365628E+03  0.00000000000E+00 0. -1.
         -5    1    3    3    0  503 -0.15147229991E+02 -0.68128930131E+01 -0.48920246721E+03  0.48950689272E+03  0.47000000000E+01 0.  1.
         13    1    4    4    0    0 -0.36830006586E+02 -0.40045185715E+02 -0.19840710638E+03  0.20573149041E+03  0.00000000000E+00 0. -1.
        -14    1    4    4    0    0 -0.66419142470E+02  0.23741167399E+02 -0.11938391243E+03  0.13866385276E+03  0.00000000000E+00 0.  1.
</event>
<event>
12    1  0.8271773E-002  0.2025238E+03  0.7818608E-02  0.1148081E+00
         21   -1    0    0  501  502  0.00000000000E+00  0.00000000000E+00  0.54380792497E+03  0.54380792497E+03  0.00000000000E+00 0. -1.
         21   -1    0    0  502  503 -0.00000000000E+00 -0.00000000000E+00 -0.76432408960E+02  0.76432408960E+02  0.00000000000E+00 0.  1.
         -6    2    1    2    0  503 -0.12966939348E+02 -0.10524504066E+03  0.18465059582E+03  0.27246270675E+03  0.16998654044E+03 0.  0.
        -24    2    3    3    0    0 -0.51568007158E+02 -0.12203484959E+03  0.12253665570E+03  0.19728178046E+03  0.79706367590E+02 0.  0.
          6    2    1    2  501    0  0.12966939348E+02  0.10524504066E+03  0.28272492019E+03  0.34777762718E+03  0.17254343619E+03 0.  0.
         24    2    5    5    0    0  0.16670300507E+02  0.13950774609E+03  0.21154558258E+03  0.26855492860E+03  0.87349333315E+02 0.  0.
          5    1    5    5  501    0 -0.37033611590E+01 -0.34262705432E+02  0.71179337611E+02  0.79222698579E+02  0.47000000000E+01 0. -1.
        -11    1    6    6    0    0 -0.31364100856E+02  0.22190078153E+02  0.55596754549E+02  0.67580363326E+02  0.00000000000E+00 0.  1.
         12    1    6    6    0    0  0.48034401363E+02  0.11731766794E+03  0.15594882803E+03  0.20097456528E+03  0.00000000000E+00 0. -1.
         -5    1    3    3    0  503  0.38601067810E+02  0.16789808933E+02  0.62113940123E+02  0.75180926289E+02  0.47000000000E+01 0.  1.
         11    1    4    4    0    0 -0.25321130418E+02 -0.11302961382E+03  0.63608730495E+02  0.13214735655E+03  0.00000000000E+00 0. -1.
        -12    1    4    4    0    0 -0.26246876740E+02 -0.90052357685E+01  0.58927925205E+02  0.65134423915E+02  0.00000000000E+00 0.  1.
</event>
<event>
12    1  0.8271773E-002  0.2027871E+03  0.7818608E-02  0.1149620E+00
         21   -1    0    0  503  502  0.00000000000E+00  0.00000000000E+00  0.22320549455E+03  0.22320549455E+03  0.00000000000E+00 0.  1.
         21   -1    0    0  501  503 -0.00000000000E+00 -0.00000000000E+00 -0.27659901822E+03  0.27659901822E+03  0.00000000000E+00 0.  1.
          6    2    1    2  501    0 -0.77522907128E+02  0.38857821202E+02 -0.17773051265E+03  0.26193421372E+03  0.17176048962E+03 0.  0.
         24    2    3    3    0    0 -0.64018507767E+02  0.61934086476E+02 -0.45992932836E+02  0.12742859021E+03  0.78666990076E+02 0.  0.
         -6    2    1    2    0  502  0.77522907128E+02 -0.38857821202E+02  0.12433698898E+03  0.23787029905E+03  0.18331083149E+03 0.  0.
        -24    2    5    5    0    0  0.37500707185E+01  0.10748124511E+02  0.12617271937E+03  0.14882738160E+03  0.78105372348E+02 0.  0.
          5    1    3    3  501    0 -0.13504399360E+02 -0.23076265274E+02 -0.13173757981E+03  0.13450562351E+03  0.47000000000E+01 0. -1.
        -11    1    4    4    0    0 -0.31289471110E+02 -0.15280051596E+02 -0.16467858432E+02  0.38518843965E+02  0.00000000000E+00 0.  1.
         12    1    4    4    0    0 -0.32729036657E+02  0.77214138071E+02 -0.29525074405E+02  0.88909746244E+02  0.00000000000E+00 0. -1.
         -5    1    5    5    0  502  0.73772836409E+02 -0.49605945713E+02 -0.18357303883E+01  0.89042917450E+02  0.47000000000E+01 0.  1.
         11    1    6    6    0    0 -0.64009937789E+01  0.42481276267E+02  0.51549257841E+02  0.67104079895E+02  0.00000000000E+00 0. -1.
        -12    1    6    6    0    0  0.10151064497E+02 -0.31733151756E+02  0.74623461529E+02  0.81723301704E+02  0.00000000000E+00 0.  1.
</event>
<event>
12    1  0.8271773E-002  0.2422070E+03  0.7818608E-02  0.1118345E+00
         21   -1    0    0  501  502  0.00000000000E+00  0.00000000000E+00  0.11443279119E+04  0.11443279119E+04  0.00000000000E+00 0. -1.
         21   -1    0    0  502  503 -0.00000000000E+00 -0.00000000000E+00 -0.57934106008E+02  0.57934106008E+02  0.00000000000E+00 0. -1.
         -6    2    1    2    0  503 -0.16998878914E+03 -0.21969771399E+01  0.33905948559E+03  0.41668400140E+03  0.17252016437E+03 0.  0.
        -24    2    3    3    0    0 -0.13533073372E+03  0.59971593722E+02  0.20871378095E+03  0.26809663745E+03  0.80021029170E+02 0.  0.
          6    2    1    2  501    0  0.16998878914E+03  0.21969771399E+01  0.74733432030E+03  0.78557801650E+03  0.17240423014E+03 0.  0.
         24    2    5    5    0    0  0.30525010620E+02  0.18945041598E+02  0.42880788163E+03  0.43742312954E+03  0.78562739481E+02 0.  0.
          5    1    5    5  501    0  0.13946377852E+03 -0.16748064459E+02  0.31852643867E+03  0.34815488696E+03  0.47000000000E+01 0. -1.
        -13    1    6    6    0    0  0.37392587953E+02  0.32303106665E+02  0.41171060505E+03  0.41466530919E+03  0.00000000000E+00 0.  1.
         14    1    6    6    0    0 -0.68675773329E+01 -0.13358065066E+02  0.17097276582E+02  0.22757820354E+02  0.00000000000E+00 0. -1.
         -5    1    3    3    0  503 -0.34658055418E+02 -0.62168570862E+02  0.13034570465E+03  0.14858736396E+03  0.47000000000E+01 0.  1.
         13    1    4    4    0    0 -0.91753535894E+02  0.95568384243E+01  0.75737250850E+02  0.11935734446E+03  0.00000000000E+00 0. -1.
        -14    1    4    4    0    0 -0.43577197831E+02  0.50414755298E+02  0.13297653010E+03  0.14873929299E+03  0.00000000000E+00 0.  1.
</event>
<event>
12    1  0.8271773E-002  0.1944672E+03  0.7818608E-02  0.1154662E+00
         21   -1    0    0  503  502  0.00000000000E+00  0.00000000000E+00  0.66215963698E+03  0.66215963698E+03  0.00000000000E+00 0. -1.
         21   -1    0    0  501  503 -0.00000000000E+00 -0.00000000000E+00 -0.15370891043E+03  0.15370891043E+03  0.00000000000E+00 0. -1.
          6    2    1    2  501    0  0.61413808255E+02  0.67849946809E+02 -0.69352732941E+02  0.20646381723E+03  0.17158739794E+03 0.  0.
         24    2    3    3    0    0  0.10010214277E+03  0.55199104009E+02 -0.17792777597E+02  0.14060525631E+03  0.79911670592E+02 0.  0.
         -6    2    1    2    0  502 -0.61413808255E+02 -0.67849946809E+02  0.57780345949E+03  0.60940473018E+03  0.17071032843E+03 0.  0.
        -24    2    5    5    0    0  0.79694653227E+01 -0.78176229017E+02  0.45003514892E+03  0.46357091399E+03  0.78684953282E+02 0.  0.
          5    1    3    3  501    0 -0.38688334517E+02  0.12650842800E+02 -0.51559955344E+02  0.65858560919E+02  0.47000000000E+01 0. -1.
        -11    1    4    4    0    0  0.76007753787E+02 -0.14426924266E+01  0.16955375864E+01  0.76040350110E+02  0.00000000000E+00 0.  1.
         12    1    4    4    0    0  0.24094388984E+02  0.56641796436E+02 -0.19488315184E+02  0.64564906201E+02  0.00000000000E+00 0. -1.
         -5    1    5    5    0  502 -0.69383273577E+02  0.10326282208E+02  0.12776831058E+03  0.14583381619E+03  0.47000000000E+01 0.  1.
         11    1    6    6    0    0 -0.12820309351E+02 -0.34206275805E+02  0.35440827206E+03  0.35628591460E+03  0.00000000000E+00 0. -1.
        -12    1    6    6    0    0  0.20789774674E+02 -0.43969953212E+02  0.95626876856E+02  0.10728499939E+03  0.00000000000E+00 0.  1.
</event>
<event>
12    1  0.8271773E-002  0.2207281E+03  0.7818608E-02  0.1133765E+00
         21   -1    0    0  503  502  0.00000000000E+00  0.00000000000E+00  0.18742514170E+03  0.18742514170E+03  0.00000000000E+00 0. -1.
         21   -1    0    0  501  503 -0.00000000000E+00 -0.00000000000E+00 -0.26898577489E+03  0.26898577489E+03  0.00000000000E+00 0.  1.
          6    2    1    2  501    0 -0.13415333572E+03  0.85258223970E+01 -0.88181080327E+02  0.23558355871E+03  0.17220308671E+03 0.  0.
         24    2    3    3    0    0 -0.89187654761E+02 -0.32403712129E+02 -0.11404157077E+03  0.16934162164E+03  0.81649657894E+02 0.  0.
         -6    2    1    2    0  502  0.13415333572E+03 -0.85258223970E+01  0.66204471330E+01  0.22082735788E+03  0.17507451139E+03 0.  0.
        -24    2    5    5    0    0  0.25009624404E+01 -0.28855534457E+02  0.20735256540E+02  0.86786459550E+02  0.79139383467E+02 0.  0.
          5    1    3    3  501    0 -0.44965680955E+02  0.40929534526E+02  0.25860490444E+02  0.66241937066E+02  0.47000000000E+01 0. -1.
        -13    1    4    4    0    0 -0.66124715822E+01 -0.35559355008E+02 -0.12155151019E+02  0.38156784525E+02  0.00000000000E+00 0.  1.
         14    1    4    4    0    0 -0.82575183179E+02  0.31556428788E+01 -0.10188641975E+03  0.13118483712E+03  0.00000000000E+00 0. -1.
         -5    1    5    5    0  502  0.13165237328E+03  0.20329712060E+02 -0.14114809407E+02  0.13404089833E+03  0.47000000000E+01 0.  1.
         13    1    6    6    0    0  0.33693801415E+02 -0.69829894560E+01  0.32071404363E+02  0.47038381916E+02  0.00000000000E+00 0. -1.
        -14    1    6    6    0    0 -0.31192838974E+02 -0.21872545001E+02 -0.11336147823E+02  0.39748077633E+02  0.00000000000E+00 0.  1.
</event>
<event>
12    1  0.8271773E-002  0.2454402E+03  0.7818608E-02  0.1117080E+00
         21   -1    0    0  503  502  0.00000000000E+00  0.00000000000E+00  0.14037799630E+03  0.14037799630E+03  0.00000000000E+00 0.  1.
         21   -1    0    0  501  503 -0.00000000000E+00 -0.00000000000E+00 -0.42978663907E+03  0.42978663907E+03  0.00000000000E+00 0.  1.
          6    2    1    2  501    0 -0.16559889702E+03 -0.17565192690E+02 -0.10016565657E+03  0.26023913343E+03  0.17308875505E+03 0.  0.
         24    2    3    3    0    0 -0.14738763439E+03 -0.50149496544E+02 -0.27615494580E+02  0.17851396626E+03  0.82864551123E+02 0.  0.
         -6    2    1    2    0  502  0.16559889702E+03  0.17565192690E+02 -0.18924298620E+03  0.30992550194E+03  0.18030357245E+03 0.  0.
        -24    2    5    5    0    0  0.12461542989E+03 -0.53582760890E+02 -0.92637557017E+02  0.18305401253E+03  0.80789460345E+02 0.  0.
          5    1    3    3  501    0 -0.18211262626E+02  0.32584303854E+02 -0.72550161994E+02  0.81725167173E+02  0.47000000000E+01 0. -1.
        -13    1    4    4    0    0 -0.93803020807E+02 -0.72337994960E+01 -0.49693867188E+02  0.10639931863E+03  0.00000000000E+00 0.  1.
         14    1    4    4    0    0 -0.53584613586E+02 -0.42915697048E+02  0.22078372609E+02  0.72114647634E+02  0.00000000000E+00 0. -1.
         -5    1    5    5    0  502  0.40983467134E+02  0.71147953580E+02 -0.96605429187E+02  0.12687148941E+03  0.47000000000E+01 0.  1.
         11    1    6    6    0    0  0.65327260905E+02 -0.52179012205E+02 -0.14335014845E+02  0.84828020032E+02  0.00000000000E+00 0. -1.
        -12    1    6    6    0    0  0.59288168981E+02 -0.14037486857E+01 -0.78302542172E+02  0.98225992497E+02  0.00000000000E+00 0.  1.
</event>
<event>
12    1  0.8271773E-002  0.1783310E+03  0.7818608E-02  0.1170813E+00
         21   -1    0    0  503  502  0.00000000000E+00  0.00000000000E+00  0.12965105291E+03  0.12965105291E+03  0.00000000000E+00 0. -1.
         21   -1    0    0  501  503 -0.00000000000E+00 -0.00000000000E+00 -0.30174196616E+03  0.30174196616E+03  0.00000000000E+00 0. -1.
          6    2    1    2  501    0  0.85378793081E+01  0.14825735963E+02 -0.18647808947E+03  0.25802330060E+03  0.17750844479E+03 0.  0.
         24    2    3    3    0    0 -0.34501850583E+02 -0.37724218783E+02 -0.15863894017E+03  0.18446363552E+03  0.79038124449E+02 0.  0.
         -6    2    1    2    0  502 -0.85378793081E+01 -0.14825735963E+02  0.14387176213E+02  0.17336971847E+03  0.17192257156E+03 0.  0.
        -24    2    5    5    0    0 -0.51860031464E+02 -0.87726368715E+01  0.56908979387E+02  0.11218440470E+03  0.81118966349E+02 0.  0.
          5    1    3    3  501    0  0.43039729891E+02  0.52549954746E+02 -0.27839149303E+02  0.73559665081E+02  0.47000000000E+01 0. -1.
        -13    1    4    4    0    0  0.29604969559E+01 -0.31109230636E+02 -0.13737031925E+03  0.14087992541E+03  0.00000000000E+00 0.  1.
         14    1    4    4    0    0 -0.37462347539E+02 -0.66149881466E+01 -0.21268620915E+02  0.43583710110E+02  0.00000000000E+00 0. -1.
         -5    1    5    5    0  502  0.43322152156E+02 -0.60530990917E+01 -0.42521803174E+02  0.61185313771E+02  0.47000000000E+01 0.  1.
         11    1    6    6    0    0  0.46359683134E+01 -0.33292287086E+02  0.10996079009E+02  0.35366401219E+02  0.00000000000E+00 0. -1.
        -12    1    6    6    0    0 -0.56495999778E+02  0.24519650214E+02  0.45912900378E+02  0.76818003480E+02  0.00000000000E+00 0.  1.
</event>
<event>
12    1  0.8271773E-002  0.1880966E+03  0.7818608E-02  0.1161390E+00
         21   -1    0    0  501  502  0.00000000000E+00  0.00000000000E+00  0.21646741468E+03  0.21646741468E+03  0.00000000000E+00 0. -1.
         21   -1    0    0  502  503 -0.00000000000E+00 -0.00000000000E+00 -0.20306042454E+03  0.20306042454E+03  0.00000000000E+00 0. -1.
         -6    2    1    2    0  503 -0.15740225818E+01  0.77712431812E+02  0.10450614666E+03  0.21517871282E+03  0.17128527127E+03 0.  0.
        -24    2    3    3    0    0 -0.34316980592E+02  0.10670498071E+03  0.63579007929E+02  0.15509718591E+03  0.86308972668E+02 0.  0.
          6    2    1    2  501    0  0.15740225818E+01 -0.77712431812E+02 -0.91099156523E+02  0.20434912640E+03  0.16558324050E+03 0.  0.
         24    2    5    5    0    0 -0.48513019287E+02 -0.88195039370E+02 -0.75568356312E+02  0.15066586477E+03  0.82811522871E+02 0.  0.
          5    1    5    5  501    0  0.50087041869E+02  0.10482607559E+02 -0.15530800211E+02  0.53683261634E+02  0.47000000000E+01 0. -1.
        -11    1    6    6    0    0 -0.36237046899E+02  0.30074669057E+01 -0.10129338059E+02  0.37746150991E+02  0.00000000000E+00 0.  1.
         12    1    6    6    0    0 -0.12275972388E+02 -0.91202506276E+02 -0.65439018253E+02  0.11291971377E+03  0.00000000000E+00 0. -1.
         -5    1    3    3    0  503  0.32742958011E+02 -0.28992548898E+02  0.40927138734E+02  0.60081526910E+02  0.47000000000E+01 0.  1.
         13    1    4    4    0    0 -0.24557608393E+02  0.11182919061E+03  0.76813362780E+02  0.13787362585E+03  0.00000000000E+00 0. -1.
        -14    1    4    4    0    0 -0.97593721992E+01 -0.51242099049E+01 -0.13234354850E+02  0.17223560061E+02  0.00000000000E+00 0.  1.
</event>
<event>
12    1  0.8271773E-002  0.2322253E+03  0.7818608E-02  0.1125119E+00
         21   -1    0    0  501  502  0.00000000000E+00  0.00000000000E+00  0.40901131283E+03  0.40901131283E+03  0.00000000000E+00 0. -1.
         21   -1    0    0  502  503 -0.00000000000E+00 -0.00000000000E+00 -0.20863264304E+03  0.20863264304E+03  0.00000000000E+00 0. -1.
         -6    2    1    2    0  503  0.10052223323E+03  0.11870711701E+03 -0.87272357290E+02  0.24808275898E+03  0.17243112234E+03 0.  0.
        -24    2    3    3    0    0  0.71461178267E+02  0.14359635525E+03 -0.10291646209E+03  0.20647930828E+03  0.79468819898E+02 0.  0.
          6    2    1    2  501    0 -0.10052223323E+03 -0.11870711701E+03  0.28765102707E+03  0.36956119689E+03  0.17215186862E+03 0.  0.
         24    2    5    5    0    0 -0.38842526020E+02 -0.21809173787E+01  0.60396413086E+02  0.10678849842E+03  0.79009863016E+02 0.  0.
          5    1    5    5  501    0 -0.61679707205E+02 -0.11652619963E+03  0.22725461399E+03  0.26277269847E+03  0.47000000000E+01 0. -1.
        -11    1    6    6    0    0  0.69707424533E+01 -0.31140276715E+02  0.33560017317E+02  0.46309640967E+02  0.00000000000E+00 0.  1.
         12    1    6    6    0    0 -0.45813268474E+02  0.28959359336E+02  0.26836395769E+02  0.60478857457E+02  0.00000000000E+00 0. -1.
         -5    1    3    3    0  503  0.29061054958E+02 -0.24889238238E+02  0.15644104799E+02  0.41603450702E+02  0.47000000000E+01 0.  1.
         13    1    4    4    0    0  0.59304176066E+02  0.77471756785E+02 -0.19763416854E+02  0.99546225664E+02  0.00000000000E+00 0. -1.
        -14    1    4    4    0    0  0.12157002202E+02  0.66124598466E+02 -0.83153045235E+02  0.10693308261E+03  0.00000000000E+00 0.  1.
</event>
<event>
12    1  0.8271773E-002  0.3258349E+03  0.7818608E-02  0.1073065E+00
         21   -1    0    0  501  502  0.00000000000E+00  0.00000000000E+00  0.58932369536E+03  0.58932369536E+03  0.00000000000E+00 0. -1.
         21   -1    0    0  502  503 -0.00000000000E+00 -0.00000000000E+00 -0.22285038476E+03  0.22285038476E+03  0.00000000000E+00 0.  1.
         -6    2    1    2    0  503  0.15121391375E+03  0.23179757672E+03  0.46293640461E+01  0.32524554280E+03  0.17078485827E+03 0.  0.
        -24    2    3    3    0    0  0.63224263940E+02  0.13956366847E+03  0.64940058107E+02  0.18414720077E+03  0.78852110293E+02 0.  0.
          6    2    1    2  501    0 -0.15121391375E+03 -0.23179757672E+03  0.36184394655E+03  0.48692853731E+03  0.17196684129E+03 0.  0.
         24    2    5    5    0    0 -0.13996891529E+03 -0.11131298445E+03  0.16661620733E+03  0.25719184645E+03  0.80030041743E+02 0.  0.
          5    1    5    5  501    0 -0.11244998466E+02 -0.12048459227E+03  0.19522773922E+03  0.22973669086E+03  0.47000000000E+01 0. -1.
        -11    1    6    6    0    0 -0.10763444817E+03 -0.45509664801E+02  0.13142274589E+03  0.17586427198E+03  0.00000000000E+00 0.  1.
         12    1    6    6    0    0 -0.32334467121E+02 -0.65803319650E+02  0.35193461444E+02  0.81327574471E+02  0.00000000000E+00 0. -1.
         -5    1    3    3    0  503  0.87989649815E+02  0.92233908248E+02 -0.60310694060E+02  0.14109834203E+03  0.47000000000E+01 0.  1.
         11    1    4    4    0    0  0.73083389538E+02  0.12372571210E+03  0.75898398753E+02  0.16251092454E+03  0.00000000000E+00 0. -1.
        -12    1    4    4    0    0 -0.98591255977E+01  0.15837956372E+02 -0.10958340647E+02  0.21636276235E+02  0.00000000000E+00 0.  1.
</event>
<event>
12    1  0.8271773E-002  0.1935309E+03  0.7818608E-02  0.1155564E+00
         21   -1    0    0  501  502  0.00000000000E+00  0.00000000000E+00  0.50061065942E+03  0.50061065942E+03  0.00000000000E+00 0.  1.
         21   -1    0    0  502  503 -0.00000000000E+00 -0.00000000000E+00 -0.42508669892E+03  0.42508669892E+03  0.00000000000E+00 0.  1.
         -6    2    1    2    0  503  0.67806767385E+02  0.56486562665E+02 -0.38262663513E+03  0.42878589149E+03  0.17223736343E+03 0.  0.
        -24    2    3    3    0    0  0.41907921328E+02  0.98882044304E+02 -0.20566884861E+03  0.24492650146E+03  0.78456250696E+02 0.  0.
          6    2    1    2  501    0 -0.67806767385E+02 -0.56486562665E+02  0.45815059563E+03  0.49691146685E+03  0.17096943629E+03 0.  0.
         24    2    5    5    0    0 -0.10364487149E+03 -0.50714792435E+02  0.42618492372E+03  0.44831540510E+03  0.77710125997E+02 0.  0.
          5    1    5    5  501    0  0.35838104101E+02 -0.57717702294E+01  0.31965671909E+02  0.48596061752E+02  0.47000000000E+01 0. -1.
        -11    1    6    6    0    0 -0.74193948437E+02 -0.63562008147E+02  0.37784232895E+03  0.39026874896E+03  0.00000000000E+00 0.  1.
         12    1    6    6    0    0 -0.29450923049E+02  0.12847215712E+02  0.48342594768E+02  0.58046656139E+02  0.00000000000E+00 0. -1.
         -5    1    3    3    0  503  0.25898846056E+02 -0.42395481640E+02 -0.17695778653E+03  0.18385939003E+03  0.47000000000E+01 0.  1.
         13    1    4    4    0    0 -0.35744579487E+01  0.85491888624E+02 -0.13446959583E+03  0.15938541957E+03  0.00000000000E+00 0. -1.
        -14    1    4    4    0    0  0.45482379277E+02  0.13390155680E+02 -0.71199252783E+02  0.85541081888E+02  0.00000000000E+00 0.  1.
</event>
<event>
12    1  0.8271773E-002  0.2224120E+03  0.7818608E-02  0.1132338E+00
         21   -1    0    0  503  502  0.00000000000E+00  0.00000000000E+00  0.56969911785E+02  0.56969911785E+02  0.00000000000E+00 0.  1.
         21   -1    0    0  501  503 -0.00000000000E+00 -0.00000000000E+00 -0.87972278815E+03  0.87972278815E+03  0.00000000000E+00 0. -1.
          6    2    1    2  501    0  0.68726134167E+02  0.12117211841E+03 -0.47432957778E+03  0.52333342044E+03  0.17170718329E+03 0.  0.
         24    2    3    3    0    0  0.63368286790E+02  0.12322839116E+03 -0.23611131890E+03  0.28499969716E+03  0.79218030229E+02 0.  0.
         -6    2    1    2    0  502 -0.68726134167E+02 -0.12117211841E+03 -0.34842329858E+03  0.41335927949E+03  0.17338147292E+03 0.  0.
        -24    2    5    5    0    0 -0.74578203560E+02 -0.14058112711E+03 -0.34949867286E+03  0.39252174689E+03  0.81234461294E+02 0.  0.
          5    1    3    3  501    0  0.53578473771E+01 -0.20562727489E+01 -0.23821825888E+03  0.23833372328E+03  0.47000000000E+01 0. -1.
        -13    1    4    4    0    0 -0.14324609702E+02  0.37071728769E+02 -0.90355737402E+02  0.98710013669E+02  0.00000000000E+00 0.  1.
         14    1    4    4    0    0  0.77692896492E+02  0.86156662386E+02 -0.14575558150E+03  0.18628968350E+03  0.00000000000E+00 0. -1.
         -5    1    5    5    0  502  0.58520693929E+01  0.19409008705E+02  0.10753742832E+01  0.20837532602E+02  0.47000000000E+01 0.  1.
         11    1    6    6    0    0 -0.22169067435E+02  0.51757080015E+01 -0.32195811757E+02  0.39431279448E+02  0.00000000000E+00 0. -1.
        -12    1    6    6    0    0 -0.52409136126E+02 -0.14575683511E+03 -0.31730286110E+03  0.35309046744E+03  0.00000000000E+00 0.  1.
</event>
<event>
12    1  0.8271773E-002  0.1921993E+03  0.7818608E-02  0.1156632E+00
         21   -1    0    0  503  502  0.00000000000E+00  0.00000000000E+00  0.20508902919E+03  0.20508902919E+03  0.00000000000E+00 0. -1.
         21   -1    0    0  501  503 -0.00000000000E+00 -0.00000000000E+00 -0.18764873756E+03  0.18764873756E+03  0.00000000000E+00 0. -1.
          6    2    1    2  501    0 -0.93917112830E+01  0.82807633856E+02 -0.32132423628E+02  0.19424843391E+03  0.17249537084E+03 0.  0.
         24    2    3    3    0    0 -0.70840818624E+02  0.65161836350E+02 -0.26210866874E+02  0.12987047342E+03  0.83155539942E+02 0.  0.
         -6    2    1    2    0  502  0.93917112830E+01 -0.82807633856E+02  0.49572715258E+02  0.19848933285E+03  0.17319137592E+03 0.  0.
        -24    2    5    5    0    0 -0.14199252811E+02 -0.82864902271E+02 -0.26559056784E+02  0.11864777988E+03  0.79395852312E+02 0.  0.
          5    1    3    3  501    0  0.61449107341E+02  0.17645797505E+02 -0.59215567542E+01  0.64377960491E+02  0.47000000000E+01 0. -1.
        -13    1    4    4    0    0  0.27363148350E+01 -0.10750132373E+02 -0.21327776550E+02  0.24040108517E+02  0.00000000000E+00 0.  1.
         14    1    4    4    0    0 -0.73577133459E+02  0.75911968723E+02 -0.48830903238E+01  0.10583036490E+03  0.00000000000E+00 0. -1.
         -5    1    5    5    0  502  0.23590964094E+02  0.57268415128E-01  0.76131772043E+02  0.79841552971E+02  0.47000000000E+01 0.  1.
         13    1    6    6    0    0  0.14995725289E+02 -0.61912446686E+02  0.13199613484E+02  0.65055765522E+02  0.00000000000E+00 0. -1.
        -14    1    6    6    0    0 -0.29194978101E+02 -0.20952455585E+02 -0.39758670268E+02  0.53592014357E+02  0.00000000000E+00 0.  1.
</event>
<event>
12    1  0.8271773E-002  0.1856615E+03  0.7818608E-02  0.1162551E+00
         21   -1    0    0  503  502  0.00000000000E+00  0.00000000000E+00  0.33562802906E+03  0.33562802906E+03  0.00000000000E+00 0.  1.
         21   -1    0    0  501  503 -0.00000000000E+00 -0.00000000000E+00 -0.10651763227E+03  0.10651763227E+03  0.00000000000E+00 0.  1.
          6    2    1    2  501    0  0.39514221710E+02 -0.57650723149E+02  0.71368253419E+02  0.19890604258E+03  0.17200350747E+03 0.  0.
         24    2    3    3    0    0  0.26866625607E+02  0.16725768648E+02 -0.12484341460E+02  0.86011525943E+02  0.78997195552E+02 0.  0.
         -6    2    1    2    0  502 -0.39514221710E+02  0.57650723149E+02  0.15774214337E+03  0.24323961875E+03  0.17145830029E+03 0.  0.
        -24    2    5    5    0    0 -0.41525076188E+02  0.10407161000E+03  0.11608674511E+03  0.18066003361E+03  0.81281507084E+02 0.  0.
          5    1    3    3  501    0  0.12647596103E+02 -0.74376491797E+02  0.83852594880E+02  0.11289451664E+03  0.47000000000E+01 0. -1.
        -11    1    4    4    0    0 -0.18429009558E+02  0.19070323830E+02  0.17378735115E+02  0.31706877463E+02  0.00000000000E+00 0.  1.
         12    1    4    4    0    0  0.45295635165E+02 -0.23445551819E+01 -0.29863076575E+02  0.54304648480E+02  0.00000000000E+00 0. -1.
         -5    1    5    5    0  502  0.20108544785E+01 -0.46420886851E+02  0.41655398261E+02  0.62579585138E+02  0.47000000000E+01 0.  1.
         13    1    6    6    0    0 -0.58859827461E+01  0.54508256589E+01 -0.12427754884E+02  0.14792071684E+02  0.00000000000E+00 0. -1.
        -14    1    6    6    0    0 -0.35639093442E+02  0.98620784341E+02  0.12851449999E+03  0.16586796193E+03  0.00000000000E+00 0.  1.
</event>
<event>
12    1  0.8271773E-002  0.1934886E+03  0.7818608E-02  0.1155885E+00
         21   -1    0    0  501  502  0.00000000000E+00  0.00000000000E+00  0.15227032442E+03  0.15227032442E+03  0.00000000000E+00 0. -1.
         21   -1    0    0  502  503 -0.00000000000E+00 -0.00000000000E+00 -0.56527704670E+03  0.56527704670E+03  0.00000000000E+00 0. -1.
         -6    2    1    2    0  503 -0.48904575562E+02 -0.68064721463E+02 -0.47802910213E+03  0.51570309037E+03  0.17439435518E+03 0.  0.
        -24    2    3    3    0    0 -0.65841375677E+02 -0.92031327212E+02 -0.46466700059E+03  0.48311644975E+03  0.68419519490E+02 0.  0.
          6    2    1    2  501    0  0.48904575562E+02  0.68064721463E+02  0.65022379851E+02  0.20184428075E+03  0.17172285804E+03 0.  0.
         24    2    5    5    0    0  0.38913663153E+02 -0.61213744284E+01  0.86421207902E+02  0.12384815908E+03  0.79485828465E+02 0.  0.
          5    1    5    5  501    0  0.99909124085E+01  0.74186095891E+02 -0.21398828051E+02  0.77996121675E+02  0.47000000000E+01 0. -1.
        -11    1    6    6    0    0  0.17640942951E+02 -0.42790906540E+02  0.46811955941E+02  0.65830264846E+02  0.00000000000E+00 0.  1.
         12    1    6    6    0    0  0.21272720203E+02  0.36669532112E+02  0.39609251961E+02  0.58017894231E+02  0.00000000000E+00 0. -1.
         -5    1    3    3    0  503  0.16936800115E+02  0.23966605749E+02 -0.13362101540E+02  0.32586640618E+02  0.47000000000E+01 0.  1.
         11    1    4    4    0    0 -0.26478872504E+02 -0.71197231930E+02 -0.18600508723E+03  0.20091806539E+03  0.00000000000E+00 0. -1.
        -12    1    4    4    0    0 -0.39362503173E+02 -0.20834095281E+02 -0.27866191336E+03  0.28219838436E+03  0.00000000000E+00 0.  1.
</event>
<event>
12    1  0.8271773E-002  0.1934198E+03  0.7818608E-02  0.1156875E+00
         21   -1    0    0  501  502  0.00000000000E+00  0.00000000000E+00  0.37805229613E+03  0.37805229613E+03  0.00000000000E+00 0. -1.
         21   -1    0    0  502  503 -0.00000000000E+00 -0.00000000000E+00 -0.95693709096E+02  0.95693709096E+02  0.00000000000E+00 0. -1.
         -6    2    1    2    0  503 -0.29836175875E+02 -0.68413351946E+02  0.13377320869E+03  0.22984269306E+03  0.17135287589E+03 0.  0.
        -24    2    3    3    0    0 -0.46543754077E+02 -0.84640661497E+02  0.15388206465E+03  0.19871513562E+03  0.80483865969E+02 0.  0.
          6    2    1    2  501    0  0.29836175875E+02  0.68413351946E+02  0.14858537835E+03  0.24390331217E+03  0.17843942085E+03 0.  0.
         24    2    5    5    0    0 -0.20818283192E+02  0.10194108894E+03  0.96692923441E+02  0.16387269148E+03  0.81727296782E+02 0.  0.
          5    1    5    5  501    0  0.50654459068E+02 -0.33527736995E+02  0.51892454906E+02  0.80030620688E+02  0.47000000000E+01 0. -1.
        -13    1    6    6    0    0 -0.34199082625E+01 -0.14032666557E+02  0.60732693329E+01  0.15668315277E+02  0.00000000000E+00 0.  1.
         14    1    6    6    0    0 -0.17398374930E+02  0.11597375550E+03  0.90619654108E+02  0.14820437620E+03  0.00000000000E+00 0. -1.
         -5    1    3    3    0  503  0.16707578202E+02  0.16227309551E+02 -0.20108855957E+02  0.31127557446E+02  0.47000000000E+01 0.  1.
         13    1    4    4    0    0  0.20021303418E+02 -0.37440723171E+02  0.37962510414E+02  0.56954477779E+02  0.00000000000E+00 0. -1.
        -14    1    4    4    0    0 -0.66565057495E+02 -0.47199938325E+02  0.11591955423E+03  0.14176065784E+03  0.00000000000E+00 0.  1.
</event>
<event>
12    1  0.8271773E-002  0.1910589E+03  0.7818608E-02  0.1157984E+00
         21   -1    0    0  503  502  0.00000000000E+00  0.00000000000E+00  0.13751691146E+03  0.13751691146E+03  0.00000000000E+00 0. -1.
         21   -1    0    0  501  503 -0.00000000000E+00 -0.00000000000E+00 -0.33691873155E+03  0.33691873155E+03  0.00000000000E+00 0. -1.
          6    2    1    2  501    0  0.57206129446E+02 -0.53594152323E+02 -0.21073340671E+03  0.28304100231E+03  0.17192662934E+03 0.  0.
         24    2    3    3    0    0  0.10033809413E+03 -0.22645813475E+02 -0.11365284136E+03  0.17229402843E+03  0.78661921413E+02 0.  0.
         -6    2    1    2    0  502 -0.57206129446E+02  0.53594152323E+02  0.11331586616E+02  0.19139464070E+03  0.17423727852E+03 0.  0.
        -24    2    5    5    0    0  0.16393691759E+02  0.67768290177E+02  0.29134193123E+02  0.11421392638E+03  0.85643011896E+02 0.  0.
          5    1    3    3  501    0 -0.43131964688E+02 -0.30948338848E+02 -0.97080565344E+02  0.11074697388E+03  0.47000000000E+01 0. -1.
        -11    1    4    4    0    0  0.71875490264E+02 -0.41518019436E+02 -0.42237962870E+02  0.93133654207E+02  0.00000000000E+00 0.  1.
         12    1    4    4    0    0  0.28462603870E+02  0.18872205961E+02 -0.71414878495E+02  0.79160374224E+02  0.00000000000E+00 0. -1.
         -5    1    5    5    0  502 -0.73599821206E+02 -0.14174137854E+02 -0.17802606507E+02  0.77180714326E+02  0.47000000000E+01 0.  1.
         11    1    6    6    0    0 -0.14783566905E+02  0.76539910747E+02  0.18434186748E+02  0.80104500676E+02  0.00000000000E+00 0. -1.
        -12    1    6    6    0    0  0.31177258664E+02 -0.87716205698E+01  0.10700006376E+02  0.34109425701E+02  0.00000000000E+00 0.  1.
</event>
<event>
12    1  0.8271773E-002  0.1840904E+03  0.7818608E-02  0.1165342E+00
         21   -1    0    0  501  502  0.00000000000E+00  0.00000000000E+00  0.96971421822E+02  0.96971421822E+02  0.00000000000E+00 0.  1.
         21   -1    0    0  502  503 -0.00000000000E+00 -0.00000000000E+00 -0.41039329511E+03  0.41039329511E+03  0.00000000000E+00 0.  1.
         -6    2    1    2    0  503  0.28663142811E+02  0.34954513259E+02 -0.26099352011E+03  0.31595418528E+03  0.17223831136E+03 0.  0.
        -24    2    3    3    0    0 -0.52489817454E+01  0.84084698625E+02 -0.16140445483E+03  0.19974799255E+03  0.82158834788E+02 0.  0.
          6    2    1    2  501    0 -0.28663142811E+02 -0.34954513259E+02 -0.52428353178E+02  0.19141053166E+03  0.17845409959E+03 0.  0.
         24    2    5    5    0    0  0.42917685173E+02 -0.46667247660E+02  0.89696748320E+00  0.10126241517E+03  0.78952596356E+02 0.  0.
          5    1    5    5  501    0 -0.71580827984E+02  0.11712734400E+02 -0.53325320662E+02  0.90148116485E+02  0.47000000000E+01 0. -1.
        -11    1    6    6    0    0  0.23967759837E+02 -0.62910293739E+02 -0.18312297006E+02  0.69767462270E+02  0.00000000000E+00 0.  1.
         12    1    6    6    0    0  0.18949925336E+02  0.16243046080E+02  0.19209264489E+02  0.31494952904E+02  0.00000000000E+00 0. -1.
         -5    1    3    3    0  503  0.33912124557E+02 -0.49130185365E+02 -0.99589065277E+02  0.11620619273E+03  0.47000000000E+01 0.  1.
         13    1    4    4    0    0  0.38020925609E+02  0.37998943790E+02 -0.63353543490E+02  0.83085389727E+02  0.00000000000E+00 0. -1.
        -14    1    4    4    0    0 -0.43269907354E+02  0.46085754835E+02 -0.98050911345E+02  0.11666260282E+03  0.00000000000E+00 0.  1.
</event>
<event>
12    1  0.8271773E-002  0.3829591E+03  0.7818608E-02  0.1049894E+00
         21   -1    0    0  503  502  0.00000000000E+00  0.00000000000E+00  0.46083735598E+03  0.46083735598E+03  0.00000000000E+00 0.  1.
         21   -1    0    0  501  503 -0.00000000000E+00 -0.00000000000E+00 -0.50977220720E+03  0.50977220720E+03  0.00000000000E+00 0.  1.
          6    2    1    2  501    0  0.19080100313E+03  0.28319705008E+03 -0.32226865634E+03  0.50011086927E+03  0.17218653472E+03 0.  0.
         24    2    3    3    0    0  0.17913527928E+03  0.14579692793E+03 -0.19563420436E+03  0.31283231442E+03  0.79026087816E+02 0.  0.
         -6    2    1    2    0  502 -0.19080100313E+03 -0.28319705008E+03  0.27333380512E+03  0.47049869391E+03  0.17335529984E+03 0.  0.
        -24    2    5    5    0    0 -0.79300838340E+02 -0.11140760573E+03  0.18641439199E+03  0.24796560802E+03  0.89645633714E+02 0.  0.
          5    1    3    3  501    0  0.11665723856E+02  0.13740012215E+03 -0.12663445198E+03  0.18727855485E+03  0.47000000000E+01 0. -1.
        -11    1    4    4    0    0  0.15886040304E+03  0.12000060729E+03 -0.12534357573E+03  0.23526110044E+03  0.00000000000E+00 0.  1.
         12    1    4    4    0    0  0.20274876238E+02  0.25796320640E+02 -0.70290628636E+02  0.77571213985E+02  0.00000000000E+00 0. -1.
         -5    1    5    5    0  502 -0.11150016479E+03 -0.17178944435E+03  0.86919413130E+02  0.22253308589E+03  0.47000000000E+01 0.  1.
         13    1    6    6    0    0  0.62075348529E+01 -0.27294985063E+02  0.21137187601E+01  0.28071649498E+02  0.00000000000E+00 0. -1.
        -14    1    6    6    0    0 -0.85508373192E+02 -0.84112620663E+02  0.18430067323E+03  0.21989395852E+03  0.00000000000E+00 0.  1.
</event>
<event>
12    1  0.8271773E-002  0.1961037E+03  0.7818608E-02  0.1153342E+00
         21   -1    0    0  503  502  0.00000000000E+00  0.00000000000E+00  0.59126888862E+02  0.59126888862E+02  0.00000000000E+00 0. -1.
         21   -1    0    0  501  503 -0.00000000000E+00 -0.00000000000E+00 -0.64913652089E+03  0.64913652089E+03  0.00000000000E+00 0.  1.
          6    2    1    2  501    0 -0.72972521476E+02  0.59469987603E+02 -0.31957857937E+03  0.37494951436E+03  0.17203197845E+03 0.  0.
         24    2    3    3    0    0 -0.74983940932E+02  0.88638984422E+02 -0.32078859619E+03  0.34531118909E+03  0.53432507984E+02 0.  0.
         -6    2    1    2    0  502  0.72972521476E+02 -0.59469987603E+02 -0.27043105266E+03  0.33331389539E+03  0.17059756829E+03 0.  0.
        -24    2    5    5    0    0 -0.86700791026E+00  0.21999264461E+02 -0.92906616624E+02  0.12444424580E+03  0.79812352183E+02 0.  0.
          5    1    3    3  501    0  0.20114194553E+01 -0.29168996819E+02  0.12100168228E+01  0.29638325263E+02  0.47000000000E+01 0. -1.
        -13    1    4    4    0    0 -0.72125511594E+02  0.48689577053E+02 -0.23617876984E+03  0.25170056746E+03  0.00000000000E+00 0.  1.
         14    1    4    4    0    0 -0.28584293375E+01  0.39949407369E+02 -0.84609826347E+02  0.93610621629E+02  0.00000000000E+00 0. -1.
         -5    1    5    5    0  502  0.73839529387E+02 -0.81469252064E+02 -0.17752443603E+03  0.20886964959E+03  0.47000000000E+01 0.  1.
         13    1    6    6    0    0  0.39814707749E+01  0.50471464783E+02 -0.41431936339E+02  0.65420380736E+02  0.00000000000E+00 0. -1.
        -14    1    6    6    0    0 -0.48484786852E+01 -0.28472200322E+02 -0.51474680285E+02  0.59023865065E+02  0.00000000000E+00 0.  1.
</event>
<event>
12    1  0.8271773E-002  0.2188203E+03  0.7818608E-02  0.1134861E+00
         21   -1    0    0  501  502  0.00000000000E+00  0.00000000000E+00  0.90864071008E+02  0.90864071008E+02  0.00000000000E+00 0.  1.
         21   -1    0    0  502  503 -0.00000000000E+00 -0.00000000000E+00 -0.93946667397E+03  0.93946667397E+03  0.00000000000E+00 0.  1.
         -6    2    1    2    0  503 -0.12552333144E+02  0.13431991834E+03 -0.76644412883E+03  0.79706894991E+03  0.17228727971E+03 0.  0.
        -24    2    3    3    0    0 -0.62803598561E+02  0.34447966642E+02 -0.38680901604E+03  0.40128554288E+03  0.79233311405E+02 0.  0.
          6    2    1    2  501    0  0.12552333144E+02 -0.13431991834E+03 -0.82158474127E+02  0.23326179507E+03  0.17164395893E+03 0.  0.
         24    2    5    5    0    0  0.19738468571E+02 -0.11183336483E+02  0.27381221670E+01  0.83449310953E+02  0.80259678725E+02 0.  0.
          5    1    5    5  501    0 -0.71861354278E+01 -0.12313658186E+03 -0.84896596294E+02  0.14981248412E+03  0.47000000000E+01 0. -1.
        -11    1    6    6    0    0  0.32146602240E+02 -0.84302015427E+01 -0.32198078512E+02  0.46272979086E+02  0.00000000000E+00 0.  1.
         12    1    6    6    0    0 -0.12408133669E+02 -0.27531349404E+01  0.34936200679E+02  0.37176331866E+02  0.00000000000E+00 0. -1.
         -5    1    3    3    0  503  0.50251265417E+02  0.99871951703E+02 -0.37963511279E+03  0.39578340703E+03  0.47000000000E+01 0.  1.
         11    1    4    4    0    0 -0.51165798440E+02 -0.16468025813E+02 -0.17113781689E+03  0.17938028647E+03  0.00000000000E+00 0. -1.
        -12    1    4    4    0    0 -0.11637800120E+02  0.50915992455E+02 -0.21567119915E+03  0.22190525641E+03  0.00000000000E+00 0.  1.
</event>
<event>
12    1  0.8271773E-002  0.1733712E+03  0.7818608E-02  0.1174610E+00
         21   -1    0    0  501  502  0.00000000000E+00  0.00000000000E+00  0.80026472081E+02  0.80026472081E+02  0.00000000000E+00 0. -1.
         21   -1    0    0  502  503 -0.00000000000E+00 -0.00000000000E+00 -0.37956927318E+03  0.37956927318E+03  0.00000000000E+00 0. -1.
         -6    2    1    2    0  503  0.54207467728E+01  0.15095923730E+02 -0.17892743207E+03  0.24914373246E+03  0.17262763993E+03 0.  0.
        -24    2    3    3    0    0 -0.38455192637E+02  0.48760664667E+02 -0.16179771871E+03  0.19105819277E+03  0.80425909905E+02 0.  0.
          6    2    1    2  501    0 -0.54207467728E+01 -0.15095923730E+02 -0.12061536903E+03  0.21045201280E+03  0.17171112672E+03 0.  0.
         24    2    5    5    0    0 -0.28650832768E+02 -0.65350689956E+02 -0.80430964614E+02  0.14188048240E+03  0.92570774660E+02 0.  0.
          5    1    5    5  501    0  0.23230085995E+02  0.50254766226E+02 -0.40184404413E+02  0.68571530403E+02  0.47000000000E+01 0. -1.
        -11    1    6    6    0    0 -0.11113570108E+02 -0.78791088876E+02 -0.87891247687E+02  0.11855976783E+03  0.00000000000E+00 0.  1.
         12    1    6    6    0    0 -0.17537262660E+02  0.13440398920E+02  0.74602830736E+01  0.23320714574E+02  0.00000000000E+00 0. -1.
         -5    1    3    3    0  503  0.43875939410E+02 -0.33664740937E+02 -0.17129713362E+02  0.58085539692E+02  0.47000000000E+01 0.  1.
         11    1    4    4    0    0 -0.31696212334E+02 -0.16670516796E+02 -0.58788543014E+02  0.68837844216E+02  0.00000000000E+00 0. -1.
        -12    1    4    4    0    0 -0.67589803035E+01  0.65431181463E+02 -0.10300917570E+03  0.12222034855E+03  0.00000000000E+00 0.  1.
</event>
<event>
12    1  0.8271773E-002  0.7842365E+03  0.7818608E-02  0.9584007E-01
         21   -1    0    0  501  502  0.00000000000E+00  0.00000000000E+00  0.17557901780E+04  0.17557901780E+04  0.00000000000E+00 0. -1.
         21   -1    0    0  502  503 -0.00000000000E+00 -0.00000000000E+00 -0.48674843541E+03  0.48674843541E+03  0.00000000000E+00 0.  1.
         -6    2    1    2    0  503 -0.11051935032E+03  0.75435682830E+03  0.37811849561E+02  0.78275991099E+03  0.17324719648E+03 0.  0.
        -24    2    3    3    0    0 -0.62440986177E+01  0.49375016762E+03  0.43077341061E+02  0.50197712108E+03  0.79354621693E+02 0.  0.
          6    2    1    2  501    0  0.11051935032E+03 -0.75435682830E+03  0.12312298931E+04  0.14597787025E+04  0.18373366424E+03 0.  0.
         24    2    5    5    0    0  0.60634636043E+02 -0.17780369863E+03  0.36512327472E+03  0.41811428414E+03  0.78827879109E+02 0.  0.
          5    1    5    5  501    0  0.49884714279E+02 -0.57655312967E+03  0.86610661835E+03  0.10416644183E+04  0.47000000000E+01 0. -1.
        -13    1    6    6    0    0  0.76231346991E+02 -0.16901299326E+03  0.32477939697E+03  0.37397629183E+03  0.00000000000E+00 0.  1.
         14    1    6    6    0    0 -0.15596710949E+02 -0.87907053734E+01  0.40343877742E+02  0.44137992304E+02  0.00000000000E+00 0. -1.
         -5    1    3    3    0  503 -0.10427525170E+03  0.26060666068E+03 -0.52654914997E+01  0.28078278991E+03  0.47000000000E+01 0.  1.
         13    1    4    4    0    0 -0.10404745826E+02  0.97377676060E+02 -0.21746295641E+02  0.10031735595E+03  0.00000000000E+00 0. -1.
        -14    1    4    4    0    0  0.41606472084E+01  0.39637249156E+03  0.64823636702E+02  0.40165976513E+03  0.00000000000E+00 0.  1.
</event>
<event>
12    1  0.8271773E-002  0.2057100E+03  0.7818608E-02  0.1145042E+00
         21   -1    0    0  501  502  0.00000000000E+00  0.00000000000E+00  0.13463399542E+03  0.13463399542E+03  0.00000000000E+00 0. -1.
         21   -1    0    0  502  503 -0.00000000000E+00 -0.00000000000E+00 -0.53794558385E+03  0.53794558385E+03  0.00000000000E+00 0. -1.
         -6    2    1    2    0  503 -0.20602333539E+01  0.11311515870E+03 -0.41855857355E+03  0.46630533258E+03  0.17161031440E+03 0.  0.
        -24    2    3    3    0    0 -0.33377417684E+02  0.36774931785E+02 -0.33533376896E+03  0.34901486246E+03  0.83043301954E+02 0.  0.
          6    2    1    2  501    0  0.20602333539E+01 -0.11311515870E+03  0.15246985117E+02  0.20627424669E+03  0.17180602610E+03 0.  0.
         24    2    5    5    0    0 -0.36206692727E+01 -0.98425410205E+01 -0.36776123697E+02  0.90403628901E+02  0.81916713707E+02 0.  0.
          5    1    5    5  501    0  0.56809026265E+01 -0.10327261768E+03  0.52023108814E+02  0.11587061779E+03  0.47000000000E+01 0. -1.
        -11    1    6    6    0    0 -0.33163792700E+02  0.21246747726E+02 -0.21531533473E+02  0.44887285158E+02  0.00000000000E+00 0.  1.
         12    1    6    6    0    0  0.29543123427E+02 -0.31089288746E+02 -0.15244590224E+02  0.45516343742E+02  0.00000000000E+00 0. -1.
         -5    1    3    3    0  503  0.31317184330E+02  0.76340226916E+02 -0.83224804592E+02  0.11729047011E+03  0.47000000000E+01 0.  1.
         13    1    4    4    0    0  0.15738871662E+02  0.35843123488E+02 -0.22298953616E+03  0.22639959103E+03  0.00000000000E+00 0. -1.
        -14    1    4    4    0    0 -0.49116289345E+02  0.93180829650E+00 -0.11234423279E+03  0.12261527143E+03  0.00000000000E+00 0.  1.
</event>
<event>
12    1  0.8271773E-002  0.2393513E+03  0.7818608E-02  0.1120691E+00
         21   -1    0    0  503  502  0.00000000000E+00  0.00000000000E+00  0.13932184267E+03  0.13932184267E+03  0.00000000000E+00 0. -1.
         21   -1    0    0  501  503 -0.00000000000E+00 -0.00000000000E+00 -0.48918594780E+03  0.48918594780E+03  0.00000000000E+00 0.  1.
          6    2    1    2  501    0 -0.15217456588E+03 -0.68413000259E+02 -0.44855529162E+02  0.24079747637E+03  0.16773183664E+03 0.  0.
         24    2    3    3    0    0 -0.12825480821E+03 -0.10003081282E+03 -0.14439081938E+01  0.18181866904E+03  0.81243364029E+02 0.  0.
         -6    2    1    2    0  502  0.15217456588E+03  0.68413000259E+02 -0.30500857597E+03  0.38771031411E+03  0.17161474047E+03 0.  0.
        -24    2    5    5    0    0  0.10446855913E+03  0.78804142759E+02 -0.30196216184E+03  0.33856553248E+03  0.79509117967E+02 0.  0.
          5    1    3    3  501    0 -0.23919757671E+02  0.31617812564E+02 -0.43411620968E+02  0.58978807325E+02  0.47000000000E+01 0. -1.
        -13    1    4    4    0    0  0.11031949364E+02 -0.72218251484E+01  0.55310513893E+01  0.14298643107E+02  0.00000000000E+00 0.  1.
         14    1    4    4    0    0 -0.13928675757E+03 -0.92808987676E+02 -0.69749595831E+01  0.16752002593E+03  0.00000000000E+00 0. -1.
         -5    1    5    5    0  502  0.47706006746E+02 -0.10391142499E+02 -0.30464141351E+01  0.49144781627E+02  0.47000000000E+01 0.  1.
         13    1    6    6    0    0  0.16025392368E+02  0.35835951479E+01 -0.15459899905E+01  0.16493800041E+02  0.00000000000E+00 0. -1.
        -14    1    6    6    0    0  0.88443166762E+02  0.75220547611E+02 -0.30041617185E+03  0.32207173244E+03  0.00000000000E+00 0.  1.
</event>
<event>
12    1  0.8271773E-002  0.1837600E+03  0.7818608E-02  0.1164595E+00
         21   -1    0    0  503  502  0.00000000000E+00  0.00000000000E+00  0.52178053169E+02  0.52178053169E+02  0.00000000000E+00 0. -1.
         21   -1    0    0  501  503 -0.00000000000E+00 -0.00000000000E+00 -0.10075937444E+04  0.10075937444E+04  0.00000000000E+00 0. -1.
          6    2    1    2  501    0  0.30968357699E+02  0.51614730529E+02 -0.79576754556E+03  0.81634773052E+03  0.17191425469E+03 0.  0.
         24    2    3    3    0    0 -0.11571202401E+02  0.89478474138E+02 -0.61343299652E+03  0.62526854528E+03  0.80749132799E+02 0.  0.
         -6    2    1    2    0  502 -0.30968357699E+02 -0.51614730529E+02 -0.15964814569E+03  0.24342406707E+03  0.17362207930E+03 0.  0.
        -24    2    5    5    0    0 -0.64694585569E+02 -0.36643303182E+02 -0.33637040957E+02  0.11203726941E+03  0.76764432802E+02 0.  0.
          5    1    3    3  501    0  0.42539560100E+02 -0.37863743610E+02 -0.18233454905E+03  0.19107918523E+03  0.47000000000E+01 0. -1.
        -11    1    4    4    0    0 -0.12289100171E+02  0.10140205074E+02 -0.15963353166E+02  0.22553810903E+02  0.00000000000E+00 0.  1.
         12    1    4    4    0    0  0.71789776910E+00  0.79338269064E+02 -0.59746964335E+03  0.60271473438E+03  0.00000000000E+00 0. -1.
         -5    1    5    5    0  502  0.33726227870E+02 -0.14971427346E+02 -0.12601110473E+03  0.13138679766E+03  0.47000000000E+01 0.  1.
         13    1    6    6    0    0 -0.73610051282E+02 -0.50856072704E+02 -0.32614244846E+02  0.95228508060E+02  0.00000000000E+00 0. -1.
        -14    1    6    6    0    0  0.89154657131E+01  0.14212769521E+02 -0.10227961112E+01  0.16808761353E+02  0.00000000000E+00 0.  1.
</event>
<event>
12    1  0.8271773E-002  0.1986689E+03  0.7818608E-02  0.1151238E+00
         21   -1    0    0  501  502  0.00000000000E+00  0.00000000000E+00  0.13783686325E+03  0.13783686325E+03  0.00000000000E+00 0. -1.
         21   -1    0    0  502  503 -0.00000000000E+00 -0.00000000000E+00 -0.28972699507E+03  0.28972699507E+03  0.00000000000E+00 0. -1.
         -6    2    1    2    0  503 -0.48629585997E+02  0.86168447217E+02 -0.10670971322E+03  0.22551341757E+03  0.17227739456E+03 0.  0.
        -24    2    3    3    0    0 -0.15952801422E+01  0.20921664527E+02 -0.11814268074E+03  0.14413669286E+03  0.79858827002E+02 0.  0.
          6    2    1    2  501    0  0.48629585997E+02 -0.86168447217E+02 -0.45180418602E+02  0.20205044075E+03  0.17027410976E+03 0.  0.
         24    2    5    5    0    0  0.31122984972E+02  0.13646544251E+02 -0.50450478723E+02  0.10046610567E+03  0.79958234227E+02 0.  0.
          5    1    5    5  501    0  0.17506601025E+02 -0.99814991467E+02  0.52700601216E+01  0.10158433509E+03  0.47000000000E+01 0. -1.
        -13    1    6    6    0    0  0.32503762219E+02  0.32711691698E+02  0.42675960857E+00  0.46116498738E+02  0.00000000000E+00 0.  1.
         14    1    6    6    0    0 -0.13807772468E+01 -0.19065147447E+02 -0.50877238332E+02  0.54349606928E+02  0.00000000000E+00 0. -1.
         -5    1    3    3    0  503 -0.47034305855E+02  0.65246782689E+02  0.11432967519E+02  0.81376724712E+02  0.47000000000E+01 0.  1.
         11    1    4    4    0    0  0.35959402433E+02  0.20008692087E+02 -0.83252488009E+02  0.92867664675E+02  0.00000000000E+00 0. -1.
        -12    1    4    4    0    0 -0.37554682575E+02  0.91297244012E+00 -0.34890192728E+02  0.51269028181E+02  0.00000000000E+00 0.  1.
</event>
<event>
12    1  0.8271773E-002  0.3202065E+03  0.7818608E-02  0.1075774E+00
         21   -1    0    0  501  502  0.00000000000E+00  0.00000000000E+00  0.12238688697E+04  0.12238688697E+04  0.00000000000E+00 0.  1.
         21   -1    0    0  502  503 -0.00000000000E+00 -0.00000000000E+00 -0.11536011316E+03  0.11536011316E+03  0.00000000000E+00 0. -1.
         -6    2    1    2    0  503  0.22745298330E+03  0.14315896725E+03  0.20233483145E+03  0.37877641793E+03  0.17407711293E+03 0.  0.
        -24    2    3    3    0    0  0.24738631820E+03  0.13225065547E+03  0.16522340660E+03  0.33500797084E+03  0.79002152712E+02 0.  0.
          6    2    1    2  501    0 -0.22745298330E+03 -0.14315896725E+03  0.90617392512E+03  0.96045256497E+03  0.17055379643E+03 0.  0.
         24    2    5    5    0    0 -0.17341426453E+03 -0.32072807161E+02  0.58396370458E+03  0.61534122887E+03  0.80808709744E+02 0.  0.
          5    1    5    5  501    0 -0.54038718766E+02 -0.11108616009E+03  0.32221022054E+03  0.34511133611E+03  0.47000000000E+01 0. -1.
        -13    1    6    6    0    0 -0.13914962455E+03 -0.33803909602E+02  0.54466225309E+03  0.56317163659E+03  0.00000000000E+00 0.  1.
         14    1    6    6    0    0 -0.34264639985E+02  0.17311024409E+01  0.39301451488E+02  0.52169592274E+02  0.00000000000E+00 0. -1.
         -5    1    3    3    0  503 -0.19933334902E+02  0.10908311777E+02  0.37111424850E+02  0.43768447089E+02  0.47000000000E+01 0.  1.
         13    1    4    4    0    0  0.14382992771E+03  0.52087462360E+02  0.51040311483E+02  0.16126148094E+03  0.00000000000E+00 0. -1.
        -14    1    4    4    0    0  0.10355639049E+03  0.80163193110E+02  0.11418309512E+03  0.17374648990E+03  0.00000000000E+00 0.  1.
</event>
<event>
12    1  0.8271773E-002  0.1793182E+03  0.7818608E-02  0.1169511E+00
         21   -1    0    0  503  502  0.00000000000E+00  0.00000000000E+00  0.14177293479E+03  0.14177293479E+03  0.00000000000E+00 0. -1.
         21   -1    0    0  501  503 -0.00000000000E+00 -0.00000000000E+00 -0.29575373871E+03  0.29575373871E+03  0.00000000000E+00 0. -1.
          6    2    1    2  501    0 -0.15338814299E+02 -0.47310195841E+02 -0.18731498086E+03  0.25931045175E+03  0.17228312302E+03 0.  0.
         24    2    3    3    0    0  0.28681044968E+02  0.14524892189E+02 -0.32613882497E+02  0.86927604702E+02  0.73886184731E+02 0.  0.
         -6    2    1    2    0  502  0.15338814299E+02  0.47310195841E+02  0.33334176940E+02  0.17821622175E+03  0.16785803670E+03 0.  0.
        -24    2    5    5    0    0 -0.35437619301E+02  0.73770414654E+02  0.61886629646E+01  0.11467601150E+03  0.80089881539E+02 0.  0.
          5    1    3    3  501    0 -0.44019859267E+02 -0.61835088030E+02 -0.15470109837E+03  0.17238284705E+03  0.47000000000E+01 0. -1.
        -11    1    4    4    0    0 -0.54949416773E+01 -0.14229122887E+02  0.15175505900E+02  0.21516465822E+02  0.00000000000E+00 0.  1.
         12    1    4    4    0    0  0.34175986646E+02  0.28754015076E+02 -0.47789388397E+02  0.65411138880E+02  0.00000000000E+00 0. -1.
         -5    1    5    5    0  502  0.50776433600E+02 -0.26460218812E+02  0.27145513976E+02  0.63540210243E+02  0.47000000000E+01 0.  1.
         11    1    6    6    0    0  0.41985893368E+01  0.99611608445E+01  0.33148832045E+02  0.34866860250E+02  0.00000000000E+00 0. -1.
        -12    1    6    6    0    0 -0.39636208637E+02  0.63809253809E+02 -0.26960169080E+02  0.79809151252E+02  0.00000000000E+00 0.  1.
</event>
<event>
12    1  0.8271773E-002  0.2206067E+03  0.7818608E-02  0.1133495E+00
         21   -1    0    0  501  502  0.00000000000E+00  0.00000000000E+00  0.66772367285E+03  0.66772367285E+03  0.00000000000E+00 0. -1.
         21   -1    0    0  502  503 -0.00000000000E+00 -0.00000000000E+00 -0.12502959595E+03  0.12502959595E+03  0.00000000000E+00 0.  1.
         -6    2    1    2    0  503  0.49120358209E+02  0.12933863177E+03  0.14967522041E+02  0.22077194858E+03  0.17139117627E+03 0.  0.
        -24    2    3    3    0    0  0.45616475472E+02  0.16103549202E+03  0.19951883352E+02  0.18815443791E+03  0.83610539599E+02 0.  0.
          6    2    1    2  501    0 -0.49120358209E+02 -0.12933863177E+03  0.52772655486E+03  0.57198132022E+03  0.17183137873E+03 0.  0.
         24    2    5    5    0    0 -0.92005892689E+02 -0.54087951038E+02  0.32071662995E+03  0.34753303435E+03  0.80805089573E+02 0.  0.
          5    1    5    5  501    0  0.42885534481E+02 -0.75250680730E+02  0.20700992491E+03  0.22444828587E+03  0.47000000000E+01 0. -1.
        -11    1    6    6    0    0 -0.37178012703E+01 -0.30645336140E+01 -0.45682547034E+01  0.66394550674E+01  0.00000000000E+00 0.  1.
         12    1    6    6    0    0 -0.88288091419E+02 -0.51023417424E+02  0.32528488465E+03  0.34089357928E+03  0.00000000000E+00 0. -1.
         -5    1    3    3    0  503  0.35038827369E+01 -0.31696860253E+02 -0.49843613112E+01  0.32617510662E+02  0.47000000000E+01 0.  1.
         13    1    4    4    0    0  0.30418322282E+02  0.18989737314E+02  0.27361610253E+02  0.45105899496E+02  0.00000000000E+00 0. -1.
        -14    1    4    4    0    0  0.15198153190E+02  0.14204575471E+03 -0.74097269004E+01  0.14304853842E+03  0.00000000000E+00 0.  1.
</event>
<event>
12    1  0.8271773E-002  0.1781612E+03  0.7818608E-02  0.1169696E+00
         21   -1    0    0  503  502  0.00000000000E+00  0.00000000000E+00  0.11783342811E+03  0.11783342811E+03  0.00000000000E+00 0. -1.
         21   -1    0    0  501  503 -0.00000000000E+00 -0.00000000000E+00 -0.44793894864E+03  0.44793894864E+03  0.00000000000E+00 0. -1.
          6    2    1    2  501    0  0.44587875432E+02  0.73754024015E+01 -0.34385773745E+03  0.38708118128E+03  0.17190468900E+03 0.  0.
         24    2    3    3    0    0  0.19660082498E+01  0.47878020345E+02 -0.29750600604E+03  0.31206345920E+03  0.81102459359E+02 0.  0.
         -6    2    1    2    0  502 -0.44587875432E+02 -0.73754024015E+01  0.13752216929E+02  0.17869119547E+03  0.17233381755E+03 0.  0.
        -24    2    5    5    0    0 -0.23903488288E+02  0.49150069335E-01  0.73927435624E+02  0.11445635448E+03  0.84045298356E+02 0.  0.
          5    1    3    3  501    0  0.42621867182E+02 -0.40502617943E+02 -0.46351731414E+02  0.75017722089E+02  0.47000000000E+01 0. -1.
        -13    1    4    4    0    0  0.15170522017E+02  0.36079402340E+02 -0.48020309554E+02  0.61950126240E+02  0.00000000000E+00 0.  1.
         14    1    4    4    0    0 -0.13204513767E+02  0.11798618005E+02 -0.24948569649E+03  0.25011333296E+03  0.00000000000E+00 0. -1.
         -5    1    5    5    0  502 -0.20684387144E+02 -0.74245524708E+01 -0.60175218695E+02  0.64234840981E+02  0.47000000000E+01 0.  1.
         13    1    6    6    0    0  0.40561232472E+01  0.38528189851E+02  0.42171813743E+02  0.57265481954E+02  0.00000000000E+00 0. -1.
        -14    1    6    6    0    0 -0.27959611535E+02 -0.38479039782E+02  0.31755621881E+02  0.57190872530E+02  0.00000000000E+00 0.  1.
</event>
<event>
12    1  0.8271773E-002  0.1797045E+03  0.7818608E-02  0.1169245E+00
         21   -1    0    0  501  502  0.00000000000E+00  0.00000000000E+00  0.17567519093E+03  0.17567519093E+03  0.00000000000E+00 0. -1.
         21   -1    0    0  502  503 -0.00000000000E+00 -0.00000000000E+00 -0.31951282438E+03  0.31951282438E+03  0.00000000000E+00 0. -1.
         -6    2    1    2    0  503  0.91036561127E+01 -0.28824221192E+02 -0.23660863455E+03  0.29711505937E+03  0.17714401001E+03 0.  0.
        -24    2    3    3    0    0  0.49750516809E+02 -0.40017162050E+02 -0.23359078970E+03  0.25458687346E+03  0.78570553810E+02 0.  0.
          6    2    1    2  501    0 -0.91036561127E+01  0.28824221192E+02  0.92771001100E+02  0.19807295594E+03  0.17237379426E+03 0.  0.
         24    2    5    5    0    0  0.10854163321E+02  0.66996327718E+02  0.10904118076E+03  0.15178869274E+03  0.80891948639E+02 0.  0.
          5    1    5    5  501    0 -0.19957819434E+02 -0.38172106526E+02 -0.16270179658E+02  0.46284263193E+02  0.47000000000E+01 0. -1.
        -11    1    6    6    0    0 -0.69522021562E+01  0.57092125415E+02  0.20695837978E+02  0.61124149146E+02  0.00000000000E+00 0.  1.
         12    1    6    6    0    0  0.17806365477E+02  0.99042023028E+01  0.88345342780E+02  0.90664543597E+02  0.00000000000E+00 0. -1.
         -5    1    3    3    0  503 -0.40646860696E+02  0.11192940858E+02 -0.30178448536E+01  0.42528185913E+02  0.47000000000E+01 0.  1.
         11    1    4    4    0    0  0.84123572261E+01  0.41715164129E+01 -0.15556094700E+03  0.15584408085E+03  0.00000000000E+00 0. -1.
        -12    1    4    4    0    0  0.41338159583E+02 -0.44188678463E+02 -0.78029842697E+02  0.98742792614E+02  0.00000000000E+00 0.  1.
</event>
<event>
12    1  0.8271773E-002  0.2004152E+03  0.7818608E-02  0.1149600E+00
         21   -1    0    0  503  502  0.00000000000E+00  0.00000000000E+00  0.25271646241E+03  0.25271646241E+03  0.00000000000E+00 0.  1.
         21   -1    0    0  501  503 -0.00000000000E+00 -0.00000000000E+00 -0.15842648870E+03  0.15842648870E+03  0.00000000000E+00 0. -1.
          6    2    1    2  501    0  0.94722492419E+02 -0.39761519673E+02  0.38393123779E+02  0.20307876634E+03  0.17091993555E+03 0.  0.
         24    2    3    3    0    0  0.29105703405E+02 -0.84211369602E+02  0.11346059157E+02  0.11920394376E+03  0.78371872555E+02 0.  0.
         -6    2    1    2    0  502 -0.94722492419E+02  0.39761519673E+02  0.55896849934E+02  0.20806418477E+03  0.17208404382E+03 0.  0.
        -24    2    5    5    0    0 -0.75559913255E+02 -0.39032709095E+02  0.55681624071E+02  0.12683690334E+03  0.75857128329E+02 0.  0.
          5    1    3    3  501    0  0.65616789014E+02  0.44449849928E+02  0.27047064621E+02  0.83874822586E+02  0.47000000000E+01 0. -1.
        -11    1    4    4    0    0  0.30745145510E+02 -0.57284898068E+02  0.42745694850E+02  0.77807569987E+02  0.00000000000E+00 0.  1.
         12    1    4    4    0    0 -0.16394421049E+01 -0.26926471534E+02 -0.31399635692E+02  0.41396373770E+02  0.00000000000E+00 0. -1.
         -5    1    5    5    0  502 -0.19162579164E+02  0.78794228768E+02  0.21522586314E+00  0.81227281437E+02  0.47000000000E+01 0.  1.
         13    1    6    6    0    0 -0.57674546527E+02 -0.39657924217E+02  0.17521197953E+01  0.70015528235E+02  0.00000000000E+00 0. -1.
        -14    1    6    6    0    0 -0.17885366728E+02  0.62521512159E+00  0.53929504276E+02  0.56821375101E+02  0.00000000000E+00 0.  1.
</event>
<event>
12    1  0.8271773E-002  0.5518703E+03  0.7818608E-02  0.1001063E+00
         21   -1    0    0  503  502  0.00000000000E+00  0.00000000000E+00  0.95038008652E+03  0.95038008652E+03  0.00000000000E+00 0. -1.
         21   -1    0    0  501  503 -0.00000000000E+00 -0.00000000000E+00 -0.34020612559E+03  0.34020612559E+03  0.00000000000E+00 0.  1.
          6    2    1    2  501    0  0.21960692998E+03 -0.47638540555E+03  0.14958477618E+03  0.57176551158E+03  0.17137659308E+03 0.  0.
         24    2    3    3    0    0  0.19313090983E+03 -0.27704432195E+03  0.12680411724E+03  0.36933306439E+03  0.79211890827E+02 0.  0.
         -6    2    1    2    0  502 -0.21960692998E+03  0.47638540555E+03  0.46058918476E+03  0.71882070053E+03  0.17143670571E+03 0.  0.
        -24    2    5    5    0    0 -0.13924412551E+03  0.39977905844E+03  0.30594289969E+03  0.52838888531E+03  0.79884505326E+02 0.  0.
          5    1    3    3  501    0  0.26476020150E+02 -0.19934108360E+03  0.22780658940E+02  0.20243244719E+03  0.47000000000E+01 0. -1.
        -13    1    4    4    0    0  0.12211957793E+03 -0.20944003777E+03  0.12139933919E+03  0.27113856290E+03  0.00000000000E+00 0.  1.
         14    1    4    4    0    0  0.71011331903E+02 -0.67604284181E+02  0.54047780476E+01  0.98194501496E+02  0.00000000000E+00 0. -1.
         -5    1    5    5    0  502 -0.80362804467E+02  0.76606347114E+02  0.15464628507E+03  0.19043181522E+03  0.47000000000E+01 0.  1.
         11    1    6    6    0    0 -0.14805571802E+03  0.34951866813E+03  0.27472751760E+03  0.46857123678E+03  0.00000000000E+00 0. -1.
        -12    1    6    6    0    0  0.88115925102E+01  0.50260390308E+02  0.31215382091E+02  0.59817648529E+02  0.00000000000E+00 0.  1.
</event>
<event>
12    1  0.8271773E-002  0.1811157E+03  0.7818608E-02  0.1166906E+00
         21   -1    0    0  503  502  0.00000000000E+00  0.00000000000E+00  0.45675258172E+03  0.45675258172E+03  0.00000000000E+00 0.  1.
         21   -1    0    0  501  503 -0.00000000000E+00 -0.00000000000E+00 -0.99673889351E+02  0.99673889351E+02  0.00000000000E+00 0.  1.
          6    2    1    2  501    0  0.13870590961E+02  0.52380039418E+02  0.30424214686E+02  0.18292138174E+03  0.17204225421E+03 0.  0.
         24    2    3    3    0    0 -0.21513896590E+02 -0.19200184791E+00  0.70205309640E+02  0.10795134107E+03  0.79131674606E+02 0.  0.
         -6    2    1    2    0  502 -0.13870590961E+02 -0.52380039418E+02  0.32665447768E+03  0.37350508933E+03  0.17282025964E+03 0.  0.
        -24    2    5    5    0    0 -0.54355663967E+02 -0.14567427835E+00  0.26655206337E+03  0.28405197175E+03  0.81737144218E+02 0.  0.
          5    1    3    3  501    0  0.35384487552E+02  0.52572041266E+02 -0.39781094954E+02  0.74970040669E+02  0.47000000000E+01 0. -1.
        -11    1    4    4    0    0  0.18581926478E+02  0.26809937146E+02  0.20032534466E+02  0.38280062154E+02  0.00000000000E+00 0.  1.
         12    1    4    4    0    0 -0.40095823069E+02 -0.27001938994E+02  0.50172775174E+02  0.69671278915E+02  0.00000000000E+00 0. -1.
         -5    1    5    5    0  502  0.40485073006E+02 -0.52234365139E+02  0.60102414311E+02  0.89453117575E+02  0.47000000000E+01 0.  1.
         13    1    6    6    0    0 -0.54975672761E+02  0.38779019407E+01  0.78273083588E+02  0.95728983769E+02  0.00000000000E+00 0. -1.
        -14    1    6    6    0    0  0.62000879394E+00 -0.40235762190E+01  0.18827897978E+03  0.18832298798E+03  0.00000000000E+00 0.  1.
</event>
<event>
12    1  0.8271773E-002  0.1820109E+03  0.7818608E-02  0.1165984E+00
         21   -1    0    0  503  502  0.00000000000E+00  0.00000000000E+00  0.13500463869E+03  0.13500463869E+03  0.00000000000E+00 0. -1.
         21   -1    0    0  501  503 -0.00000000000E+00 -0.00000000000E+00 -0.31350409774E+03  0.31350409774E+03  0.00000000000E+00 0. -1.
          6    2    1    2  501    0 -0.29746961840E+02 -0.55260800441E+02 -0.19418189298E+03  0.26582348680E+03  0.17034342009E+03 0.  0.
         24    2    3    3    0    0 -0.11474002070E+02  0.97673610671E+01 -0.26125692446E+02  0.84639769577E+02  0.79084035826E+02 0.  0.
         -6    2    1    2    0  502  0.29746961840E+02  0.55260800441E+02  0.15682433932E+02  0.18268524963E+03  0.17084883346E+03 0.  0.
        -24    2    5    5    0    0 -0.98251325449E+01  0.83573142362E+02  0.36646575354E+02  0.12949573389E+03  0.91351903410E+02 0.  0.
          5    1    3    3  501    0 -0.18272959770E+02 -0.65028161508E+02 -0.16805620053E+03  0.18118371722E+03  0.47000000000E+01 0. -1.
        -13    1    4    4    0    0  0.28304937754E+02  0.12737900342E+02 -0.31696232633E+02  0.44362988735E+02  0.00000000000E+00 0.  1.
         14    1    4    4    0    0 -0.39778939823E+02 -0.29705392747E+01  0.55705401872E+01  0.40276780842E+02  0.00000000000E+00 0. -1.
         -5    1    5    5    0  502  0.39572094385E+02 -0.28312341921E+02 -0.20964141422E+02  0.53189515740E+02  0.47000000000E+01 0.  1.
         13    1    6    6    0    0  0.39810794069E+02  0.31159830521E+02  0.24918421997E+02  0.56362772442E+02  0.00000000000E+00 0. -1.
        -14    1    6    6    0    0 -0.49635926614E+02  0.52413311841E+02  0.11728153357E+02  0.73132961448E+02  0.00000000000E+00 0.  1.
</event>
<event>
12    1  0.8271773E-002  0.1795655E+03  0.7818608E-02  0.1168490E+00
         21   -1    0    0  503  502  0.00000000000E+00  0.00000000000E+00  0.20965079756E+03  0.20965079756E+03  0.00000000000E+00 0.  1.
         21   -1    0    0  501  503 -0.00000000000E+00 -0.00000000000E+00 -0.15584094277E+03  0.15584094277E+03  0.00000000000E+00 0.  1.
          6    2    1    2  501    0  0.47115001971E+02  0.35495813441E+01  0.17319379244E+01  0.17957389968E+03  0.17323787952E+03 0.  0.
         24    2    3    3    0    0 -0.29480849979E+02  0.39215068116E+02 -0.41421444206E+01  0.94747333526E+02  0.80950341365E+02 0.  0.
         -6    2    1    2    0  502 -0.47115001971E+02 -0.35495813441E+01  0.52077916863E+02  0.18591784065E+03  0.17210726629E+03 0.  0.
        -24    2    5    5    0    0 -0.42853300376E+01 -0.64346362669E+02  0.41664149176E+02  0.11067712046E+03  0.79716404990E+02 0.  0.
          5    1    3    3  501    0  0.76595851950E+02 -0.35665486772E+02  0.58740823451E+01  0.84826566157E+02  0.47000000000E+01 0. -1.
        -11    1    4    4    0    0 -0.67587363743E+01  0.46666092890E+02  0.27882546490E+02  0.54779933751E+02  0.00000000000E+00 0.  1.
         12    1    4    4    0    0 -0.22722113605E+02 -0.74510247740E+01 -0.32024690911E+02  0.39967399775E+02  0.00000000000E+00 0. -1.
         -5    1    5    5    0  502 -0.42829671934E+02  0.60796781325E+02  0.10413767687E+02  0.75240720191E+02  0.47000000000E+01 0.  1.
         11    1    6    6    0    0 -0.24508041007E+02 -0.19153489641E+02  0.51532413671E+02  0.60192108272E+02  0.00000000000E+00 0. -1.
        -12    1    6    6    0    0  0.20222710970E+02 -0.45192873028E+02 -0.98682644952E+01  0.50485012188E+02  0.00000000000E+00 0.  1.
</event>
<event>
12    1  0.8271773E-002  0.1906264E+03  0.7818608E-02  0.1157938E+00
         21   -1    0    0  501  502  0.00000000000E+00  0.00000000000E+00  0.72559577353E+02  0.72559577353E+02  0.00000000000E+00 0. -1.
         21   -1    0    0  502  503 -0.00000000000E+00 -0.00000000000E+00 -0.54303907553E+03  0.54303907553E+03  0.00000000000E+00 0. -1.
         -6    2    1    2    0  503  0.77294431262E+02 -0.23396596287E+02 -0.14882208191E+03  0.24169768881E+03  0.17247588495E+03 0.  0.
        -24    2    3    3    0    0 -0.16368553076E+02  0.22400053080E+02 -0.77777364924E+02  0.11544583916E+03  0.80676709012E+02 0.  0.
          6    2    1    2  501    0 -0.77294431262E+02  0.23396596287E+02 -0.32165741626E+03  0.37390096407E+03  0.17267486116E+03 0.  0.
         24    2    5    5    0    0 -0.65298922431E+02  0.63285453878E+02 -0.11807272910E+03  0.16604565854E+03  0.73218805090E+02 0.  0.
          5    1    5    5  501    0 -0.11995508831E+02 -0.39888857591E+02 -0.20358468716E+03  0.20785530553E+03  0.47000000000E+01 0. -1.
        -11    1    6    6    0    0 -0.24329781440E+02 -0.14714271998E+02 -0.33191196736E+02  0.43704732079E+02  0.00000000000E+00 0.  1.
         12    1    6    6    0    0 -0.40969140991E+02  0.77999725875E+02 -0.84881532366E+02  0.12234092646E+03  0.00000000000E+00 0. -1.
         -5    1    3    3    0  503  0.93662984338E+02 -0.45796649367E+02 -0.71044716991E+02  0.12625184965E+03  0.47000000000E+01 0.  1.
         13    1    4    4    0    0 -0.96157035128E+01 -0.16557653326E+02  0.81873692520E+01  0.20824280371E+02  0.00000000000E+00 0. -1.
        -14    1    4    4    0    0 -0.67528495630E+01  0.38957706406E+02 -0.85964734176E+02  0.94621558789E+02  0.00000000000E+00 0.  1.
</event>
<event>
12    1  0.8271773E-002  0.3041781E+03  0.7818608E-02  0.1083204E+00
         21   -1    0    0  503  502  0.00000000000E+00  0.00000000000E+00  0.92738000573E+02  0.92738000573E+02  0.00000000000E+00 0.  1.
         21   -1    0    0  501  503 -0.00000000000E+00 -0.00000000000E+00 -0.13017569771E+04  0.13017569771E+04  0.00000000000E+00 0. -1.
          6    2    1    2  501    0 -0.24993401908E+03 -0.21636503949E+02 -0.94177284207E+03  0.98959395599E+03  0.17153704990E+03 0.  0.
         24    2    3    3    0    0 -0.17267769195E+03 -0.79603835586E+02 -0.65207226137E+03  0.68418068176E+03  0.82162128226E+02 0.  0.
         -6    2    1    2    0  502  0.24993401908E+03  0.21636503949E+02 -0.26724613442E+03  0.40490102164E+03  0.17201508295E+03 0.  0.
        -24    2    5    5    0    0  0.15103379853E+03  0.62135166702E+02 -0.22692945836E+03  0.29058164586E+03  0.79175290325E+02 0.  0.
          5    1    3    3  501    0 -0.77256327131E+02  0.57967331638E+02 -0.28970058070E+03  0.30541327423E+03  0.47000000000E+01 0. -1.
        -13    1    4    4    0    0 -0.25336443565E+02 -0.44864626483E+02 -0.23232618737E+03  0.23797106425E+03  0.00000000000E+00 0.  1.
         14    1    4    4    0    0 -0.14734124839E+03 -0.34739209103E+02 -0.41974607400E+03  0.44620961751E+03  0.00000000000E+00 0. -1.
         -5    1    5    5    0  502  0.98900220553E+02 -0.40498662753E+02 -0.40316676058E+02  0.11431937578E+03  0.47000000000E+01 0.  1.
         11    1    6    6    0    0  0.43984132128E+01 -0.11106866071E+02 -0.41065162911E+02  0.42767465645E+02  0.00000000000E+00 0. -1.
        -12    1    6    6    0    0  0.14663538532E+03  0.73242032773E+02 -0.18586429545E+03  0.24781418021E+03  0.00000000000E+00 0.  1.
</event>
<event>
12    1  0.8271773E-002  0.1754516E+03  0.7818608E-02  0.1172702E+00
         21   -1    0    0  503  502  0.00000000000E+00  0.00000000000E+00  0.29758267617E+03  0.29758267617E+03  0.00000000000E+00 0.  1.
         21   -1    0    0  501  503 -0.00000000000E+00 -0.00000000000E+00 -0.10522588007E+03  0.10522588007E+03  0.00000000000E+00 0.  1.
          6    2    1    2  501    0  0.15206159210E+02 -0.26172267433E+02  0.63946792288E+02  0.18674172773E+03  0.17282090664E+03 0.  0.
         24    2    3    3    0    0  0.10841778653E+02 -0.89329648060E+02  0.40073304249E+02  0.11891889989E+03  0.66622104820E+02 0.  0.
         -6    2    1    2    0  502 -0.15206159210E+02  0.26172267433E+02  0.12841000381E+03  0.21606682852E+03  0.17111262503E+03 0.  0.
        -24    2    5    5    0    0  0.49171645568E+02 -0.13843365270E+02  0.64330494071E+02  0.11669869390E+03  0.82889584393E+02 0.  0.
          5    1    3    3  501    0  0.43643805565E+01  0.63157380627E+02  0.23873488039E+02  0.67822827842E+02  0.47000000000E+01 0. -1.
        -11    1    4    4    0    0  0.27744556492E+02 -0.89900225391E+01  0.47719038673E+01  0.29552529278E+02  0.00000000000E+00 0.  1.
         12    1    4    4    0    0 -0.16902777839E+02 -0.80339625521E+02  0.35301400382E+02  0.89366370612E+02  0.00000000000E+00 0. -1.
         -5    1    5    5    0  502 -0.64377804778E+02  0.40015632703E+02  0.64079509738E+02  0.99368134615E+02  0.47000000000E+01 0.  1.
         13    1    6    6    0    0  0.44080315909E+02 -0.17780119550E+02 -0.43385577593E+01  0.47728712378E+02  0.00000000000E+00 0. -1.
        -14    1    6    6    0    0  0.50913296592E+01  0.39367542802E+01  0.68669051831E+02  0.68969981523E+02  0.00000000000E+00 0.  1.
</event>
<event>
12    1  0.8271773E-002  0.3288452E+03  0.7818608E-02  0.1071717E+00
         21   -1    0    0  501  502  0.00000000000E+00  0.00000000000E+00  0.36536836444E+03  0.36536836444E+03  0.00000000000E+00 0. -1.
         21   -1    0    0  502  503 -0.00000000000E+00 -0.00000000000E+00 -0.45414780751E+03  0.45414780751E+03  0.00000000000E+00 0.  1.
         -6    2    1    2    0  503 -0.15467890930E+03 -0.23353973634E+03 -0.28660369120E+03  0.43575375726E+03  0.17109438252E+03 0.  0.
        -24    2    3    3    0    0 -0.23139797525E+02 -0.14140962798E+03 -0.11077844807E+03  0.19757923949E+03  0.78952886005E+02 0.  0.
          6    2    1    2  501    0  0.15467890930E+03  0.23353973634E+03  0.19782424812E+03  0.38376241468E+03  0.17225790067E+03 0.  0.
         24    2    5    5    0    0  0.15955311981E+03  0.24952556660E+03  0.17004992931E+03  0.35100867470E+03  0.81054949454E+02 0.  0.
          5    1    5    5  501    0 -0.48742105051E+01 -0.15985830258E+02  0.27774318817E+02  0.32753739982E+02  0.47000000000E+01 0. -1.
        -13    1    6    6    0    0  0.61312490760E+02  0.34841250817E+02  0.31228690538E+02  0.77125646800E+02  0.00000000000E+00 0.  1.
         14    1    6    6    0    0  0.98240629048E+02  0.21468431579E+03  0.13882123877E+03  0.27388302790E+03  0.00000000000E+00 0. -1.
         -5    1    3    3    0  503 -0.13153911178E+03 -0.92130108369E+02 -0.17582524312E+03  0.23817451777E+03  0.47000000000E+01 0.  1.
         13    1    4    4    0    0 -0.34457186483E+02 -0.14575772548E+03 -0.10919111051E+03  0.18535185689E+03  0.00000000000E+00 0. -1.
        -14    1    4    4    0    0  0.11317388958E+02  0.43480975081E+01 -0.15873375579E+01  0.12227382602E+02  0.00000000000E+00 0.  1.
</event>
<event>
12    1  0.8271773E-002  0.2738054E+03  0.7818608E-02  0.1099378E+00
         21   -1    0    0  503  502  0.00000000000E+00  0.00000000000E+00  0.24814695245E+04  0.24814695245E+04  0.00000000000E+00 0. -1.
         21   -1    0    0  501  503 -0.00000000000E+00 -0.00000000000E+00 -0.30411148464E+02  0.30411148464E+02  0.00000000000E+00 0. -1.
          6    2    1    2  501    0  0.15083727973E+03 -0.14364130436E+03  0.10855450696E+04  0.11195434387E+04  0.17772085855E+03 0.  0.
         24    2    3    3    0    0  0.77450724645E+01 -0.22569146024E+02  0.25920342929E+03  0.27219673047E+03  0.79594533892E+02 0.  0.
         -6    2    1    2    0  502 -0.15083727973E+03  0.14364130436E+03  0.13655133064E+04  0.13923372343E+04  0.17490475920E+03 0.  0.
        -24    2    5    5    0    0 -0.61600747623E+02  0.14444132619E+03  0.10351464097E+04  0.10500972963E+04  0.80735948968E+02 0.  0.
          5    1    3    3  501    0  0.14309220727E+03 -0.12107215834E+03  0.82634164035E+03  0.84734670819E+03  0.47000000000E+01 0. -1.
        -13    1    4    4    0    0  0.29960496149E+02 -0.13840904464E+02  0.40726885736E+02  0.52420236433E+02  0.00000000000E+00 0.  1.
         14    1    4    4    0    0 -0.22215423684E+02 -0.87282415600E+01  0.21847654355E+03  0.21977649404E+03  0.00000000000E+00 0. -1.
         -5    1    5    5    0  502 -0.89236532111E+02 -0.80002182237E+00  0.33036689670E+03  0.34223993796E+03  0.47000000000E+01 0.  1.
         11    1    6    6    0    0 -0.48826035700E+02  0.95028036501E+02  0.88688898209E+03  0.89330083177E+03  0.00000000000E+00 0. -1.
        -12    1    6    6    0    0 -0.12774711923E+02  0.49413289685E+02  0.14825742761E+03  0.15679646458E+03  0.00000000000E+00 0.  1.
</event>
<event>
12    1  0.8271773E-002  0.2216130E+03  0.7818608E-02  0.1133155E+00
         21   -1    0    0  503  502  0.00000000000E+00  0.00000000000E+00  0.16394511991E+03  0.16394511991E+03  0.00000000000E+00 0. -1.
         21   -1    0    0  501  503 -0.00000000000E+00 -0.00000000000E+00 -0.38785059800E+03  0.38785059800E+03  0.00000000000E+00 0. -1.
          6    2    1    2  501    0  0.80035035230E+02 -0.11391926353E+03 -0.24658131171E+03  0.33153381661E+03  0.17242135252E+03 0.  0.
         24    2    3    3    0    0 -0.10852430691E+02 -0.50348427842E+02 -0.55659656152E+02  0.11068329890E+03  0.80622924128E+02 0.  0.
         -6    2    1    2    0  502 -0.80035035230E+02  0.11391926353E+03  0.22675833611E+02  0.22026190130E+03  0.16916827795E+03 0.  0.
        -24    2    5    5    0    0 -0.41868176448E+02  0.33130062285E+01 -0.25504332240E+02  0.93636976244E+02  0.79708795925E+02 0.  0.
          5    1    3    3  501    0  0.90887465921E+02 -0.63570835688E+02 -0.19092165555E+03  0.22085051771E+03  0.47000000000E+01 0. -1.
        -11    1    4    4    0    0 -0.11641550201E+02  0.21148253028E+02 -0.15230508166E+02  0.28543697662E+02  0.00000000000E+00 0.  1.
         12    1    4    4    0    0  0.78911951037E+00 -0.71496680870E+02 -0.40429147986E+02  0.82139601241E+02  0.00000000000E+00 0. -1.
         -5    1    5    5    0  502 -0.38166858782E+02  0.11060625730E+03  0.48180165851E+02  0.12662492505E+03  0.47000000000E+01 0.  1.
         11    1    6    6    0    0 -0.30210863878E+02  0.73601076807E+01  0.26088394362E+02  0.40589060123E+02  0.00000000000E+00 0. -1.
        -12    1    6    6    0    0 -0.11657312570E+02 -0.40471014522E+01 -0.51592726602E+02  0.53047916121E+02  0.00000000000E+00 0.  1.
</event>
<event>
12    1  0.8271773E-002  0.1746704E+03  0.7818608E-02  0.1173194E+00
         21   -1    0    0  503  502  0.00000000000E+00  0.00000000000E+00  0.20366639797E+03  0.20366639797E+03  0.00000000000E+00 0. -1.
         21   -1    0    0  501  503 -0.00000000000E+00 -0.00000000000E+00 -0.15069313442E+03  0.15069313442E+03  0.00000000000E+00 0. -1.
          6    2    1    2  501    0  0.20800267052E+02  0.20264424478E+02  0.43210159519E+02  0.17993575354E+03  0.17223954107E+03 0.  0.
         24    2    3    3    0    0  0.13220249886E+02 -0.38624975664E+02 -0.21342415024E+02  0.92103282384E+02  0.79754950910E+02 0.  0.
         -6    2    1    2    0  502 -0.20800267052E+02 -0.20264424478E+02  0.97631040290E+01  0.17442377885E+03  0.17171208000E+03 0.  0.
        -24    2    5    5    0    0  0.14282966232E+01  0.14302809791E+02 -0.55585140505E+02  0.97083712958E+02  0.78287477144E+02 0.  0.
          5    1    3    3  501    0  0.75800171656E+01  0.58889400142E+02  0.64552574543E+02  0.87832471156E+02  0.47000000000E+01 0. -1.
        -13    1    4    4    0    0  0.29163500841E+02  0.14991796221E+02 -0.14119584820E+02  0.35701910463E+02  0.00000000000E+00 0.  1.
         14    1    4    4    0    0 -0.15943250955E+02 -0.53616771884E+02 -0.72228302039E+01  0.56401371920E+02  0.00000000000E+00 0. -1.
         -5    1    5    5    0  502 -0.22228563675E+02 -0.34567234269E+02  0.65348244534E+02  0.77340065889E+02  0.47000000000E+01 0.  1.
         11    1    6    6    0    0 -0.98024907595E+01  0.45071598888E+02 -0.26013136216E+02  0.52954896914E+02  0.00000000000E+00 0. -1.
        -12    1    6    6    0    0  0.11230787383E+02 -0.30768789097E+02 -0.29572004290E+02  0.44128816044E+02  0.00000000000E+00 0.  1.
</event>
<event>
12    1  0.8271773E-002  0.2256905E+03  0.7818608E-02  0.1129720E+00
         21   -1    0    0  501  502  0.00000000000E+00  0.00000000000E+00  0.14930812741E+03  0.14930812741E+03  0.00000000000E+00 0. -1.
         21   -1    0    0  502  503 -0.00000000000E+00 -0.00000000000E+00 -0.43244902642E+03  0.43244902642E+03  0.00000000000E+00 0.  1.
         -6    2    1    2    0  503  0.14149209034E+03  0.34839916786E+02 -0.27529683877E+03  0.35598389607E+03  0.17234370714E+03 0.  0.
        -24    2    3    3    0    0  0.30198878283E+02  0.29919616933E+02 -0.50408664735E+02  0.10497160708E+03  0.81675266061E+02 0.  0.
          6    2    1    2  501    0 -0.14149209034E+03 -0.34839916786E+02 -0.78440602448E+01  0.22577325776E+03  0.17227362889E+03 0.  0.
         24    2    5    5    0    0 -0.11310622140E+03 -0.69333932260E+02  0.36134691373E+02  0.16290979259E+03  0.87370894017E+02 0.  0.
          5    1    5    5  501    0 -0.28385868943E+02  0.34494015474E+02 -0.43978751618E+02  0.62863465169E+02  0.47000000000E+01 0. -1.
        -11    1    6    6    0    0 -0.42650727448E+02 -0.44217559078E+01 -0.24643966449E+02  0.49456663449E+02  0.00000000000E+00 0.  1.
         12    1    6    6    0    0 -0.70455493949E+02 -0.64912176352E+02  0.60778657822E+02  0.11345312915E+03  0.00000000000E+00 0. -1.
         -5    1    3    3    0  503  0.11129321206E+03  0.49202998535E+01 -0.22488817404E+03  0.25101228899E+03  0.47000000000E+01 0.  1.
         13    1    4    4    0    0 -0.22231359441E+02  0.46220718219E+01  0.64418417647E+01  0.23602843385E+02  0.00000000000E+00 0. -1.
        -14    1    4    4    0    0  0.52430237724E+02  0.25297545111E+02 -0.56850506500E+02  0.81368763698E+02  0.00000000000E+00 0.  1.
</event>
<event>
12    1  0.8271773E-002  0.1820867E+03  0.7818608E-02  0.1166189E+00
         21   -1    0    0  503  502  0.00000000000E+00  0.00000000000E+00  0.75394961620E+02  0.75394961620E+02  0.00000000000E+00 0. -1.
         21   -1    0    0  501  503 -0.00000000000E+00 -0.00000000000E+00 -0.12702416011E+04  0.12702416011E+04  0.00000000000E+00 0. -1.
          6    2    1    2  501    0 -0.35393381385E+02  0.46045672006E+02 -0.11418108582E+04  0.11559833414E+04  0.17085828760E+03 0.  0.
         24    2    3    3    0    0  0.22379954000E+02  0.35065604431E+02 -0.98075873539E+03  0.98446600580E+03  0.74532949598E+02 0.  0.
         -6    2    1    2    0  502  0.35393381385E+02 -0.46045672006E+02 -0.53035781324E+02  0.18965322132E+03  0.17257651897E+03 0.  0.
        -24    2    5    5    0    0 -0.13672758420E+02 -0.74485666032E+02 -0.70254144106E+02  0.13019835312E+03  0.79252177405E+02 0.  0.
          5    1    3    3  501    0 -0.57773335385E+02  0.10980067575E+02 -0.16105212279E+03  0.17151733563E+03  0.47000000000E+01 0. -1.
        -13    1    4    4    0    0  0.40845847708E+02 -0.38345317004E+01 -0.39429414031E+03  0.39642269863E+03  0.00000000000E+00 0.  1.
         14    1    4    4    0    0 -0.18465893707E+02  0.38900136131E+02 -0.58646459508E+03  0.58804330716E+03  0.00000000000E+00 0. -1.
         -5    1    5    5    0  502  0.49066139805E+02  0.28439994026E+02  0.17218362782E+02  0.59454868198E+02  0.47000000000E+01 0.  1.
         11    1    6    6    0    0  0.91408415565E+01 -0.27500288207E+02  0.13122780360E+02  0.31812390671E+02  0.00000000000E+00 0. -1.
        -12    1    6    6    0    0 -0.22813599977E+02 -0.46985377825E+02 -0.83376924465E+02  0.98385962447E+02  0.00000000000E+00 0.  1.
</event>
<event>
12    1  0.8271773E-002  0.1756428E+03  0.7818608E-02  0.1172626E+00
         21   -1    0    0  503  502  0.00000000000E+00  0.00000000000E+00  0.14993084403E+03  0.14993084403E+03  0.00000000000E+00 0. -1.
         21   -1    0    0  501  503 -0.00000000000E+00 -0.00000000000E+00 -0.26048527613E+03  0.26048527613E+03  0.00000000000E+00 0. -1.
          6    2    1    2  501    0  0.16270155484E+02 -0.28384977455E+01 -0.15119160546E+03  0.23013363415E+03  0.17271309440E+03 0.  0.
         24    2    3    3    0    0 -0.27035370417E+02  0.71874044595E+01 -0.44303713036E+01  0.76716434527E+02  0.71296655603E+02 0.  0.
         -6    2    1    2    0  502 -0.16270155484E+02  0.28384977455E+01  0.40637173356E+02  0.18028248601E+03  0.17486457582E+03 0.  0.
        -24    2    5    5    0    0  0.32429651595E+02  0.13792774957E+02 -0.49761529775E+01  0.11250097719E+03  0.10672293487E+03 0.  0.
          5    1    3    3  501    0  0.43305525902E+02 -0.10025902205E+02 -0.14676123416E+03  0.15341719962E+03  0.47000000000E+01 0. -1.
        -13    1    4    4    0    0  0.14283065005E+02  0.24380998734E+02  0.95560116004E+01  0.29828784804E+02  0.00000000000E+00 0.  1.
         14    1    4    4    0    0 -0.41318435422E+02 -0.17193594274E+02 -0.13986382904E+02  0.46887649723E+02  0.00000000000E+00 0. -1.
         -5    1    5    5    0  502 -0.48699807080E+02 -0.10954277212E+02  0.45613326334E+02  0.67781508821E+02  0.47000000000E+01 0.  1.
         13    1    6    6    0    0  0.42669653797E+02 -0.37533272598E+02  0.10783217022E+02  0.57842230908E+02  0.00000000000E+00 0. -1.
        -14    1    6    6    0    0 -0.10240002201E+02  0.51326047555E+02 -0.15759370000E+02  0.54658746286E+02  0.00000000000E+00 0.  1.
</event>
<event>
12    1  0.8271773E-002  0.1808843E+03  0.7818608E-02  0.1167083E+00
         21   -1    0    0  501  502  0.00000000000E+00  0.00000000000E+00  0.55493547057E+02  0.55493547057E+02  0.00000000000E+00 0.  1.
         21   -1    0    0  502  503 -0.00000000000E+00 -0.00000000000E+00 -0.17594066235E+04  0.17594066235E+04  0.00000000000E+00 0.  1.
         -6    2    1    2    0  503  0.49747619568E+02  0.24819911421E+02 -0.15920295103E+04  0.16022100903E+04  0.17154695618E+03 0.  0.
        -24    2    3    3    0    0  0.62987588478E+02 -0.72906933785E+01 -0.15044310284E+04  0.15078598293E+04  0.79422636368E+02 0.  0.
          6    2    1    2  501    0 -0.49747619568E+02 -0.24819911421E+02 -0.11188356614E+03  0.21269008025E+03  0.17212868502E+03 0.  0.
         24    2    5    5    0    0 -0.81819825295E+02  0.15488754308E+01 -0.26313893249E+02  0.11746299261E+03  0.80051551070E+02 0.  0.
          5    1    5    5  501    0  0.32072205727E+02 -0.26368786852E+02 -0.85569672895E+02  0.95227087636E+02  0.47000000000E+01 0. -1.
        -13    1    6    6    0    0 -0.19780475808E+02  0.13232674330E+02  0.26164865697E+02  0.35369069681E+02  0.00000000000E+00 0.  1.
         14    1    6    6    0    0 -0.62039349487E+02 -0.11683798900E+02 -0.52478758947E+02  0.82093922930E+02  0.00000000000E+00 0. -1.
         -5    1    3    3    0  503 -0.13239968910E+02  0.32110604799E+02 -0.87598481919E+02  0.94350261005E+02  0.47000000000E+01 0.  1.
         11    1    4    4    0    0  0.44228527267E+02 -0.31279413710E+02 -0.49242875888E+03  0.49539948216E+03  0.00000000000E+00 0. -1.
        -12    1    4    4    0    0  0.18759061211E+02  0.23988720331E+02 -0.10120022695E+04  0.10124603472E+04  0.00000000000E+00 0.  1.
</event>
<event>
12    1  0.8271773E-002  0.1755053E+03  0.7818608E-02  0.1172489E+00
         21   -1    0    0  501  502  0.00000000000E+00  0.00000000000E+00  0.46310447199E+03  0.46310447199E+03  0.00000000000E+00 0. -1.
         21   -1    0    0  502  503 -0.00000000000E+00 -0.00000000000E+00 -0.10062694657E+03  0.10062694657E+03  0.00000000000E+00 0. -1.
         -6    2    1    2    0  503 -0.30852970569E+02  0.17360280228E+02  0.16525984982E+02  0.17628161560E+03  0.17189768671E+03 0.  0.
        -24    2    3    3    0    0 -0.12657156295E+02  0.56430527698E+02  0.61856784630E+02  0.11355567765E+03  0.75657267070E+02 0.  0.
          6    2    1    2  501    0  0.30852970569E+02 -0.17360280228E+02  0.34595154044E+03  0.38744980297E+03  0.17082621684E+03 0.  0.
         24    2    5    5    0    0 -0.45584901769E+02 -0.35565644367E+02  0.16483489149E+03  0.18996685651E+03  0.74659003428E+02 0.  0.
          5    1    5    5  501    0  0.76437872339E+02  0.18205364139E+02  0.18111664896E+03  0.19748294646E+03  0.47000000000E+01 0. -1.
        -11    1    6    6    0    0 -0.24970883494E+02  0.88208724520E+01  0.11250701192E+02  0.28773791732E+02  0.00000000000E+00 0.  1.
         12    1    6    6    0    0 -0.20614018275E+02 -0.44386516819E+02  0.15358419029E+03  0.16119306478E+03  0.00000000000E+00 0. -1.
         -5    1    3    3    0  503 -0.18195814274E+02 -0.39070247470E+02 -0.45330799648E+02  0.62725937946E+02  0.47000000000E+01 0.  1.
         13    1    4    4    0    0 -0.34328466193E+02  0.52879896359E+00  0.15018722777E+02  0.37473794222E+02  0.00000000000E+00 0. -1.
        -14    1    4    4    0    0  0.21671309897E+02  0.55901728735E+02  0.46838061853E+02  0.76081883431E+02  0.00000000000E+00 0.  1.
</event>
<event>
12    1  0.8271773E-002  0.2215829E+03  0.7818608E-02  0.1132735E+00
         21   -1    0    0  501  502  0.00000000000E+00  0.00000000000E+00  0.77735243627E+03  0.77735243627E+03  0.00000000000E+00 0.  1.
         21   -1    0    0  502  503 -0.00000000000E+00 -0.00000000000E+00 -0.66625756484E+02  0.66625756484E+02  0.00000000000E+00 0.  1.
         -6    2    1    2    0  503 -0.13850675828E+03  0.15651113393E+02  0.45226546725E+03  0.50362985728E+03  0.17224953073E+03 0.  0.
        -24    2    3    3    0    0 -0.66258749993E+02 -0.66964865789E+01  0.39526962773E+03  0.40881527165E+03  0.80354109076E+02 0.  0.
          6    2    1    2  501    0  0.13850675828E+03 -0.15651113393E+02  0.25846121254E+03  0.34034833547E+03  0.17206310364E+03 0.  0.
         24    2    5    5    0    0  0.95420752094E+02 -0.77086462061E+02  0.16513823502E+03  0.22050688134E+03  0.79405324079E+02 0.  0.
          5    1    5    5  501    0  0.43086006186E+02  0.61435348668E+02  0.93322977518E+02  0.11984145413E+03  0.47000000000E+01 0. -1.
        -11    1    6    6    0    0  0.79372095581E+02 -0.43177533154E+02  0.15844706634E+03  0.18239984034E+03  0.00000000000E+00 0.  1.
         12    1    6    6    0    0  0.16048656513E+02 -0.33908928907E+02  0.66911686793E+01  0.38107041001E+02  0.00000000000E+00 0. -1.
         -5    1    3    3    0  503 -0.72248008288E+02  0.22347599972E+02  0.56995839525E+02  0.94814585635E+02  0.47000000000E+01 0.  1.
         11    1    4    4    0    0  0.13419984820E+02  0.16589972957E+02  0.78167095956E+02  0.81027267543E+02  0.00000000000E+00 0. -1.
        -12    1    4    4    0    0 -0.79678734813E+02 -0.23286459536E+02  0.31710253177E+03  0.32778800411E+03  0.00000000000E+00 0.  1.
</event>
<event>
12    1  0.8271773E-002  0.2094944E+03  0.7818608E-02  0.1142625E+00
         21   -1    0    0  503  502  0.00000000000E+00  0.00000000000E+00  0.21783091030E+03  0.21783091030E+03  0.00000000000E+00 0.  1.
         21   -1    0    0  501  503 -0.00000000000E+00 -0.00000000000E+00 -0.21321993067E+03  0.21321993067E+03  0.00000000000E+00 0.  1.
          6    2    1    2  501    0 -0.10231958375E+03  0.61806042623E+02 -0.54630990415E+02  0.21650043675E+03  0.17204246532E+03 0.  0.
         24    2    3    3    0    0 -0.10128476760E+03 -0.14696298272E+02 -0.44496056938E+02  0.13917976756E+03  0.83165637640E+02 0.  0.
         -6    2    1    2    0  502  0.10231958375E+03 -0.61806042623E+02  0.59241970050E+02  0.21455040422E+03  0.16802672648E+03 0.  0.
        -24    2    5    5    0    0  0.47293650550E+02 -0.69545154331E+01  0.90390033107E+02  0.13071225544E+03  0.81426537253E+02 0.  0.
          5    1    3    3  501    0 -0.10348161529E+01  0.76502340895E+02 -0.10134933477E+02  0.77320669186E+02  0.47000000000E+01 0. -1.
        -13    1    4    4    0    0 -0.53829695389E+02  0.25846460922E+02 -0.48076294928E+02  0.76661631745E+02  0.00000000000E+00 0.  1.
         14    1    4    4    0    0 -0.47455072212E+02 -0.40542759194E+02  0.35802379893E+01  0.62518135814E+02  0.00000000000E+00 0. -1.
         -5    1    5    5    0  502  0.55025933203E+02 -0.54851527190E+02 -0.31148063057E+02  0.83838148787E+02  0.47000000000E+01 0.  1.
         11    1    6    6    0    0  0.70935869304E+01 -0.33811285216E+02  0.70354669899E+02  0.78379216378E+02  0.00000000000E+00 0. -1.
        -12    1    6    6    0    0  0.40200063620E+02  0.26856769783E+02  0.20035363208E+02  0.52333039058E+02  0.00000000000E+00 0.  1.
</event>
<event>
12    1  0.8271773E-002  0.2568054E+03  0.7818608E-02  0.1109115E+00
         21   -1    0    0  503  502  0.00000000000E+00  0.00000000000E+00  0.70958310119E+03  0.70958310119E+03  0.00000000000E+00 0.  1.
         21   -1    0    0  501  503 -0.00000000000E+00 -0.00000000000E+00 -0.10092035871E+03  0.10092035871E+03  0.00000000000E+00 0.  1.
          6    2    1    2  501    0  0.16338036221E+02  0.19042715308E+03  0.18988759658E+03  0.31938430640E+03  0.17152143827E+03 0.  0.
         24    2    3    3    0    0  0.76453510508E+00  0.73897436051E+02  0.22415544388E+02  0.11471216088E+03  0.84823390965E+02 0.  0.
         -6    2    1    2    0  502 -0.16338036221E+02 -0.19042715308E+03  0.41877514590E+03  0.49111915350E+03  0.17116064983E+03 0.  0.
        -24    2    5    5    0    0 -0.24106993059E+02 -0.16686358999E+03  0.42578665564E+03  0.46491134046E+03  0.80147823328E+02 0.  0.
          5    1    3    3  501    0  0.15573501116E+02  0.11652971703E+03  0.16747205219E+03  0.20467214552E+03  0.47000000000E+01 0. -1.
        -11    1    4    4    0    0  0.31883259581E+02  0.60069275997E+02 -0.87297365259E+01  0.68564338108E+02  0.00000000000E+00 0.  1.
         12    1    4    4    0    0 -0.31118724476E+02  0.13828160054E+02  0.31145280913E+02  0.46147822773E+02  0.00000000000E+00 0. -1.
         -5    1    5    5    0  502  0.77689568379E+01 -0.23563563084E+02 -0.70115097367E+01  0.26207813041E+02  0.47000000000E+01 0.  1.
         11    1    6    6    0    0  0.18711071150E+02 -0.32526834645E+02  0.15661479935E+03  0.16104749154E+03  0.00000000000E+00 0. -1.
        -12    1    6    6    0    0 -0.42818064209E+02 -0.13433675535E+03  0.26917185629E+03  0.30386384891E+03  0.00000000000E+00 0.  1.
</event>
<event>
12    1  0.8271773E-002  0.1770060E+03  0.7818608E-02  0.1171207E+00
         21   -1    0    0  501  502  0.00000000000E+00  0.00000000000E+00  0.97341444630E+02  0.97341444630E+02  0.00000000000E+00 0. -1.
         21   -1    0    0  502  503 -0.00000000000E+00 -0.00000000000E+00 -0.40262278048E+03  0.40262278048E+03  0.00000000000E+00 0. -1.
         -6    2    1    2    0  503 -0.35530440000E+02 -0.12144749213E+00 -0.26761871467E+03  0.32085961911E+03  0.17340326356E+03 0.  0.
        -24    2    3    3    0    0  0.33839997459E+02 -0.26051643860E+02 -0.20741968659E+03  0.22530520707E+03  0.76913434285E+02 0.  0.
          6    2    1    2  501    0  0.35530440000E+02  0.12144749213E+00 -0.37662621180E+02  0.17910460601E+03  0.17145716650E+03 0.  0.
         24    2    5    5    0    0  0.46255701053E+02 -0.11106118665E+02  0.37985178112E+02  0.10173685430E+03  0.81514281049E+02 0.  0.
          5    1    5    5  501    0 -0.10725261054E+02  0.11227566157E+02 -0.75647799292E+02  0.77367751707E+02  0.47000000000E+01 0. -1.
        -11    1    6    6    0    0  0.96245910608E+01 -0.34970574347E+02  0.44636130906E+02  0.57514850304E+02  0.00000000000E+00 0.  1.
         12    1    6    6    0    0  0.36631109993E+02  0.23864455682E+02 -0.66509527948E+01  0.44222003996E+02  0.00000000000E+00 0. -1.
         -5    1    3    3    0  503 -0.69370437458E+02  0.25930196367E+02 -0.60199028083E+02  0.95554412033E+02  0.47000000000E+01 0.  1.
         13    1    4    4    0    0 -0.22656843855E+02  0.76061099012E+00 -0.83186173407E+02  0.86219780496E+02  0.00000000000E+00 0. -1.
        -14    1    4    4    0    0  0.56496841314E+02 -0.26812254850E+02 -0.12423351318E+03  0.13908542658E+03  0.00000000000E+00 0.  1.
</event>
<event>
12    1  0.8271773E-002  0.2208857E+03  0.7818608E-02  0.1134237E+00
         21   -1    0    0  501  502  0.00000000000E+00  0.00000000000E+00  0.12547782399E+03  0.12547782399E+03  0.00000000000E+00 0. -1.
         21   -1    0    0  502  503 -0.00000000000E+00 -0.00000000000E+00 -0.80990420420E+03  0.80990420420E+03  0.00000000000E+00 0.  1.
         -6    2    1    2    0  503  0.96728282644E+02  0.91505789840E+02 -0.68119977792E+03  0.71447274458E+03  0.16943581400E+03 0.  0.
        -24    2    3    3    0    0  0.13081886466E+03  0.95092714713E+02 -0.55026813907E+03  0.57904668407E+03  0.79648212258E+02 0.  0.
          6    2    1    2  501    0 -0.96728282644E+02 -0.91505789840E+02 -0.32266022904E+01  0.22090928361E+03  0.17624083064E+03 0.  0.
         24    2    5    5    0    0 -0.70449728409E+02  0.17109673366E+02 -0.19029515929E+02  0.10795042677E+03  0.77686980937E+02 0.  0.
          5    1    5    5  501    0 -0.26278554236E+02 -0.10861546321E+03  0.15802913639E+02  0.11295885684E+03  0.47000000000E+01 0. -1.
        -13    1    6    6    0    0 -0.22316273628E+02  0.44814627360E+02 -0.15021562766E+02  0.52268673620E+02  0.00000000000E+00 0.  1.
         14    1    6    6    0    0 -0.48133454780E+02 -0.27704953994E+02 -0.40079531635E+01  0.55681753147E+02  0.00000000000E+00 0. -1.
         -5    1    3    3    0  503 -0.34090582014E+02 -0.35869248731E+01 -0.13093163886E+03  0.13542606051E+03  0.47000000000E+01 0.  1.
         13    1    4    4    0    0  0.82988917194E+02  0.57639898172E+02 -0.20584240751E+03  0.22930463355E+03  0.00000000000E+00 0. -1.
        -14    1    4    4    0    0  0.47829947465E+02  0.37452816541E+02 -0.34442573156E+03  0.34974205052E+03  0.00000000000E+00 0.  1.
</event>
<event>
12    1  0.8271773E-002  0.1820977E+03  0.7818608E-02  0.1166508E+00
         21   -1    0    0  501  502  0.00000000000E+00  0.00000000000E+00  0.28575604665E+03  0.28575604665E+03  0.00000000000E+00 0.  1.
         21   -1    0    0  502  503 -0.00000000000E+00 -0.00000000000E+00 -0.27497206089E+03  0.27497206089E+03  0.00000000000E+00 0.  1.
         -6    2    1    2    0  503 -0.55707920978E+02 -0.25023452128E+02 -0.20900417117E+03  0.27720449003E+03  0.17155185838E+03 0.  0.
        -24    2    3    3    0    0 -0.65533489521E+02 -0.74173499621E+02 -0.17642104854E+03  0.21723767550E+03  0.79192644806E+02 0.  0.
          6    2    1    2  501    0  0.55707920978E+02  0.25023452128E+02  0.21978815693E+03  0.28352361750E+03  0.16837239127E+03 0.  0.
         24    2    5    5    0    0  0.70900594477E+01  0.33566513851E+02  0.21701132161E+03  0.23385993683E+03  0.80122260042E+02 0.  0.
          5    1    5    5  501    0  0.48617861531E+02 -0.85430617227E+01  0.27768353181E+01  0.49663680671E+02  0.47000000000E+01 0. -1.
        -13    1    6    6    0    0  0.35623824079E+02  0.12260106028E+02  0.47389729025E+02  0.60540510891E+02  0.00000000000E+00 0.  1.
         14    1    6    6    0    0 -0.28533764632E+02  0.21306407823E+02  0.16962159258E+03  0.17331942594E+03  0.00000000000E+00 0. -1.
         -5    1    3    3    0  503  0.98255685427E+01  0.49150047493E+02 -0.32583122624E+02  0.59966814537E+02  0.47000000000E+01 0.  1.
         13    1    4    4    0    0  0.10380841329E+02  0.52968353344E+01 -0.31857993477E+01  0.12081707194E+02  0.00000000000E+00 0. -1.
        -14    1    4    4    0    0 -0.75914330850E+02 -0.79470334955E+02 -0.17323524920E+03  0.20515596830E+03  0.00000000000E+00 0.  1.
</event>
<event>
12    1  0.8271773E-002  0.1833775E+03  0.7818608E-02  0.1164637E+00
         21   -1    0    0  503  502  0.00000000000E+00  0.00000000000E+00  0.38432822386E+03  0.38432822386E+03  0.00000000000E+00 0. -1.
         21   -1    0    0  501  503 -0.00000000000E+00 -0.00000000000E+00 -0.10065870696E+03  0.10065870696E+03  0.00000000000E+00 0. -1.
          6    2    1    2  501    0 -0.55342398119E+02 -0.38872529460E+02  0.53629538267E+02  0.19080044914E+03  0.17016118665E+03 0.  0.
         24    2    3    3    0    0 -0.39822064201E+02 -0.81349736202E+02  0.73732705335E+02  0.14108705876E+03  0.79154721497E+02 0.  0.
         -6    2    1    2    0  502  0.55342398119E+02  0.38872529460E+02  0.23003997863E+03  0.29418648168E+03  0.17045069569E+03 0.  0.
        -24    2    5    5    0    0  0.96187978712E+02  0.50494226793E+02  0.20163384241E+03  0.24287932937E+03  0.80823066293E+02 0.  0.
          5    1    3    3  501    0 -0.15520333917E+02  0.42477206743E+02 -0.20103167067E+02  0.49713390386E+02  0.47000000000E+01 0. -1.
        -13    1    4    4    0    0 -0.24845563765E+01 -0.11086848099E+02  0.59103947704E+02  0.60186110153E+02  0.00000000000E+00 0.  1.
         14    1    4    4    0    0 -0.37337507825E+02 -0.70262888103E+02  0.14628757631E+02  0.80900948604E+02  0.00000000000E+00 0. -1.
         -5    1    5    5    0  502 -0.40845580593E+02 -0.11621697334E+02  0.28406136217E+02  0.51307152305E+02  0.47000000000E+01 0.  1.
         13    1    6    6    0    0  0.29791996571E+02 -0.21828347253E+02  0.48199324433E+02  0.60722439668E+02  0.00000000000E+00 0. -1.
        -14    1    6    6    0    0  0.66395982141E+02  0.72322574046E+02  0.15343451798E+03  0.18215688971E+03  0.00000000000E+00 0.  1.
</event>
<event>
12    1  0.8271773E-002  0.2374947E+03  0.7818608E-02  0.1121828E+00
         21   -1    0    0  501  502  0.00000000000E+00  0.00000000000E+00  0.18617614656E+02  0.18617614656E+02  0.00000000000E+00 0.  1.
         21   -1    0    0  502  503 -0.00000000000E+00 -0.00000000000E+00 -0.33388894572E+04  0.33388894572E+04  0.00000000000E+00 0.  1.
         -6    2    1    2    0  503  0.20041911749E+02  0.15994560778E+03 -0.21860145125E+04  0.21986527155E+04  0.17155185482E+03 0.  0.
        -24    2    3    3    0    0  0.27954370435E+01  0.48694940931E+02 -0.15370737084E+04  0.15400022703E+04  0.81439521763E+02 0.  0.
          6    2    1    2  501    0 -0.20041911749E+02 -0.15994560778E+03 -0.11342573300E+04  0.11588543563E+04  0.17441173350E+03 0.  0.
         24    2    5    5    0    0 -0.60014182418E+02 -0.10211121621E+03 -0.49018793326E+03  0.51094226575E+03  0.82154649555E+02 0.  0.
          5    1    5    5  501    0  0.39972270669E+02 -0.57834391576E+02 -0.64406939676E+03  0.64791209057E+03  0.47000000000E+01 0. -1.
        -13    1    6    6    0    0  0.69202952686E+01 -0.36641975431E+02 -0.59692511003E+02  0.70382673435E+02  0.00000000000E+00 0.  1.
         14    1    6    6    0    0 -0.66934477687E+02 -0.65469240778E+02 -0.43049542226E+03  0.44055959231E+03  0.00000000000E+00 0. -1.
         -5    1    3    3    0  503  0.17246474706E+02  0.11125066685E+03 -0.64894080410E+03  0.65865044522E+03  0.47000000000E+01 0.  1.
         13    1    4    4    0    0 -0.77122986420E+01  0.62689604659E+02 -0.14385784302E+04  0.14399643628E+04  0.00000000000E+00 0. -1.
        -14    1    4    4    0    0  0.10507735685E+02 -0.13994663728E+02 -0.98495278130E+02  0.10003790750E+03  0.00000000000E+00 0.  1.
</event>
<event>
12    1  0.8271773E-002  0.1720503E+03  0.7818608E-02  0.1180351E+00
         21   -1    0    0  503  502  0.00000000000E+00  0.00000000000E+00  0.40991695265E+02  0.40991695265E+02  0.00000000000E+00 0. -1.
         21   -1    0    0  501  503 -0.00000000000E+00 -0.00000000000E+00 -0.13784906509E+04  0.13784906509E+04  0.00000000000E+00 0. -1.
          6    2    1    2  501    0  0.19340223362E+02  0.38325061263E+01 -0.11670402673E+04  0.11772892683E+04  0.15374753090E+03 0.  0.
         24    2    3    3    0    0 -0.41331654210E+02 -0.99991550201E+01 -0.74892862075E+03  0.75454604764E+03  0.81470057624E+02 0.  0.
         -6    2    1    2    0  502 -0.19340223362E+02 -0.38325061263E+01 -0.17045868828E+03  0.24219307788E+03  0.17091691028E+03 0.  0.
        -24    2    5    5    0    0 -0.57436316236E+02 -0.88257117585E+01 -0.17701135080E+03  0.20293404349E+03  0.80451128565E+02 0.  0.
          5    1    3    3  501    0  0.60671877572E+02  0.13831661146E+02 -0.41811164659E+03  0.42274322063E+03  0.47000000000E+01 0. -1.
        -11    1    4    4    0    0 -0.52573510275E+02  0.21175837650E+02 -0.54539383981E+03  0.54833094987E+03  0.00000000000E+00 0.  1.
         12    1    4    4    0    0  0.11241856065E+02 -0.31174992670E+02 -0.20353478094E+03  0.20621509777E+03  0.00000000000E+00 0. -1.
         -5    1    5    5    0  502  0.38096092874E+02  0.49932056322E+01  0.65526625138E+01  0.39259034384E+02  0.47000000000E+01 0.  1.
         13    1    6    6    0    0 -0.27433961038E+02 -0.42234412646E+02 -0.64783301623E+02  0.82056346488E+02  0.00000000000E+00 0. -1.
        -14    1    6    6    0    0 -0.30002355198E+02  0.33408700887E+02 -0.11222804917E+03  0.12087769701E+03  0.00000000000E+00 0.  1.
</event>
<event>
12    1  0.8271773E-002  0.1745228E+03  0.7818608E-02  0.1173229E+00
         21   -1    0    0  503  502  0.00000000000E+00  0.00000000000E+00  0.37482530330E+03  0.37482530330E+03  0.00000000000E+00 0. -1.
         21   -1    0    0  501  503 -0.00000000000E+00 -0.00000000000E+00 -0.11602213847E+03  0.11602213847E+03  0.00000000000E+00 0. -1.
          6    2    1    2  501    0  0.27964325911E+02  0.53848681434E+01 -0.49815168877E+01  0.17459383859E+03  0.17218360152E+03 0.  0.
         24    2    3    3    0    0  0.69611530826E+02 -0.31448882869E+02 -0.60920821208E+00  0.11862579437E+03  0.90757426674E+02 0.  0.
         -6    2    1    2    0  502 -0.27964325911E+02 -0.53848681434E+01  0.26378468173E+03  0.31625360318E+03  0.17211328503E+03 0.  0.
        -24    2    5    5    0    0 -0.85692453145E+01  0.44401849549E+02  0.76257579089E+02  0.12120645341E+03  0.82648834061E+02 0.  0.
          5    1    3    3  501    0 -0.41647204915E+02  0.36833751012E+02 -0.43723086756E+01  0.55968044222E+02  0.47000000000E+01 0. -1.
        -13    1    4    4    0    0  0.35868520382E+02 -0.61392967565E+02 -0.11970227135E+02  0.72103630689E+02  0.00000000000E+00 0.  1.
         14    1    4    4    0    0  0.33743010445E+02  0.29944084696E+02  0.11361018923E+02  0.46522163677E+02  0.00000000000E+00 0. -1.
         -5    1    5    5    0  502 -0.19395080597E+02 -0.49786717693E+02  0.18752710264E+03  0.19504714977E+03  0.47000000000E+01 0.  1.
         13    1    6    6    0    0 -0.16440079183E+02 -0.13632548288E+02  0.54832287287E+02  0.58844730482E+02  0.00000000000E+00 0. -1.
        -14    1    6    6    0    0  0.78708338683E+01  0.58034397837E+02  0.21425291802E+02  0.62361722931E+02  0.00000000000E+00 0.  1.
</event>
<event>
12    1  0.8271773E-002  0.1993932E+03  0.7818608E-02  0.1150821E+00
         21   -1    0    0  501  502  0.00000000000E+00  0.00000000000E+00  0.65017531739E+02  0.65017531739E+02  0.00000000000E+00 0.  1.
         21   -1    0    0  502  503 -0.00000000000E+00 -0.00000000000E+00 -0.69779924045E+03  0.69779924045E+03  0.00000000000E+00 0.  1.
         -6    2    1    2    0  503 -0.10025774300E+03  0.31949676866E+01 -0.45856523017E+03  0.50003970641E+03  0.17232473653E+03 0.  0.
        -24    2    3    3    0    0 -0.23307227461E+02  0.55798168629E+02 -0.18021663546E+03  0.20646091159E+03  0.80569285990E+02 0.  0.
          6    2    1    2  501    0  0.10025774300E+03 -0.31949676866E+01 -0.17421647854E+03  0.26277706578E+03  0.16922937704E+03 0.  0.
         24    2    5    5    0    0  0.94934875466E+02  0.50507080249E+02 -0.15677871347E+03  0.20587004932E+03  0.78989344056E+02 0.  0.
          5    1    5    5  501    0  0.53228675297E+01 -0.53702047935E+02 -0.17437765067E+02  0.56907016454E+02  0.47000000000E+01 0. -1.
        -11    1    6    6    0    0  0.15278458249E+02  0.69499122105E+01  0.73354918392E+01  0.18317805729E+02  0.00000000000E+00 0.  1.
         12    1    6    6    0    0  0.79656417218E+02  0.43557168038E+02 -0.16411420531E+03  0.18755224359E+03  0.00000000000E+00 0. -1.
         -5    1    3    3    0  503 -0.76950515535E+02 -0.52603200943E+02 -0.27834859471E+03  0.29357879482E+03  0.47000000000E+01 0.  1.
         11    1    4    4    0    0 -0.42956733661E+02  0.45123302333E+02 -0.17149082813E+03  0.18245683740E+03  0.00000000000E+00 0. -1.
        -12    1    4    4    0    0  0.19649506201E+02  0.10674866296E+02 -0.87258073277E+01  0.24004074194E+02  0.00000000000E+00 0.  1.
</event>
<event>
12    1  0.8271773E-002  0.1864079E+03  0.7818608E-02  0.1161765E+00
         21   -1    0    0  501  502  0.00000000000E+00  0.00000000000E+00  0.21414961777E+03  0.21414961777E+03  0.00000000000E+00 0.  1.
         21   -1    0    0  502  503 -0.00000000000E+00 -0.00000000000E+00 -0.22838321251E+03  0.22838321251E+03  0.00000000000E+00 0. -1.
         -6    2    1    2    0  503 -0.61116450930E+02  0.39660205617E+02 -0.12625165907E+03  0.22505651538E+03  0.17147245030E+03 0.  0.
        -24    2    3    3    0    0 -0.62125441008E+02  0.46838963252E+02 -0.13787133851E+02  0.11226062868E+03  0.79742741316E+02 0.  0.
          6    2    1    2  501    0  0.61116450930E+02 -0.39660205617E+02  0.11201806434E+03  0.21747631491E+03  0.17158015131E+03 0.  0.
         24    2    5    5    0    0  0.14091055359E+02  0.40265010378E+02  0.60956079885E+02  0.11151007388E+03  0.83060363594E+02 0.  0.
          5    1    5    5  501    0  0.47025395570E+02 -0.79925215996E+02  0.51061984452E+02  0.10596624102E+03  0.47000000000E+01 0. -1.
        -13    1    6    6    0    0  0.45838596467E+02  0.54196478735E+01  0.27883950662E+02  0.53926470436E+02  0.00000000000E+00 0.  1.
         14    1    6    6    0    0 -0.31747541108E+02  0.34845362505E+02  0.33072129224E+02  0.57583603447E+02  0.00000000000E+00 0. -1.
         -5    1    3    3    0  503  0.10089900783E+01 -0.71787576346E+01 -0.11246452522E+03  0.11279588670E+03  0.47000000000E+01 0.  1.
         11    1    4    4    0    0  0.30222648674E+01  0.61397034440E+00 -0.30495403400E+02  0.30650948974E+02  0.00000000000E+00 0. -1.
        -12    1    4    4    0    0 -0.65147705875E+02  0.46224992908E+02  0.16708269549E+02  0.81609679704E+02  0.00000000000E+00 0.  1.
</event>
<event>
12    1  0.8271773E-002  0.2318909E+03  0.7818608E-02  0.1125539E+00
         21   -1    0    0  503  502  0.00000000000E+00  0.00000000000E+00  0.64854840208E+03  0.64854840208E+03  0.00000000000E+00 0. -1.
         21   -1    0    0  501  503 -0.00000000000E+00 -0.00000000000E+00 -0.22436543840E+03  0.22436543840E+03  0.00000000000E+00 0.  1.
          6    2    1    2  501    0 -0.15090455922E+03 -0.36677378046E+02 -0.13480237342E+03  0.26822575876E+03  0.17220906401E+03 0.  0.
         24    2    3    3    0    0 -0.10314267385E+02 -0.50539994504E+02 -0.43811905168E+02  0.10012115559E+03  0.73784060650E+02 0.  0.
         -6    2    1    2    0  502  0.15090455922E+03  0.36677378046E+02  0.55898533711E+03  0.60468808172E+03  0.17048651859E+03 0.  0.
        -24    2    5    5    0    0  0.17305752048E+02  0.48524786200E+02  0.18945403944E+03  0.21154119783E+03  0.78757230716E+02 0.  0.
          5    1    3    3  501    0 -0.14059029183E+03  0.13862616458E+02 -0.90990468256E+02  0.16810460317E+03  0.47000000000E+01 0. -1.
        -13    1    4    4    0    0 -0.14124825828E+02 -0.62207712450E+02 -0.10538186853E+02  0.64655731185E+02  0.00000000000E+00 0.  1.
         14    1    4    4    0    0  0.38105584437E+01  0.11667717945E+02 -0.33273718316E+02  0.35465424405E+02  0.00000000000E+00 0. -1.
         -5    1    5    5    0  502  0.13359880717E+03 -0.11847408153E+02  0.36953129766E+03  0.39314688389E+03  0.47000000000E+01 0.  1.
         11    1    6    6    0    0  0.13628945144E+02  0.29724615636E+02  0.18958496998E+03  0.19238441144E+03  0.00000000000E+00 0. -1.
        -12    1    6    6    0    0  0.36768069045E+01  0.18800170564E+02 -0.13093054070E+00  0.19156786396E+02  0.00000000000E+00 0.  1.
</event>
<event>
12    1  0.8271773E-002  0.2368483E+03  0.7818608E-02  0.1122207E+00
         21   -1    0    0  503  502  0.00000000000E+00  0.00000000000E+00  0.22900612678E+02  0.22900612678E+02  0.00000000000E+00 0.  1.
         21   -1    0    0  501  503 -0.00000000000E+00 -0.00000000000E+00 -0.27198931019E+04  0.27198931019E+04  0.00000000000E+00 0. -1.
          6    2    1    2  501    0  0.15625760576E+03 -0.39106177807E+02 -0.90645018557E+03  0.93688261422E+03  0.17364147373E+03 0.  0.
         24    2    3    3    0    0  0.49324704302E+02  0.11865291293E+01 -0.20071305708E+03  0.22193846802E+03  0.80849353738E+02 0.  0.
         -6    2    1    2    0  502 -0.15625760576E+03  0.39106177807E+02 -0.17905423036E+04  0.18059111003E+04  0.17125252918E+03 0.  0.
        -24    2    5    5    0    0 -0.15041182503E+03  0.66651164397E+02 -0.17324680216E+04  0.17411993420E+04  0.57127994611E+02 0.  0.
          5    1    3    3  501    0  0.10693290146E+03 -0.40292706937E+02 -0.70573712849E+03  0.71494414620E+03  0.47000000000E+01 0. -1.
        -13    1    4    4    0    0  0.59733988443E+02  0.76782959546E+01 -0.20083445280E+03  0.20967017679E+03  0.00000000000E+00 0.  1.
         14    1    4    4    0    0 -0.10409284141E+02 -0.64917668253E+01  0.12139571914E+00  0.12268291232E+02  0.00000000000E+00 0. -1.
         -5    1    5    5    0  502 -0.58457807303E+01 -0.27544986590E+02 -0.58074282001E+02  0.64711758348E+02  0.47000000000E+01 0.  1.
         13    1    6    6    0    0 -0.81262461444E+02  0.47218908952E+02 -0.12352065874E+04  0.12387770286E+04  0.00000000000E+00 0. -1.
        -14    1    6    6    0    0 -0.69149363583E+02  0.19432255445E+02 -0.49726143422E+03  0.50242231340E+03  0.00000000000E+00 0.  1.
</event>
<event>
12    1  0.8271773E-002  0.2272297E+03  0.7818608E-02  0.1128752E+00
         21   -1    0    0  503  502  0.00000000000E+00  0.00000000000E+00  0.13947777791E+03  0.13947777791E+03  0.00000000000E+00 0.  1.
         21   -1    0    0  501  503 -0.00000000000E+00 -0.00000000000E+00 -0.56653815557E+03  0.56653815557E+03  0.00000000000E+00 0. -1.
          6    2    1    2  501    0  0.69232256892E+02 -0.12946617627E+03 -0.42230781233E+03  0.47955940224E+03  0.17343222229E+03 0.  0.
         24    2    3    3    0    0  0.24115976546E+02 -0.85957376942E+02 -0.39192383426E+03  0.40974700725E+03  0.79486269955E+02 0.  0.
         -6    2    1    2    0  502 -0.69232256892E+02  0.12946617627E+03 -0.47525653334E+01  0.22645653124E+03  0.17235248031E+03 0.  0.
        -24    2    5    5    0    0  0.25514803248E+02  0.71765637534E+02 -0.26898557905E+02  0.11323598291E+03  0.79357063284E+02 0.  0.
          5    1    3    3  501    0  0.45116280346E+02 -0.43508799331E+02 -0.30383978072E+02  0.69812394995E+02  0.47000000000E+01 0. -1.
        -13    1    4    4    0    0  0.44511957315E+02 -0.17054198165E+02 -0.15863743424E+03  0.16564418360E+03  0.00000000000E+00 0.  1.
         14    1    4    4    0    0 -0.20395980769E+02 -0.68903178777E+02 -0.23328640002E+03  0.24410282365E+03  0.00000000000E+00 0. -1.
         -5    1    5    5    0  502 -0.94747060140E+02  0.57700538739E+02  0.22145992571E+02  0.11322054832E+03  0.47000000000E+01 0.  1.
         13    1    6    6    0    0 -0.14725884792E+01  0.13639050660E+02  0.26485948269E+02  0.29827800379E+02  0.00000000000E+00 0. -1.
        -14    1    6    6    0    0  0.26987391727E+02  0.58126586873E+02 -0.53384506174E+02  0.83408182532E+02  0.00000000000E+00 0.  1.
</event>
<event>
12    1  0.8271773E-002  0.2860573E+03  0.7818608E-02  0.1093015E+00
         21   -1    0    0  503  502  0.00000000000E+00  0.00000000000E+00  0.40313977319E+03  0.40313977319E+03  0.00000000000E+00 0.  1.
         21   -1    0    0  501  503 -0.00000000000E+00 -0.00000000000E+00 -0.58302347681E+03  0.58302347681E+03  0.00000000000E+00 0.  1.
          6    2    1    2  501    0 -0.12173283470E+03 -0.18709753216E+03 -0.48942516716E+03  0.56468408789E+03  0.17177530463E+03 0.  0.
         24    2    3    3    0    0 -0.51260410207E+02 -0.15718051947E+03 -0.43295237366E+03  0.46943359357E+03  0.74744869788E+02 0.  0.
         -6    2    1    2    0  502  0.12173283470E+03  0.18709753216E+03  0.30954146354E+03  0.42147916211E+03  0.17889772736E+03 0.  0.
        -24    2    5    5    0    0  0.69316902529E+02  0.17818922993E+02  0.80304263096E+02  0.13169568857E+03  0.75977843640E+02 0.  0.
          5    1    3    3  501    0 -0.70472424495E+02 -0.29917012695E+02 -0.56472793502E+02  0.95250494323E+02  0.47000000000E+01 0. -1.
        -11    1    4    4    0    0  0.35340894675E+00 -0.28203199664E+02 -0.16718851734E+03  0.16955101209E+03  0.00000000000E+00 0.  1.
         12    1    4    4    0    0 -0.51613819154E+02 -0.12897731980E+03 -0.26576385632E+03  0.29988258148E+03  0.00000000000E+00 0. -1.
         -5    1    5    5    0  502  0.52415932173E+02  0.16927860917E+03  0.22923720045E+03  0.28978347354E+03  0.47000000000E+01 0.  1.
         13    1    6    6    0    0  0.10093551506E+02 -0.18559680113E+02  0.52938267615E+02  0.56998260376E+02  0.00000000000E+00 0. -1.
        -14    1    6    6    0    0  0.59223351023E+02  0.36378603105E+02  0.27365995482E+02  0.74697428195E+02  0.00000000000E+00 0.  1.
</event>
<event>
12    1  0.8271773E-002  0.1879756E+03  0.7818608E-02  0.1160650E+00
         21   -1    0    0  501  502  0.00000000000E+00  0.00000000000E+00  0.12192852255E+03  0.12192852255E+03  0.00000000000E+00 0. -1.
         21   -1    0    0  502  503 -0.00000000000E+00 -0.00000000000E+00 -0.57265449998E+03  0.57265449998E+03  0.00000000000E+00 0. -1.
         -6    2    1    2    0  503  0.26204527301E+02  0.69125570260E+02 -0.46998986378E+03  0.50562288577E+03  0.17116953247E+03 0.  0.
        -24    2    3    3    0    0  0.29563317463E+02  0.11373562589E+03 -0.38046671881E+03  0.40543395415E+03  0.76236373976E+02 0.  0.
          6    2    1    2  501    0 -0.26204527301E+02 -0.69125570260E+02  0.19263886355E+02  0.18896013676E+03  0.17282885827E+03 0.  0.
         24    2    5    5    0    0 -0.63318538514E+02  0.68157808568E+01  0.50189462157E+01  0.10311407128E+03  0.80942137894E+02 0.  0.
          5    1    5    5  501    0  0.37114011213E+02 -0.75941351117E+02  0.14244940139E+02  0.85846065474E+02  0.47000000000E+01 0. -1.
        -11    1    6    6    0    0 -0.33309597842E+02  0.40633493021E+02  0.18870222262E+02  0.55827370990E+02  0.00000000000E+00 0.  1.
         12    1    6    6    0    0 -0.30008940672E+02 -0.33817712164E+02 -0.13851276046E+02  0.47286700291E+02  0.00000000000E+00 0. -1.
         -5    1    3    3    0  503 -0.33587901619E+01 -0.44610055632E+02 -0.89523144968E+02  0.10018893162E+03  0.47000000000E+01 0.  1.
         11    1    4    4    0    0 -0.17624125649E+02  0.80047282784E+02 -0.21403300373E+03  0.22919054075E+03  0.00000000000E+00 0. -1.
        -12    1    4    4    0    0  0.47187443112E+02  0.33688343109E+02 -0.16643371509E+03  0.17624341340E+03  0.00000000000E+00 0.  1.
</event>
<event>
12    1  0.8271773E-002  0.1795732E+03  0.7818608E-02  0.1168375E+00
         21   -1    0    0  501  502  0.00000000000E+00  0.00000000000E+00  0.20642703903E+02  0.20642703903E+02  0.00000000000E+00 0.  1.
         21   -1    0    0  502  503 -0.00000000000E+00 -0.00000000000E+00 -0.15873459196E+04  0.15873459196E+04  0.00000000000E+00 0.  1.
         -6    2    1    2    0  503 -0.41604865265E+02 -0.19698065720E+02 -0.89684535325E+03  0.91464643837E+03  0.17357286935E+03 0.  0.
        -24    2    3    3    0    0 -0.63204365729E+02 -0.52568018201E+02 -0.82561163530E+03  0.83313996766E+03  0.75693097238E+02 0.  0.
          6    2    1    2  501    0  0.41604865265E+02  0.19698065720E+02 -0.66985786249E+03  0.69334218517E+03  0.17290127586E+03 0.  0.
         24    2    5    5    0    0  0.89345526732E+02 -0.63891017521E+01 -0.37815277901E+03  0.39657012315E+03  0.79024645148E+02 0.  0.
          5    1    5    5  501    0 -0.47740661467E+02  0.26087167472E+02 -0.29170508348E+03  0.29677206201E+03  0.47000000000E+01 0. -1.
        -13    1    6    6    0    0  0.55051627706E+02 -0.14880273679E+02 -0.91974147977E+02  0.10821898241E+03  0.00000000000E+00 0.  1.
         14    1    6    6    0    0  0.34293899027E+02  0.84911719267E+01 -0.28617863103E+03  0.28835114074E+03  0.00000000000E+00 0. -1.
         -5    1    3    3    0  503  0.21599500463E+02  0.32869952481E+02 -0.71233717941E+02  0.81506470713E+02  0.47000000000E+01 0.  1.
         13    1    4    4    0    0 -0.64575965991E+02 -0.45644760456E+02 -0.41497021592E+03  0.42243790034E+03  0.00000000000E+00 0. -1.
        -14    1    4    4    0    0  0.13716002620E+01 -0.69232577454E+01 -0.41064141938E+03  0.41070206732E+03  0.00000000000E+00 0.  1.
</event>
<event>
12    1  0.8271773E-002  0.2460447E+03  0.7818608E-02  0.1116568E+00
         21   -1    0    0  501  502  0.00000000000E+00  0.00000000000E+00  0.13712918466E+03  0.13712918466E+03  0.00000000000E+00 0.  1.
         21   -1    0    0  502  503 -0.00000000000E+00 -0.00000000000E+00 -0.60012749581E+03  0.60012749581E+03  0.00000000000E+00 0. -1.
         -6    2    1    2    0  503 -0.12748502709E+03 -0.12236246562E+03 -0.42735575535E+03  0.49312363865E+03  0.17121032750E+03 0.  0.
        -24    2    3    3    0    0 -0.13199635394E+03 -0.10044592011E+03 -0.43217963557E+03  0.46975599312E+03  0.79868863436E+02 0.  0.
          6    2    1    2  501    0  0.12748502709E+03  0.12236246562E+03 -0.35642555805E+02  0.24413304182E+03  0.16463761781E+03 0.  0.
         24    2    5    5    0    0  0.27506812079E+02  0.10874451289E+03 -0.31956876179E+02  0.14305502073E+03  0.82834191170E+02 0.  0.
          5    1    5    5  501    0  0.99978215006E+02  0.13617952734E+02 -0.36856796251E+01  0.10107802109E+03  0.47000000000E+01 0. -1.
        -13    1    6    6    0    0  0.38438387956E+02  0.10834312755E+03 -0.62638557957E+01  0.11513026903E+03  0.00000000000E+00 0.  1.
         14    1    6    6    0    0 -0.10931575876E+02  0.40138533600E+00 -0.25693020384E+02  0.27924751705E+02  0.00000000000E+00 0. -1.
         -5    1    3    3    0  503  0.45113268543E+01 -0.21916545512E+02  0.48238802268E+01  0.23367645530E+02  0.47000000000E+01 0.  1.
         13    1    4    4    0    0 -0.67803766569E+02 -0.98497375403E+02 -0.26827771819E+03  0.29372098631E+03  0.00000000000E+00 0. -1.
        -14    1    4    4    0    0 -0.64192587371E+02 -0.19485447067E+01 -0.16390191738E+03  0.17603500681E+03  0.00000000000E+00 0.  1.
</event>
<event>
12    1  0.8271773E-002  0.2155045E+03  0.7818608E-02  0.1137366E+00
         21   -1    0    0  501  502  0.00000000000E+00  0.00000000000E+00  0.21223407765E+03  0.21223407765E+03  0.00000000000E+00 0.  1.
         21   -1    0    0  502  503 -0.00000000000E+00 -0.00000000000E+00 -0.59980278434E+03  0.59980278434E+03  0.00000000000E+00 0. -1.
         -6    2    1    2    0  503  0.51413196815E+02  0.12016892137E+03 -0.51763878652E+03  0.56070677116E+03  0.17134259087E+03 0.  0.
        -24    2    3    3    0    0  0.16919501030E+01  0.12220225517E+03 -0.46808618760E+03  0.49032291732E+03  0.79847544544E+02 0.  0.
          6    2    1    2  501    0 -0.51413196815E+02 -0.12016892137E+03  0.13007007983E+03  0.25133009082E+03  0.17077676193E+03 0.  0.
         24    2    5    5    0    0 -0.86196893224E+01 -0.83968493612E+02  0.15081116928E+03  0.19137979437E+03  0.82202250275E+02 0.  0.
          5    1    5    5  501    0 -0.42793507493E+02 -0.36200427756E+02 -0.20741089445E+02  0.59950296451E+02  0.47000000000E+01 0. -1.
        -11    1    6    6    0    0  0.13015504264E+02 -0.93333173671E+02  0.12169523100E+03  0.15391625615E+03  0.00000000000E+00 0.  1.
         12    1    6    6    0    0 -0.21635193586E+02  0.93646800594E+01  0.29115938277E+02  0.37463538219E+02  0.00000000000E+00 0. -1.
         -5    1    3    3    0  503  0.49721246712E+02 -0.20333337984E+01 -0.49552598925E+02  0.70383853839E+02  0.47000000000E+01 0.  1.
         11    1    4    4    0    0 -0.19757053836E+02  0.13658726610E+02 -0.29735385307E+02  0.38224274071E+02  0.00000000000E+00 0. -1.
        -12    1    4    4    0    0  0.21449003939E+02  0.10854352856E+03 -0.43835080229E+03  0.45209864325E+03  0.00000000000E+00 0.  1.
</event>
<event>
12    1  0.8271773E-002  0.1897502E+03  0.7818608E-02  0.1160398E+00
         21   -1    0    0  501  502  0.00000000000E+00  0.00000000000E+00  0.29112718601E+03  0.29112718601E+03  0.00000000000E+00 0. -1.
         21   -1    0    0  502  503 -0.00000000000E+00 -0.00000000000E+00 -0.22441058765E+03  0.22441058765E+03  0.00000000000E+00 0.  1.
         -6    2    1    2    0  503 -0.64161215188E+02 -0.47391715872E+02 -0.14302912765E+03  0.23761830709E+03  0.17216995162E+03 0.  0.
        -24    2    3    3    0    0 -0.85190995367E+01  0.21395214660E+02 -0.11981489113E+03  0.14602858265E+03  0.80239694335E+02 0.  0.
          6    2    1    2  501    0  0.64161215188E+02  0.47391715872E+02  0.20974572602E+03  0.27791946656E+03  0.16396134924E+03 0.  0.
         24    2    5    5    0    0  0.11021916479E+02 -0.32268502776E+02  0.12516599766E+03  0.15007050899E+03  0.75444627281E+02 0.  0.
          5    1    5    5  501    0  0.53139298709E+02  0.79660218648E+02  0.84579728363E+02  0.12784895757E+03  0.47000000000E+01 0. -1.
        -13    1    6    6    0    0  0.32012445334E+02 -0.25144694198E+02  0.25646598639E+02  0.48112371843E+02  0.00000000000E+00 0.  1.
         14    1    6    6    0    0 -0.20990528855E+02 -0.71238085779E+01  0.99519399017E+02  0.10195813715E+03  0.00000000000E+00 0. -1.
         -5    1    3    3    0  503 -0.55642115651E+02 -0.68786930532E+02 -0.23214236522E+02  0.91589724442E+02  0.47000000000E+01 0.  1.
         11    1    4    4    0    0  0.14637150580E+02  0.69621734205E+01  0.60040898348E+01  0.17284881561E+02  0.00000000000E+00 0. -1.
        -12    1    4    4    0    0 -0.23156250117E+02  0.14433041239E+02 -0.12581898097E+03  0.12874370109E+03  0.00000000000E+00 0.  1.
</event>
<event>
12    1  0.8271773E-002  0.2012445E+03  0.7818608E-02  0.1148834E+00
         21   -1    0    0  503  502  0.00000000000E+00  0.00000000000E+00  0.10971278225E+03  0.10971278225E+03  0.00000000000E+00 0. -1.
         21   -1    0    0  501  503 -0.00000000000E+00 -0.00000000000E+00 -0.36956192279E+03  0.36956192279E+03  0.00000000000E+00 0.  1.
          6    2    1    2  501    0 -0.41414126162E+02 -0.92804146104E+02 -0.14572565403E+03  0.24792322195E+03  0.17292257909E+03 0.  0.
         24    2    3    3    0    0  0.46803566387E+02 -0.47578575235E+02 -0.10374121704E+03  0.14016192793E+03  0.66549464912E+02 0.  0.
         -6    2    1    2    0  502  0.41414126162E+02  0.92804146104E+02 -0.11412348651E+03  0.23135148310E+03  0.17369973857E+03 0.  0.
        -24    2    5    5    0    0  0.89586754976E+02  0.66784193432E+02 -0.49936191618E+02  0.14685450724E+03  0.81158535620E+02 0.  0.
          5    1    3    3  501    0 -0.88217692549E+02 -0.45225570868E+02 -0.41984436991E+02  0.10776129402E+03  0.47000000000E+01 0. -1.
        -13    1    4    4    0    0  0.20370395928E+02 -0.35310060038E+02 -0.10326130587E+03  0.11101644320E+03  0.00000000000E+00 0.  1.
         14    1    4    4    0    0  0.26433170459E+02 -0.12268515198E+02 -0.47991117175E+00  0.29145484734E+02  0.00000000000E+00 0. -1.
         -5    1    5    5    0  502 -0.48172628815E+02  0.26019952672E+02 -0.64187294890E+02  0.84496975859E+02  0.47000000000E+01 0.  1.
         11    1    6    6    0    0  0.94424542736E+02  0.46767537856E+02 -0.15185320356E+02  0.10646027814E+03  0.00000000000E+00 0. -1.
        -12    1    6    6    0    0 -0.48377877599E+01  0.20016655576E+02 -0.34750871263E+02  0.40394229097E+02  0.00000000000E+00 0.  1.
</event>
<event>
12    1  0.8271773E-002  0.2686017E+03  0.7818608E-02  0.1102663E+00
         21   -1    0    0  503  502  0.00000000000E+00  0.00000000000E+00  0.20963746501E+03  0.20963746501E+03  0.00000000000E+00 0.  1.
         21   -1    0    0  501  503 -0.00000000000E+00 -0.00000000000E+00 -0.36066580125E+03  0.36066580125E+03  0.00000000000E+00 0. -1.
          6    2    1    2  501    0  0.10418377054E+03  0.17533882652E+03 -0.62402344878E+01  0.26867421941E+03  0.17478253208E+03 0.  0.
         24    2    3    3    0    0 -0.68265489480E+01  0.49460696452E+02 -0.31259797409E+02  0.98919504625E+02  0.79466541369E+02 0.  0.
         -6    2    1    2    0  502 -0.10418377054E+03 -0.17533882652E+03 -0.14478810175E+03  0.30162904685E+03  0.16857795042E+03 0.  0.
        -24    2    5    5    0    0 -0.34951595902E+02 -0.92723450160E+02 -0.14626728354E+03  0.19372783094E+03  0.79480198675E+02 0.  0.
          5    1    3    3  501    0  0.11101031949E+03  0.12587813007E+03  0.25019562922E+02  0.16975471478E+03  0.47000000000E+01 0. -1.
        -11    1    4    4    0    0 -0.24117715135E+01  0.13917975569E+02  0.27034131013E+02  0.30501982319E+02  0.00000000000E+00 0.  1.
         12    1    4    4    0    0 -0.44147774345E+01  0.35542720883E+02 -0.58293928422E+02  0.68417522306E+02  0.00000000000E+00 0. -1.
         -5    1    5    5    0  502 -0.69232174641E+02 -0.82615376358E+02  0.14791817904E+01  0.10790121591E+03  0.47000000000E+01 0.  1.
         11    1    6    6    0    0 -0.20082356005E+02 -0.69271481430E+02 -0.37143391900E+02  0.81126264083E+02  0.00000000000E+00 0. -1.
        -12    1    6    6    0    0 -0.14869239897E+02 -0.23451968730E+02 -0.10912389164E+03  0.11260156686E+03  0.00000000000E+00 0.  1.
</event>
<event>
12    1  0.8271773E-002  0.1972021E+03  0.7818608E-02  0.1152190E+00
         21   -1    0    0  501  502  0.00000000000E+00  0.00000000000E+00  0.38508293142E+03  0.38508293142E+03  0.00000000000E+00 0.  1.
         21   -1    0    0  502  503 -0.00000000000E+00 -0.00000000000E+00 -0.13719262363E+03  0.13719262363E+03  0.00000000000E+00 0. -1.
         -6    2    1    2    0  503  0.95371929337E+02  0.13156329725E+02 -0.10431637033E+02  0.19747784446E+03  0.17210399788E+03 0.  0.
        -24    2    3    3    0    0  0.78572383411E+02 -0.17440347572E+02 -0.66284486543E+02  0.13144745598E+03  0.80043834048E+02 0.  0.
          6    2    1    2  501    0 -0.95371929337E+02 -0.13156329725E+02  0.25832194482E+03  0.32479771059E+03  0.17173942969E+03 0.  0.
         24    2    5    5    0    0 -0.12152424447E+03 -0.83642436876E+01  0.13308176591E+03  0.19668018607E+03  0.78321367502E+02 0.  0.
          5    1    5    5  501    0  0.26152315135E+02 -0.47920860371E+01  0.12524017891E+03  0.12811752452E+03  0.47000000000E+01 0. -1.
        -11    1    6    6    0    0 -0.50042693828E+02 -0.22731114121E+02  0.10506167937E+03  0.11857036404E+03  0.00000000000E+00 0.  1.
         12    1    6    6    0    0 -0.71481550644E+02  0.14366870433E+02  0.28020086536E+02  0.78109822033E+02  0.00000000000E+00 0. -1.
         -5    1    3    3    0  503  0.16799545926E+02  0.30596677297E+02  0.55852849510E+02  0.66030388484E+02  0.47000000000E+01 0.  1.
         13    1    4    4    0    0  0.69296106335E+02 -0.64656035435E+01 -0.64315000040E+01  0.69893623276E+02  0.00000000000E+00 0. -1.
        -14    1    4    4    0    0  0.92762770761E+01 -0.10974744029E+02 -0.59852986539E+02  0.61553832704E+02  0.00000000000E+00 0.  1.
</event>
<event>
12    1  0.8271773E-002  0.3014858E+03  0.7818608E-02  0.1084586E+00
         21   -1    0    0  503  502  0.00000000000E+00  0.00000000000E+00  0.98743191576E+02  0.98743191576E+02  0.00000000000E+00 0. -1.
         21   -1    0    0  501  503 -0.00000000000E+00 -0.00000000000E+00 -0.11048653648E+04  0.11048653648E+04  0.00000000000E+00 0.  1.
          6    2    1    2  501    0  0.21865319631E+03 -0.11490079952E+03 -0.75076203395E+03  0.80903479678E+03  0.17286485124E+03 0.  0.
         24    2    3    3    0    0  0.81353485091E+02 -0.10685196557E+03 -0.48788213140E+03  0.51231282659E+03  0.79998287896E+02 0.  0.
         -6    2    1    2    0  502 -0.21865319631E+03  0.11490079952E+03 -0.25536013925E+03  0.39457375957E+03  0.17166314991E+03 0.  0.
        -24    2    5    5    0    0 -0.11719157751E+03  0.13558606429E+03 -0.16858610042E+03  0.25939179301E+03  0.82130276746E+02 0.  0.
          5    1    3    3  501    0  0.13729971122E+03 -0.80488339467E+01 -0.26287990255E+03  0.29672197019E+03  0.47000000000E+01 0. -1.
        -11    1    4    4    0    0 -0.23620949356E+01  0.23579619926E+01  0.17103054405E+01  0.37502829150E+01  0.00000000000E+00 0.  1.
         12    1    4    4    0    0  0.83715580027E+02 -0.10920992756E+03 -0.48959243684E+03  0.50856254368E+03  0.00000000000E+00 0. -1.
         -5    1    5    5    0  502 -0.10146161880E+03 -0.20685264766E+02 -0.86774038825E+02  0.13518196656E+03  0.47000000000E+01 0.  1.
         13    1    6    6    0    0 -0.13092717023E+02 -0.10321553577E+02 -0.70382009817E+01  0.18096684236E+02  0.00000000000E+00 0. -1.
        -14    1    6    6    0    0 -0.10409886049E+03  0.14590761786E+03 -0.16154789944E+03  0.24129510877E+03  0.00000000000E+00 0.  1.
</event>
<event>
12    1  0.8271773E-002  0.2426438E+03  0.7818608E-02  0.1118632E+00
         21   -1    0    0  503  502  0.00000000000E+00  0.00000000000E+00  0.70122229416E+03  0.70122229416E+03  0.00000000000E+00 0.  1.
         21   -1    0    0  501  503 -0.00000000000E+00 -0.00000000000E+00 -0.10798940914E+03  0.10798940914E+03  0.00000000000E+00 0.  1.
          6    2    1    2  501    0 -0.58459137732E+02  0.15408116110E+03  0.49058940781E+03  0.54575069162E+03  0.17322637028E+03 0.  0.
         24    2    3    3    0    0 -0.61218042374E+02  0.47300511133E+02  0.34734456752E+03  0.36700256427E+03  0.89764394550E+02 0.  0.
         -6    2    1    2    0  502  0.58459137732E+02 -0.15408116110E+03  0.10264347721E+03  0.26346101169E+03  0.17809420618E+03 0.  0.
        -24    2    5    5    0    0 -0.81865522643E+01 -0.15371488927E+03  0.89855069156E+02  0.19543590212E+03  0.80162157935E+02 0.  0.
          5    1    3    3  501    0  0.27589046421E+01  0.10678064997E+03  0.14324484029E+03  0.17874812735E+03  0.47000000000E+01 0. -1.
        -11    1    4    4    0    0 -0.37131330039E+02  0.71492659445E+02  0.19709329470E+03  0.21292182330E+03  0.00000000000E+00 0.  1.
         12    1    4    4    0    0 -0.24086712335E+02 -0.24192148312E+02  0.15025127283E+03  0.15408074097E+03  0.00000000000E+00 0. -1.
         -5    1    5    5    0  502  0.66645689997E+02 -0.36627182775E+00  0.12788408054E+02  0.68025109561E+02  0.47000000000E+01 0.  1.
         13    1    6    6    0    0 -0.79375568864E+01 -0.33000631463E+02  0.63314002267E+02  0.71838077434E+02  0.00000000000E+00 0. -1.
        -14    1    6    6    0    0 -0.24899537790E+00 -0.12071425781E+03  0.26541066889E+02  0.12359782469E+03  0.00000000000E+00 0.  1.
</event>
<event>
12    1  0.8271773E-002  0.2230223E+03  0.7818608E-02  0.1132134E+00
         21   -1    0    0  501  502  0.00000000000E+00  0.00000000000E+00  0.14521947090E+04  0.14521947090E+04  0.00000000000E+00 0.  1.
         21   -1    0    0  502  503 -0.00000000000E+00 -0.00000000000E+00 -0.34201391588E+02  0.34201391588E+02  0.00000000000E+00 0.  1.
         -6    2    1    2    0  503 -0.69401878677E+02 -0.11873726570E+03  0.63769104911E+03  0.67556554762E+03  0.17556701282E+03 0.  0.
        -24    2    3    3    0    0  0.98001115795E+01 -0.31111702702E+02  0.13227968877E+03  0.15651456004E+03  0.77038374929E+02 0.  0.
          6    2    1    2  501    0  0.69401878677E+02  0.11873726570E+03  0.78030226834E+03  0.81083055300E+03  0.17221903691E+03 0.  0.
         24    2    5    5    0    0  0.65441398527E+02  0.79435350098E+02  0.74955120004E+03  0.76055089335E+03  0.77576468161E+02 0.  0.
          5    1    5    5  501    0  0.39604801496E+01  0.39301915601E+02  0.30751068303E+02  0.50279659652E+02  0.47000000000E+01 0. -1.
        -13    1    6    6    0    0  0.13162238783E+02  0.39102383096E+02  0.10802838935E+03  0.11563898045E+03  0.00000000000E+00 0.  1.
         14    1    6    6    0    0  0.52279159744E+02  0.40332967002E+02  0.64152281069E+03  0.64491191291E+03  0.00000000000E+00 0. -1.
         -5    1    3    3    0  503 -0.79201990256E+02 -0.87625562997E+02  0.50541136034E+03  0.51905098758E+03  0.47000000000E+01 0.  1.
         11    1    4    4    0    0  0.39592603278E+01 -0.56959501328E+02  0.93135914728E+02  0.10924449252E+03  0.00000000000E+00 0. -1.
        -12    1    4    4    0    0  0.58408512517E+01  0.25847798626E+02  0.39143774046E+02  0.47270067524E+02  0.00000000000E+00 0.  1.
</event>
<event>
12    1  0.8271773E-002  0.2997448E+03  0.7818608E-02  0.1085409E+00
         21   -1    0    0  501  502  0.00000000000E+00  0.00000000000E+00  0.93320682010E+03  0.93320682010E+03  0.00000000000E+00 0.  1.
         21   -1    0    0  502  503 -0.00000000000E+00 -0.00000000000E+00 -0.10041972169E+03  0.10041972169E+03  0.00000000000E+00 0.  1.
         -6    2    1    2    0  503 -0.65626034175E+02  0.23639420856E+03  0.31034357218E+03  0.43146272610E+03  0.17221484552E+03 0.  0.
        -24    2    3    3    0    0  0.79856890745E+01  0.19623139018E+03  0.25180271507E+03  0.32908665599E+03  0.79516602744E+02 0.  0.
          6    2    1    2  501    0  0.65626034175E+02 -0.23639420856E+03  0.52244352623E+03  0.60216381569E+03  0.17165379293E+03 0.  0.
         24    2    5    5    0    0 -0.24056665121E+02 -0.98537847359E+02  0.17453996690E+03  0.21731795112E+03  0.80464037548E+02 0.  0.
          5    1    5    5  501    0  0.89682699297E+02 -0.13785636120E+03  0.34790355934E+03  0.38484586457E+03  0.47000000000E+01 0. -1.
        -13    1    6    6    0    0 -0.14437375685E+02 -0.67627655576E+02  0.42055595584E+02  0.80935843329E+02  0.00000000000E+00 0.  1.
         14    1    6    6    0    0 -0.96192894366E+01 -0.30910191783E+02  0.13248437131E+03  0.13638210780E+03  0.00000000000E+00 0. -1.
         -5    1    3    3    0  503 -0.73611723250E+02  0.40162818373E+02  0.58540857110E+02  0.10237607011E+03  0.47000000000E+01 0.  1.
         13    1    4    4    0    0  0.24852801409E+01  0.17054424152E+03  0.16095292681E+03  0.23451515853E+03  0.00000000000E+00 0. -1.
        -14    1    4    4    0    0  0.55004089336E+01  0.25687148664E+02  0.90849788257E+02  0.94571497457E+02  0.00000000000E+00 0.  1.
</event>
<event>
12    1  0.8271773E-002  0.2263039E+03  0.7818608E-02  0.1129469E+00
         21   -1    0    0  503  502  0.00000000000E+00  0.00000000000E+00  0.16058959232E+03  0.16058959232E+03  0.00000000000E+00 0. -1.
         21   -1    0    0  501  503 -0.00000000000E+00 -0.00000000000E+00 -0.31846184366E+03  0.31846184366E+03  0.00000000000E+00 0. -1.
          6    2    1    2  501    0  0.12369799331E+02 -0.14701048804E+03 -0.64944641410E+02  0.23543843514E+03  0.17160522942E+03 0.  0.
         24    2    3    3    0    0 -0.40192919191E+01 -0.74609761439E+01 -0.47671461310E+02  0.93794087094E+02  0.80330204020E+02 0.  0.
         -6    2    1    2    0  502 -0.12369799331E+02  0.14701048804E+03 -0.92927609928E+02  0.24361300085E+03  0.17013717397E+03 0.  0.
        -24    2    5    5    0    0  0.15969497714E+02  0.13866808801E+03 -0.16098094726E+02  0.16116558851E+03  0.78938804003E+02 0.  0.
          5    1    3    3  501    0  0.16389091250E+02 -0.13954951189E+03 -0.17273180099E+02  0.14164434804E+03  0.47000000000E+01 0. -1.
        -13    1    4    4    0    0 -0.11386754391E+02  0.17578810655E+02  0.15094744602E+02  0.25817127536E+02  0.00000000000E+00 0.  1.
         14    1    4    4    0    0  0.73674624724E+01 -0.25039786799E+02 -0.62766205912E+02  0.67976959558E+02  0.00000000000E+00 0. -1.
         -5    1    5    5    0  502 -0.28339297045E+02  0.83424000282E+01 -0.76829515202E+02  0.82447412339E+02  0.47000000000E+01 0.  1.
         11    1    6    6    0    0  0.21850737475E+02  0.14361067451E+03 -0.21936998697E+01  0.14528004984E+03  0.00000000000E+00 0. -1.
        -12    1    6    6    0    0 -0.58812397611E+01 -0.49425865068E+01 -0.13904394857E+02  0.15885538670E+02  0.00000000000E+00 0.  1.
</event>
<event>
12    1  0.8271773E-002  0.2121639E+03  0.7818608E-02  0.1140123E+00
         21   -1    0    0  501  502  0.00000000000E+00  0.00000000000E+00  0.46362382068E+03  0.46362382068E+03  0.00000000000E+00 0.  1.
         21   -1    0    0  502  503 -0.00000000000E+00 -0.00000000000E+00 -0.11370298993E+03  0.11370298993E+03  0.00000000000E+00 0.  1.
         -6    2    1    2    0  503 -0.11885294271E+03 -0.28645937967E+02  0.63100891510E+02  0.22134866759E+03  0.17339809221E+03 0.  0.
        -24    2    3    3    0    0 -0.53677853888E+00 -0.22488493270E+02 -0.68979840250E+01  0.83658575694E+02  0.80281720477E+02 0.  0.
          6    2    1    2  501    0  0.11885294271E+03  0.28645937967E+02  0.28681993924E+03  0.35597814301E+03  0.17177936140E+03 0.  0.
         24    2    5    5    0    0 -0.56824411546E+01  0.44345337896E+01  0.14159335350E+03  0.16308411736E+03  0.80596503350E+02 0.  0.
          5    1    5    5  501    0  0.12453538387E+03  0.24211404178E+02  0.14522658574E+03  0.19289402565E+03  0.47000000000E+01 0. -1.
        -11    1    6    6    0    0  0.31990735054E+02 -0.18337411642E+02  0.62578956485E+02  0.72634658323E+02  0.00000000000E+00 0.  1.
         12    1    6    6    0    0 -0.37673176208E+02  0.22771945431E+02  0.79014397019E+02  0.90449459040E+02  0.00000000000E+00 0. -1.
         -5    1    3    3    0  503 -0.11831616417E+03 -0.61574446971E+01  0.69998875535E+02  0.13769009190E+03  0.47000000000E+01 0.  1.
         11    1    4    4    0    0 -0.10321018804E+02 -0.23350316135E+02  0.33480012310E+02  0.42103110539E+02  0.00000000000E+00 0. -1.
        -12    1    4    4    0    0  0.97842402653E+01  0.86182286516E+00 -0.40377996335E+02  0.41555465155E+02  0.00000000000E+00 0.  1.
</event>
<event>
12    1  0.8271773E-002  0.3506151E+03  0.7818608E-02  0.1062493E+00
         21   -1    0    0  501  502  0.00000000000E+00  0.00000000000E+00  0.37115399416E+03  0.37115399416E+03  0.00000000000E+00 0. -1.
         21   -1    0    0  502  503 -0.00000000000E+00 -0.00000000000E+00 -0.43836746527E+03  0.43836746527E+03  0.00000000000E+00 0.  1.
         -6    2    1    2    0  503  0.30409139206E+03  0.20511514474E+01  0.16757582474E+03  0.38860336230E+03  0.17451399432E+03 0.  0.
        -24    2    3    3    0    0  0.54204136712E+02 -0.22478630622E+02  0.59312305844E+02  0.11512862834E+03  0.79330159260E+02 0.  0.
          6    2    1    2  501    0 -0.30409139206E+03 -0.20511514474E+01 -0.23478929585E+03  0.42091809713E+03  0.17196002181E+03 0.  0.
         24    2    5    5    0    0 -0.16743130694E+03 -0.54349608507E+02 -0.17878010988E+03  0.26416916926E+03  0.82679500555E+02 0.  0.
          5    1    5    5  501    0 -0.13666008511E+03  0.52298457060E+02 -0.56009185970E+02  0.15674892786E+03  0.47000000000E+01 0. -1.
        -13    1    6    6    0    0 -0.10697144441E+03  0.25074035588E+01 -0.72179681038E+02  0.12907007146E+03  0.00000000000E+00 0.  1.
         14    1    6    6    0    0 -0.60459862531E+02 -0.56857012066E+02 -0.10660042884E+03  0.13509909780E+03  0.00000000000E+00 0. -1.
         -5    1    3    3    0  503  0.24988725534E+03  0.24529782069E+02  0.10826351890E+03  0.27347473396E+03  0.47000000000E+01 0.  1.
         13    1    4    4    0    0  0.69613647415E+02 -0.32656262579E+02  0.34703514820E+02  0.84361278635E+02  0.00000000000E+00 0. -1.
        -14    1    4    4    0    0 -0.15409510703E+02  0.10177631957E+02  0.24608791025E+02  0.30767349708E+02  0.00000000000E+00 0.  1.
</event>
<event>
12    1  0.8271773E-002  0.1742454E+03  0.7818608E-02  0.1173702E+00
         21   -1    0    0  503  502  0.00000000000E+00  0.00000000000E+00  0.30509034089E+03  0.30509034089E+03  0.00000000000E+00 0. -1.
         21   -1    0    0  501  503 -0.00000000000E+00 -0.00000000000E+00 -0.12636385726E+03  0.12636385726E+03  0.00000000000E+00 0. -1.
          6    2    1    2  501    0 -0.23160551119E+02 -0.14815690727E+01 -0.11114265214E+02  0.17377036468E+03  0.17185460883E+03 0.  0.
         24    2    3    3    0    0 -0.49360089758E+02 -0.38583270140E+02  0.43195525844E+02  0.10281548147E+03  0.69138141296E+02 0.  0.
         -6    2    1    2    0  502  0.23160551119E+02  0.14815690727E+01  0.18984074884E+03  0.25768383346E+03  0.17269291223E+03 0.  0.
        -24    2    5    5    0    0 -0.47635504132E+02 -0.25476823775E+02  0.11609170589E+03  0.15185450048E+03  0.81635135427E+02 0.  0.
          5    1    3    3  501    0  0.26199538639E+02  0.37101701067E+02 -0.54309791058E+02  0.70954883213E+02  0.47000000000E+01 0. -1.
        -11    1    4    4    0    0 -0.19802386892E+02 -0.32819443750E+02 -0.11807439928E+02  0.40108179369E+02  0.00000000000E+00 0.  1.
         12    1    4    4    0    0 -0.29557702866E+02 -0.57638263903E+01  0.55002965772E+02  0.62707302103E+02  0.00000000000E+00 0. -1.
         -5    1    5    5    0  502  0.70796055251E+02  0.26958392848E+02  0.73749042944E+02  0.10582933298E+03  0.47000000000E+01 0.  1.
         13    1    6    6    0    0  0.19268186604E+02  0.36700884020E+01  0.48774688193E+02  0.52570930867E+02  0.00000000000E+00 0. -1.
        -14    1    6    6    0    0 -0.66903690736E+02 -0.29146912177E+02  0.67317017699E+02  0.99283569615E+02  0.00000000000E+00 0.  1.
</event>
<event>
12    1  0.8271773E-002  0.2697261E+03  0.7818608E-02  0.1101822E+00
         21   -1    0    0  501  502  0.00000000000E+00  0.00000000000E+00  0.35581222238E+03  0.35581222238E+03  0.00000000000E+00 0.  1.
         21   -1    0    0  502  503 -0.00000000000E+00 -0.00000000000E+00 -0.10788259183E+04  0.10788259183E+04  0.00000000000E+00 0.  1.
         -6    2    1    2    0  503 -0.14554436484E+03 -0.14838062773E+03 -0.10076889409E+04  0.10424747031E+04  0.16767985007E+03 0.  0.
        -24    2    3    3    0    0 -0.47581599136E+02 -0.13957651458E+03 -0.61358999243E+03  0.63626012055E+03  0.81170500750E+02 0.  0.
          6    2    1    2  501    0  0.14554436484E+03  0.14838062773E+03  0.28467524498E+03  0.39216343760E+03  0.17190751543E+03 0.  0.
         24    2    5    5    0    0  0.16634460451E+02  0.31221657663E+02  0.56315989301E+02  0.10491088779E+03  0.81137577879E+02 0.  0.
          5    1    5    5  501    0  0.12890990439E+03  0.11715897007E+03  0.22835925568E+03  0.28725254981E+03  0.47000000000E+01 0. -1.
        -11    1    6    6    0    0  0.24831707252E+02 -0.22205318593E+02  0.13451511398E+02  0.35925381247E+02  0.00000000000E+00 0.  1.
         12    1    6    6    0    0 -0.81972468012E+01  0.53426976256E+02  0.42864477903E+02  0.68985506542E+02  0.00000000000E+00 0. -1.
         -5    1    3    3    0  503 -0.97962765703E+02 -0.88041131520E+01 -0.39409894848E+03  0.40621458253E+03  0.47000000000E+01 0.  1.
         11    1    4    4    0    0 -0.45886523723E+02 -0.49562867941E+02 -0.15753954998E+03  0.17140817001E+03  0.00000000000E+00 0. -1.
        -12    1    4    4    0    0 -0.16950754129E+01 -0.90013646639E+02 -0.45605044245E+03  0.46485195054E+03  0.00000000000E+00 0.  1.
</event>
<event>
12    1  0.8271773E-002  0.1802916E+03  0.7818608E-02  0.1167580E+00
         21   -1    0    0  503  502  0.00000000000E+00  0.00000000000E+00  0.11003689483E+03  0.11003689483E+03  0.00000000000E+00 0.  1.
         21   -1    0    0  501  503 -0.00000000000E+00 -0.00000000000E+00 -0.43512807428E+03  0.43512807428E+03  0.00000000000E+00 0.  1.
          6    2    1    2  501    0 -0.50856623642E+02  0.12213284486E+02 -0.31730700803E+03  0.36495041486E+03  0.17253842319E+03 0.  0.
         24    2    3    3    0    0 -0.77286903821E+02 -0.32892361929E+02 -0.26394858238E+03  0.29010196373E+03  0.86227154916E+02 0.  0.
         -6    2    1    2    0  502  0.50856623642E+02 -0.12213284486E+02 -0.77841714125E+01  0.18021455424E+03  0.17228212836E+03 0.  0.
        -24    2    5    5    0    0 -0.30204661444E+02 -0.22725934893E+02 -0.32641682057E+02  0.94649178105E+02  0.80400235190E+02 0.  0.
          5    1    3    3  501    0  0.26430280179E+02  0.45105646415E+02 -0.53358425655E+02  0.74848451135E+02  0.47000000000E+01 0. -1.
        -13    1    4    4    0    0 -0.26253330289E+02  0.19014508542E+02 -0.15968545679E+03  0.16294242541E+03  0.00000000000E+00 0.  1.
         14    1    4    4    0    0 -0.51033573532E+02 -0.51906870471E+02 -0.10426312558E+03  0.12715953832E+03  0.00000000000E+00 0. -1.
         -5    1    5    5    0  502  0.81061285086E+02  0.10512650407E+02  0.24857510645E+02  0.85565376139E+02  0.47000000000E+01 0.  1.
         13    1    6    6    0    0 -0.50286935354E+02 -0.32106369792E+02 -0.59559998447E+01  0.59958892441E+02  0.00000000000E+00 0. -1.
        -14    1    6    6    0    0  0.20082273910E+02  0.93804348992E+01 -0.26685682213E+02  0.34690285664E+02  0.00000000000E+00 0.  1.
</event>
<event>
12    1  0.8271773E-002  0.1745673E+03  0.7818608E-02  0.1173189E+00
         21   -1    0    0  503  502  0.00000000000E+00  0.00000000000E+00  0.77764441141E+03  0.77764441141E+03  0.00000000000E+00 0. -1.
         21   -1    0    0  501  503 -0.00000000000E+00 -0.00000000000E+00 -0.33226757982E+03  0.33226757982E+03  0.00000000000E+00 0. -1.
          6    2    1    2  501    0  0.27541729777E+02 -0.18683732413E+02 -0.29853970616E+03  0.34578795554E+03  0.17127675062E+03 0.  0.
         24    2    3    3    0    0  0.59197517915E+02  0.33608132488E+02 -0.15886021805E+03  0.19324623188E+03  0.86450474607E+02 0.  0.
         -6    2    1    2    0  502 -0.27541729777E+02  0.18683732413E+02  0.74391653775E+03  0.76412403569E+03  0.17136539337E+03 0.  0.
        -24    2    5    5    0    0  0.49881285156E+02  0.20519193012E+02  0.44888279353E+03  0.45905897315E+03  0.79562545254E+02 0.  0.
          5    1    3    3  501    0 -0.31655788138E+02 -0.52291864901E+02 -0.13967948811E+03  0.15254172366E+03  0.47000000000E+01 0. -1.
        -13    1    4    4    0    0  0.35460625131E+02  0.27712461963E+01 -0.67071881739E+01  0.36195609034E+02  0.00000000000E+00 0.  1.
         14    1    4    4    0    0  0.23736892784E+02  0.30836886292E+02 -0.15215302988E+03  0.15705062285E+03  0.00000000000E+00 0. -1.
         -5    1    5    5    0  502 -0.77423014933E+02 -0.18354605991E+01  0.29503374422E+03  0.30506506254E+03  0.47000000000E+01 0.  1.
         13    1    6    6    0    0  0.50077445481E+01  0.43082591178E+02  0.26095856403E+03  0.26453838910E+03  0.00000000000E+00 0. -1.
        -14    1    6    6    0    0  0.44873540608E+02 -0.22563398166E+02  0.18792422950E+03  0.19452058405E+03  0.00000000000E+00 0.  1.
</event>
<event>
12    1  0.8271773E-002  0.2015445E+03  0.7818608E-02  0.1149032E+00
         21   -1    0    0  503  502  0.00000000000E+00  0.00000000000E+00  0.65381628215E+02  0.65381628215E+02  0.00000000000E+00 0.  1.
         21   -1    0    0  501  503 -0.00000000000E+00 -0.00000000000E+00 -0.85877397042E+03  0.85877397042E+03  0.00000000000E+00 0.  1.
          6    2    1    2  501    0  0.50672255271E+02 -0.86535422164E+02 -0.64207192577E+03  0.67212771205E+03  0.17159034561E+03 0.  0.
         24    2    3    3    0    0  0.77468799645E+02 -0.13119402506E+02 -0.26408283458E+03  0.28611500528E+03  0.77126643165E+02 0.  0.
         -6    2    1    2    0  502 -0.50672255271E+02  0.86535422164E+02 -0.15132041643E+03  0.25202788658E+03  0.17482600047E+03 0.  0.
        -24    2    5    5    0    0  0.81041812422E+01  0.56734834535E+01 -0.92679027632E+01  0.78262731093E+02  0.77079795591E+02 0.  0.
          5    1    3    3  501    0 -0.26796544374E+02 -0.73416019658E+02 -0.37798909119E+03  0.38601270678E+03  0.47000000000E+01 0. -1.
        -11    1    4    4    0    0  0.97390723307E+01 -0.35522735354E+02 -0.66073852469E+02  0.75646997542E+02  0.00000000000E+00 0.  1.
         12    1    4    4    0    0  0.67729727314E+02  0.22403332848E+02 -0.19800898211E+03  0.21046800774E+03  0.00000000000E+00 0. -1.
         -5    1    5    5    0  502 -0.58776436514E+02  0.80861938711E+02 -0.14205251367E+03  0.17376515549E+03  0.47000000000E+01 0.  1.
         13    1    6    6    0    0  0.50499868235E+01 -0.24651740415E+02 -0.31660424751E+02  0.40442467381E+02  0.00000000000E+00 0. -1.
        -14    1    6    6    0    0  0.30541944187E+01  0.30325223869E+02  0.22392521988E+02  0.37820263712E+02  0.00000000000E+00 0.  1.
</event>
<event>
12    1  0.8271773E-002  0.1759217E+03  0.7818608E-02  0.1172128E+00
         21   -1    0    0  501  502  0.00000000000E+00  0.00000000000E+00  0.72858226750E+03  0.72858226750E+03  0.00000000000E+00 0.  1.
         21   -1    0    0  502  503 -0.00000000000E+00 -0.00000000000E+00 -0.68521107214E+02  0.68521107214E+02  0.00000000000E+00 0.  1.
         -6    2    1    2    0  503 -0.20568061539E+02 -0.19194551224E+02  0.82144562143E+02  0.19300401811E+03  0.17236979424E+03 0.  0.
        -24    2    3    3    0    0 -0.76381695865E+02 -0.92883404480E+01  0.24613495574E+02  0.11210155579E+03  0.77720640217E+02 0.  0.
          6    2    1    2  501    0  0.20568061539E+02  0.19194551224E+02  0.57791659814E+03  0.60409935660E+03  0.17365760071E+03 0.  0.
         24    2    5    5    0    0  0.28018291239E+02  0.54089952745E+02  0.13718920879E+03  0.16190492346E+03  0.60676005162E+02 0.  0.
          5    1    5    5  501    0 -0.74502296997E+01 -0.34895401521E+02  0.44072738935E+03  0.44219443314E+03  0.47000000000E+01 0. -1.
        -13    1    6    6    0    0  0.32094255153E+02  0.44571912765E+02  0.14064521394E+03  0.15098931361E+03  0.00000000000E+00 0.  1.
         14    1    6    6    0    0 -0.40759639140E+01  0.95180399796E+01 -0.34560051494E+01  0.10915609853E+02  0.00000000000E+00 0. -1.
         -5    1    3    3    0  503  0.55813634326E+02 -0.99062107763E+01  0.57531066569E+02  0.80902462318E+02  0.47000000000E+01 0.  1.
         11    1    4    4    0    0 -0.67525134256E+02  0.44512090116E+01  0.48429124488E+02  0.83215606209E+02  0.00000000000E+00 0. -1.
        -12    1    4    4    0    0 -0.88565616081E+01 -0.13739549460E+02 -0.23815628914E+02  0.28885949585E+02  0.00000000000E+00 0.  1.
</event>
<event>
12    1  0.8271773E-002  0.2007918E+03  0.7818608E-02  0.1149306E+00
         21   -1    0    0  501  502  0.00000000000E+00  0.00000000000E+00  0.77168028774E+03  0.77168028774E+03  0.00000000000E+00 0.  1.
         21   -1    0    0  502  503 -0.00000000000E+00 -0.00000000000E+00 -0.61306492701E+02  0.61306492701E+02  0.00000000000E+00 0.  1.
         -6    2    1    2    0  503  0.19248453230E+02 -0.10193795694E+03  0.51865761227E+03  0.55616821647E+03  0.17191717840E+03 0.  0.
        -24    2    3    3    0    0 -0.42753388553E+02 -0.72637952367E+02  0.42268801266E+03  0.43812173112E+03  0.78621694728E+02 0.  0.
          6    2    1    2  501    0 -0.19248453230E+02  0.10193795694E+03  0.19171618277E+03  0.27681856397E+03  0.17062113763E+03 0.  0.
         24    2    5    5    0    0  0.26595150388E+01  0.15016499554E+02  0.16380833566E+03  0.18281730463E+03  0.79727208402E+02 0.  0.
          5    1    5    5  501    0 -0.21907968269E+02  0.86921457390E+02  0.27907847107E+02  0.94001259346E+02  0.47000000000E+01 0. -1.
        -11    1    6    6    0    0 -0.29934187677E+02 -0.16872548231E+02  0.55150667010E+02  0.64979493284E+02  0.00000000000E+00 0.  1.
         12    1    6    6    0    0  0.32593702716E+02  0.31889047785E+02  0.10865766865E+03  0.11783781134E+03  0.00000000000E+00 0. -1.
         -5    1    3    3    0  503  0.62001841784E+02 -0.29300004577E+02  0.95969599612E+02  0.11804648535E+03  0.47000000000E+01 0.  1.
         13    1    4    4    0    0 -0.47343847929E+02 -0.31895497089E+02  0.12251662779E+03  0.13516318565E+03  0.00000000000E+00 0. -1.
        -14    1    4    4    0    0  0.45904593763E+01 -0.40742455278E+02  0.30017138487E+03  0.30295854547E+03  0.00000000000E+00 0.  1.
</event>
<event>
12    1  0.8271773E-002  0.3744301E+03  0.7818608E-02  0.1053097E+00
         21   -1    0    0  503  502  0.00000000000E+00  0.00000000000E+00  0.68617548565E+03  0.68617548565E+03  0.00000000000E+00 0.  1.
         21   -1    0    0  501  503 -0.00000000000E+00 -0.00000000000E+00 -0.31879993604E+03  0.31879993604E+03  0.00000000000E+00 0. -1.
          6    2    1    2  501    0 -0.55615235221E+02  0.32800884265E+03  0.48531224783E+03  0.61241078487E+03  0.16981206166E+03 0.  0.
         24    2    3    3    0    0 -0.19847728269E+02  0.32104833341E+03  0.46114618820E+03  0.56843520437E+03  0.83646936397E+02 0.  0.
         -6    2    1    2    0  502  0.55615235221E+02 -0.32800884265E+03 -0.11793669822E+03  0.39256463682E+03  0.17179951703E+03 0.  0.
        -24    2    5    5    0    0 -0.23420463160E+02 -0.25192474221E+03 -0.80355549017E+02  0.27650489043E+03  0.77352093310E+02 0.  0.
          5    1    3    3  501    0 -0.35767506952E+02  0.69605092412E+01  0.24166059625E+02  0.43975580499E+02  0.47000000000E+01 0. -1.
        -13    1    4    4    0    0 -0.44150349058E+02  0.96540068224E+02  0.13492790421E+03  0.17168219893E+03  0.00000000000E+00 0.  1.
         14    1    4    4    0    0  0.24302620789E+02  0.22450826519E+03  0.32621828399E+03  0.39675300544E+03  0.00000000000E+00 0. -1.
         -5    1    5    5    0  502  0.79035698381E+02 -0.76084100439E+02 -0.37581149198E+02  0.11605974639E+03  0.47000000000E+01 0.  1.
         13    1    6    6    0    0 -0.21035044952E+02 -0.98536236255E+02  0.51308069269E+01  0.10088700685E+03  0.00000000000E+00 0. -1.
        -14    1    6    6    0    0 -0.23854182082E+01 -0.15338850596E+03 -0.85486355944E+02  0.17561788358E+03  0.00000000000E+00 0.  1.
</event>
<event>
12    1  0.8271773E-002  0.2120085E+03  0.7818608E-02  0.1140690E+00
         21   -1    0    0  503  502  0.00000000000E+00  0.00000000000E+00  0.47653241832E+03  0.47653241832E+03  0.00000000000E+00 0.  1.
         21   -1    0    0  501  503 -0.00000000000E+00 -0.00000000000E+00 -0.10817935090E+03  0.10817935090E+03  0.00000000000E+00 0.  1.
          6    2    1    2  501    0  0.28149246496E+02  0.11485006228E+03  0.75075730803E+02  0.22490884024E+03  0.17596790667E+03 0.  0.
         24    2    3    3    0    0 -0.45067198220E+02  0.97771650863E+02  0.66186781830E+02  0.14905751640E+03  0.79038630045E+02 0.  0.
         -6    2    1    2    0  502 -0.28149246496E+02 -0.11485006228E+03  0.29327733662E+03  0.35980292898E+03  0.17164974409E+03 0.  0.
        -24    2    5    5    0    0  0.39537339463E+02 -0.10534350557E+03  0.17713833979E+03  0.22496152168E+03  0.81050844750E+02 0.  0.
          5    1    3    3  501    0  0.73216444716E+02  0.17078411413E+02  0.88889489727E+01  0.75851323832E+02  0.47000000000E+01 0. -1.
        -11    1    4    4    0    0  0.19409708471E+01  0.54820724558E+02 -0.31161451966E+01  0.54943512536E+02  0.00000000000E+00 0.  1.
         12    1    4    4    0    0 -0.47008169067E+02  0.42950926305E+02  0.69302927027E+02  0.94114003868E+02  0.00000000000E+00 0. -1.
         -5    1    5    5    0  502 -0.67686585960E+02 -0.95065567088E+01  0.11613899683E+03  0.13484140731E+03  0.47000000000E+01 0.  1.
         11    1    6    6    0    0 -0.15305267657E+02 -0.44956495750E+01  0.27592403023E+01  0.16188745789E+02  0.00000000000E+00 0. -1.
        -12    1    6    6    0    0  0.54842607121E+02 -0.10084785599E+03  0.17437909949E+03  0.20877277589E+03  0.00000000000E+00 0.  1.
</event>
<event>
12    1  0.8271773E-002  0.2589933E+03  0.7818608E-02  0.1108136E+00
         21   -1    0    0  503  502  0.00000000000E+00  0.00000000000E+00  0.24337590592E+03  0.24337590592E+03  0.00000000000E+00 0.  1.
         21   -1    0    0  501  503 -0.00000000000E+00 -0.00000000000E+00 -0.29895108394E+03  0.29895108394E+03  0.00000000000E+00 0. -1.
          6    2    1    2  501    0  0.63400298594E+02 -0.18075990159E+03  0.52370044630E+02  0.26173882441E+03  0.17050176172E+03 0.  0.
         24    2    3    3    0    0  0.42533856334E+02 -0.77901334715E+02 -0.36078822664E+02  0.12440497820E+03  0.79354711709E+02 0.  0.
         -6    2    1    2    0  502 -0.63400298594E+02  0.18075990159E+03 -0.10794522264E+03  0.28058816545E+03  0.17430951670E+03 0.  0.
        -24    2    5    5    0    0  0.32376410361E+02  0.60346198027E+02 -0.42855098708E+02  0.11346111133E+03  0.79667865133E+02 0.  0.
          5    1    3    3  501    0  0.20866442260E+02 -0.10285856687E+03  0.88448867294E+02  0.13733384622E+03  0.47000000000E+01 0. -1.
        -13    1    4    4    0    0  0.18867933755E+02 -0.23672897126E+02  0.25078534155E+02  0.39310785516E+02  0.00000000000E+00 0.  1.
         14    1    4    4    0    0  0.23665922579E+02 -0.54228437590E+02 -0.61157356819E+02  0.85094192681E+02  0.00000000000E+00 0. -1.
         -5    1    5    5    0  502 -0.95776708956E+02  0.12041370356E+03 -0.65090123935E+02  0.16712705411E+03  0.47000000000E+01 0.  1.
         13    1    6    6    0    0 -0.77754432045E+00  0.70084614434E+02 -0.33375542502E+02  0.77629791915E+02  0.00000000000E+00 0. -1.
        -14    1    6    6    0    0  0.33153954682E+02 -0.97384164072E+01 -0.94795562066E+01  0.35831319415E+02  0.00000000000E+00 0.  1.
</event>
<event>
12    1  0.8271773E-002  0.1753201E+03  0.7818608E-02  0.1172846E+00
         21   -1    0    0  503  502  0.00000000000E+00  0.00000000000E+00  0.23945385693E+03  0.23945385693E+03  0.00000000000E+00 0.  1.
         21   -1    0    0  501  503 -0.00000000000E+00 -0.00000000000E+00 -0.20726612157E+03  0.20726612157E+03  0.00000000000E+00 0.  1.
          6    2    1    2  501    0  0.18125185602E+02 -0.11291704771E+02 -0.12276754925E+03  0.21403043197E+03  0.17401473993E+03 0.  0.
         24    2    3    3    0    0  0.43004937822E+02  0.42827772325E+01 -0.15064693465E+03  0.17327608631E+03  0.73907620122E+02 0.  0.
         -6    2    1    2    0  502 -0.18125185602E+02  0.11291704771E+02  0.15495528462E+03  0.23268954653E+03  0.17227089099E+03 0.  0.
        -24    2    5    5    0    0 -0.27167859619E+02  0.26517760503E+02  0.24312971979E+02  0.10076871202E+03  0.90121742641E+02 0.  0.
          5    1    3    3  501    0 -0.24879752220E+02 -0.15574482003E+02  0.27879385395E+02  0.40754345660E+02  0.47000000000E+01 0. -1.
        -11    1    4    4    0    0  0.11497373457E+02  0.33839850169E+02 -0.10268137612E+03  0.10872345680E+03  0.00000000000E+00 0.  1.
         12    1    4    4    0    0  0.31507564365E+02 -0.29557072936E+02 -0.47965558522E+02  0.64552629514E+02  0.00000000000E+00 0. -1.
         -5    1    5    5    0  502  0.90426740170E+01 -0.15226055733E+02  0.13064231264E+03  0.13192083451E+03  0.47000000000E+01 0.  1.
         11    1    6    6    0    0 -0.27761234421E+02 -0.93634221046E+01 -0.25863245910E+02  0.39080267388E+02  0.00000000000E+00 0. -1.
        -12    1    6    6    0    0  0.59337480205E+00  0.35881182608E+02  0.50176217889E+02  0.61688444628E+02  0.00000000000E+00 0.  1.
</event>
<event>
12    1  0.8271773E-002  0.2068075E+03  0.7818608E-02  0.1144217E+00
         21   -1    0    0  501  502  0.00000000000E+00  0.00000000000E+00  0.18134172559E+03  0.18134172559E+03  0.00000000000E+00 0.  1.
         21   -1    0    0  502  503 -0.00000000000E+00 -0.00000000000E+00 -0.32370776098E+03  0.32370776098E+03  0.00000000000E+00 0.  1.
         -6    2    1    2    0  503 -0.11182974896E+03  0.26692160976E+02 -0.20309090644E+03  0.28951094039E+03  0.17132514151E+03 0.  0.
        -24    2    3    3    0    0 -0.13167858060E+03 -0.12169470502E+02 -0.12052118236E+03  0.19600130530E+03  0.80023819465E+02 0.  0.
          6    2    1    2  501    0  0.11182974896E+03 -0.26692160976E+02  0.60724871057E+02  0.21553854619E+03  0.17190401600E+03 0.  0.
         24    2    5    5    0    0  0.12668764506E+03  0.19884050233E+01  0.87270266329E+02  0.17346622806E+03  0.80129393659E+02 0.  0.
          5    1    5    5  501    0 -0.14857896096E+02 -0.28680565999E+02 -0.26545395272E+02  0.42072318127E+02  0.47000000000E+01 0. -1.
        -11    1    6    6    0    0  0.27976004926E+02  0.34635000313E+02  0.37437773887E+02  0.58170671406E+02  0.00000000000E+00 0.  1.
         12    1    6    6    0    0  0.98711640133E+02 -0.32646595289E+02  0.49832492442E+02  0.11529555666E+03  0.00000000000E+00 0. -1.
         -5    1    3    3    0  503  0.19848831637E+02  0.38861631478E+02 -0.82569724080E+02  0.93509635082E+02  0.47000000000E+01 0.  1.
         13    1    4    4    0    0 -0.24607938208E+02 -0.37200865851E+02 -0.35605896656E+02  0.57072190422E+02  0.00000000000E+00 0. -1.
        -14    1    4    4    0    0 -0.10707064239E+03  0.25031395349E+02 -0.84915285707E+02  0.13892911488E+03  0.00000000000E+00 0.  1.
</event>
<event>
12    1  0.8271773E-002  0.1917865E+03  0.7818608E-02  0.1157390E+00
         21   -1    0    0  503  502  0.00000000000E+00  0.00000000000E+00  0.18663582993E+03  0.18663582993E+03  0.00000000000E+00 0.  1.
         21   -1    0    0  501  503 -0.00000000000E+00 -0.00000000000E+00 -0.35176043116E+03  0.35176043116E+03  0.00000000000E+00 0.  1.
          6    2    1    2  501    0  0.27928107621E+02  0.72694039600E+02  0.97057456378E+02  0.21494700718E+03  0.17526455281E+03 0.  0.
         24    2    3    3    0    0  0.11608584120E+01  0.11089954034E+03  0.98132153179E+02  0.16804934317E+03  0.79439326597E+02 0.  0.
         -6    2    1    2    0  502 -0.27928107621E+02 -0.72694039600E+02 -0.26218205760E+03  0.32344925391E+03  0.17267190257E+03 0.  0.
        -24    2    5    5    0    0  0.33722589630E+01  0.25481654811E+02 -0.13383198309E+03  0.15878592603E+03  0.81494071837E+02 0.  0.
          5    1    3    3  501    0  0.26767249209E+02 -0.38205500743E+02 -0.10746968009E+01  0.46897664019E+02  0.47000000000E+01 0. -1.
        -13    1    4    4    0    0  0.39895799761E+02  0.46796720430E+02  0.45973118993E+02  0.76779786086E+02  0.00000000000E+00 0.  1.
         14    1    4    4    0    0 -0.38734941349E+02  0.64102819913E+02  0.52159034186E+02  0.91269557079E+02  0.00000000000E+00 0. -1.
         -5    1    5    5    0  502 -0.31300366584E+02 -0.98175694412E+02 -0.12835007451E+03  0.16466332788E+03  0.47000000000E+01 0.  1.
         13    1    6    6    0    0  0.42273166712E+02  0.10401498438E+02 -0.62959827689E+02  0.76545095834E+02  0.00000000000E+00 0. -1.
        -14    1    6    6    0    0 -0.38900907749E+02  0.15080156374E+02 -0.70872155403E+02  0.82240830197E+02  0.00000000000E+00 0.  1.
</event>
<event>
12    1  0.8271773E-002  0.1900232E+03  0.7818608E-02  0.1158729E+00
         21   -1    0    0  503  502  0.00000000000E+00  0.00000000000E+00  0.13478595141E+03  0.13478595141E+03  0.00000000000E+00 0. -1.
         21   -1    0    0  501  503 -0.00000000000E+00 -0.00000000000E+00 -0.62653013543E+03  0.62653013543E+03  0.00000000000E+00 0. -1.
          6    2    1    2  501    0 -0.77046053643E+02 -0.24305088267E+02 -0.53423689899E+03  0.56659971340E+03  0.17058528449E+03 0.  0.
         24    2    3    3    0    0 -0.47081930537E+02 -0.26310447260E+02 -0.12907697626E+03  0.16030114938E+03  0.78272887218E+02 0.  0.
         -6    2    1    2    0  502  0.77046053643E+02  0.24305088267E+02  0.42492714975E+02  0.19471637344E+03  0.17199419631E+03 0.  0.
        -24    2    5    5    0    0  0.70614938699E+02 -0.16862805766E+02 -0.29621323733E+02  0.11129767460E+03  0.78986870841E+02 0.  0.
          5    1    3    3  501    0 -0.29964123106E+02  0.20053589930E+01 -0.40515992273E+03  0.40629856402E+03  0.47000000000E+01 0. -1.
        -13    1    4    4    0    0  0.62625840419E+01  0.16772916235E+02 -0.61403812796E+02  0.63960760657E+02  0.00000000000E+00 0.  1.
         14    1    4    4    0    0 -0.53344514579E+02 -0.43083363495E+02 -0.67673163462E+02  0.96340388720E+02  0.00000000000E+00 0. -1.
         -5    1    5    5    0  502  0.64311149444E+01  0.41167894033E+02  0.72114038708E+02  0.83418698847E+02  0.47000000000E+01 0.  1.
         13    1    6    6    0    0  0.12629098862E+02  0.28853435123E+02  0.62661181975E+00  0.31502499882E+02  0.00000000000E+00 0. -1.
        -14    1    6    6    0    0  0.57985839836E+02 -0.45716240889E+02 -0.30247935553E+02  0.79795174714E+02  0.00000000000E+00 0.  1.
</event>
<event>
12    1  0.8271773E-002  0.1766025E+03  0.7818608E-02  0.1171706E+00
         21   -1    0    0  503  502  0.00000000000E+00  0.00000000000E+00  0.23173164317E+03  0.23173164317E+03  0.00000000000E+00 0. -1.
         21   -1    0    0  501  503 -0.00000000000E+00 -0.00000000000E+00 -0.16391651919E+03  0.16391651919E+03  0.00000000000E+00 0. -1.
          6    2    1    2  501    0  0.31744668411E+02  0.84458936535E+01 -0.52040614387E+02  0.18411047294E+03  0.17352055673E+03 0.  0.
         24    2    3    3    0    0  0.22731047459E+02 -0.19156224274E+02  0.33116653855E+02  0.94016229995E+02  0.82817131639E+02 0.  0.
         -6    2    1    2    0  502 -0.31744668411E+02 -0.84458936535E+01  0.11985573837E+03  0.21153768942E+03  0.17118334887E+03 0.  0.
        -24    2    5    5    0    0  0.40801163435E+02 -0.80354702620E+01  0.10602854676E+03  0.13753534220E+03  0.77101322342E+02 0.  0.
          5    1    3    3  501    0  0.90136209523E+01  0.27602117927E+02 -0.85157268242E+02  0.90094242942E+02  0.47000000000E+01 0. -1.
        -11    1    4    4    0    0  0.48922730683E+02  0.73222064085E+01  0.10916877094E+02  0.50657936097E+02  0.00000000000E+00 0.  1.
         12    1    4    4    0    0 -0.26191683224E+02 -0.26478430682E+02  0.22199776761E+02  0.43358293898E+02  0.00000000000E+00 0. -1.
         -5    1    5    5    0  502 -0.72545831846E+02 -0.41042339154E+00  0.13827191612E+02  0.74002347216E+02  0.47000000000E+01 0.  1.
         11    1    6    6    0    0  0.39269242743E+02 -0.34623912334E+02  0.95477125467E+02  0.10888879749E+03  0.00000000000E+00 0. -1.
        -12    1    6    6    0    0  0.15319206924E+01  0.26588442072E+02  0.10551421291E+02  0.28646544714E+02  0.00000000000E+00 0.  1.
</event>
<event>
12    1  0.8271773E-002  0.2046838E+03  0.7818608E-02  0.1146137E+00
         21   -1    0    0  503  502  0.00000000000E+00  0.00000000000E+00  0.12455784418E+04  0.12455784418E+04  0.00000000000E+00 0. -1.
         21   -1    0    0  501  503 -0.00000000000E+00 -0.00000000000E+00 -0.34436466819E+02  0.34436466819E+02  0.00000000000E+00 0. -1.
          6    2    1    2  501    0 -0.99172088733E+02  0.44481873679E+02  0.49265745006E+03  0.53294363822E+03  0.17176675508E+03 0.  0.
         24    2    3    3    0    0 -0.75528937312E+02  0.81786600114E+02  0.45332608945E+03  0.47361668692E+03  0.80090913467E+02 0.  0.
         -6    2    1    2    0  502  0.99172088733E+02 -0.44481873679E+02  0.71848452491E+03  0.74707127039E+03  0.17344085515E+03 0.  0.
        -24    2    5    5    0    0  0.77148328747E+02 -0.54213000173E+02  0.24013022706E+03  0.26808832173E+03  0.72923989794E+02 0.  0.
          5    1    3    3  501    0 -0.23643151421E+02 -0.37304726435E+02  0.39331360610E+02  0.59326951303E+02  0.47000000000E+01 0. -1.
        -11    1    4    4    0    0 -0.14347099616E+02  0.65657197478E+02  0.30574228627E+03  0.31304161459E+03  0.00000000000E+00 0.  1.
         12    1    4    4    0    0 -0.61181837696E+02  0.16129402636E+02  0.14758380318E+03  0.16057507233E+03  0.00000000000E+00 0. -1.
         -5    1    5    5    0  502  0.22023759986E+02  0.97311264939E+01  0.47835429786E+03  0.47898294866E+03  0.47000000000E+01 0.  1.
         11    1    6    6    0    0  0.51947074550E+02  0.59199548722E+00  0.15704683809E+03  0.16541631832E+03  0.00000000000E+00 0. -1.
        -12    1    6    6    0    0  0.25201254197E+02 -0.54804995660E+02  0.83083388964E+02  0.10267200341E+03  0.00000000000E+00 0.  1.
</event>
<event>
12    1  0.8271773E-002  0.1933524E+03  0.7818608E-02  0.1156085E+00
         21   -1    0    0  501  502  0.00000000000E+00  0.00000000000E+00  0.20129999163E+03  0.20129999163E+03  0.00000000000E+00 0.  1.
         21   -1    0    0  502  503 -0.00000000000E+00 -0.00000000000E+00 -0.23772534143E+03  0.23772534143E+03  0.00000000000E+00 0.  1.
         -6    2    1    2    0  503 -0.57823100889E+02  0.65115714315E+02 -0.12335724264E+03  0.22702935473E+03  0.16953392389E+03 0.  0.
        -24    2    3    3    0    0  0.96721346360E+01  0.46611284827E+02 -0.10791474941E+02  0.94397673793E+02  0.80797913491E+02 0.  0.
          6    2    1    2  501    0  0.57823100889E+02 -0.65115714315E+02  0.86931892843E+02  0.21199597834E+03  0.17263132274E+03 0.  0.
         24    2    5    5    0    0  0.80485146454E+02 -0.96151588691E+02  0.88270022399E+02  0.17325743941E+03  0.80644631869E+02 0.  0.
          5    1    5    5  501    0 -0.22662045565E+02  0.31035874376E+02 -0.13381295565E+01  0.38738538927E+02  0.47000000000E+01 0. -1.
        -13    1    6    6    0    0  0.84897620846E+01 -0.56163136654E+02  0.64482250866E+01  0.57166017754E+02  0.00000000000E+00 0.  1.
         14    1    6    6    0    0  0.71995384370E+02 -0.39988452037E+02  0.81821797313E+02  0.11609142166E+03  0.00000000000E+00 0. -1.
         -5    1    3    3    0  503 -0.67495235525E+02  0.18504429488E+02 -0.11256576770E+03  0.13263168093E+03  0.47000000000E+01 0.  1.
         13    1    4    4    0    0  0.77160001946E+00 -0.16809453802E+02  0.17595052862E+02  0.24346231514E+02  0.00000000000E+00 0. -1.
        -14    1    4    4    0    0  0.89005346165E+01  0.63420738629E+02 -0.28386527803E+02  0.70051442279E+02  0.00000000000E+00 0.  1.
</event>
<event>
12    1  0.8271773E-002  0.1852625E+03  0.7818608E-02  0.1162952E+00
         21   -1    0    0  503  502  0.00000000000E+00  0.00000000000E+00  0.53516138898E+03  0.53516138898E+03  0.00000000000E+00 0.  1.
         21   -1    0    0  501  503 -0.00000000000E+00 -0.00000000000E+00 -0.40277968410E+03  0.40277968410E+03  0.00000000000E+00 0.  1.
          6    2    1    2  501    0 -0.65996435693E+02 -0.22776491145E+02 -0.36394518239E+03  0.40838496942E+03  0.17160387346E+03 0.  0.
         24    2    3    3    0    0 -0.58193586624E+02 -0.74720617752E+01 -0.91442776294E+02  0.13530117030E+03  0.80636840939E+02 0.  0.
         -6    2    1    2    0  502  0.65996435693E+02  0.22776491145E+02  0.49632688727E+03  0.52955610365E+03  0.17092392991E+03 0.  0.
        -24    2    5    5    0    0 -0.36081032525E+01  0.30628298072E+02  0.11986401530E+03  0.14660333021E+03  0.78575080108E+02 0.  0.
          5    1    3    3  501    0 -0.78028490686E+01 -0.15304429370E+02 -0.27250240610E+03  0.27308379912E+03  0.47000000000E+01 0. -1.
        -11    1    4    4    0    0 -0.45698531363E+02 -0.25191589310E+02 -0.99351668782E+02  0.11222177164E+03  0.00000000000E+00 0.  1.
         12    1    4    4    0    0 -0.12495055261E+02  0.17719527535E+02  0.79088924876E+01  0.23079398658E+02  0.00000000000E+00 0. -1.
         -5    1    5    5    0  502  0.69604538945E+02 -0.78518069265E+01  0.37646287197E+03  0.38295277344E+03  0.47000000000E+01 0.  1.
         11    1    6    6    0    0  0.25288411002E+02 -0.51872134307E+01  0.10348546678E+02  0.27811927882E+02  0.00000000000E+00 0. -1.
        -12    1    6    6    0    0 -0.28896514255E+02  0.35815511502E+02  0.10951546862E+03  0.11879140233E+03  0.00000000000E+00 0.  1.
</event>
<event>
12    1  0.8271773E-002  0.1850574E+03  0.7818608E-02  0.1166985E+00
         21   -1    0    0  501  502  0.00000000000E+00  0.00000000000E+00  0.10211864531E+03  0.10211864531E+03  0.00000000000E+00 0. -1.
         21   -1    0    0  502  503 -0.00000000000E+00 -0.00000000000E+00 -0.30894400559E+03  0.30894400559E+03  0.00000000000E+00 0. -1.
         -6    2    1    2    0  503 -0.37331382787E+02 -0.53104791464E+02 -0.89938564085E+02  0.20575516846E+03  0.17329885464E+03 0.  0.
        -24    2    3    3    0    0 -0.52042522745E+02 -0.32148425231E+02  0.14780089367E+02  0.97849314559E+02  0.74927244041E+02 0.  0.
          6    2    1    2  501    0  0.37331382787E+02  0.53104791464E+02 -0.11688679619E+03  0.20530748244E+03  0.15580400574E+03 0.  0.
         24    2    5    5    0    0  0.21044231801E+02  0.92249667526E+02 -0.62711403240E+02  0.13635347015E+03  0.75542622904E+02 0.  0.
          5    1    5    5  501    0  0.16287150986E+02 -0.39144876062E+02 -0.54175392952E+02  0.68954012288E+02  0.47000000000E+01 0. -1.
        -13    1    6    6    0    0  0.43760745048E+02  0.52664797551E+02 -0.14550159391E+02  0.70002077444E+02  0.00000000000E+00 0.  1.
         14    1    6    6    0    0 -0.22716513247E+02  0.39584869975E+02 -0.48161243849E+02  0.66351392707E+02  0.00000000000E+00 0. -1.
         -5    1    3    3    0  503  0.14711139958E+02 -0.20956366234E+02 -0.10471865345E+03  0.10790585390E+03  0.47000000000E+01 0.  1.
         11    1    4    4    0    0  0.97992233728E+01  0.10775514941E+02  0.17191831245E+02  0.22532100712E+02  0.00000000000E+00 0. -1.
        -12    1    4    4    0    0 -0.61841746118E+02 -0.42923940172E+02 -0.24117418783E+01  0.75317213847E+02  0.00000000000E+00 0.  1.
</event>
<event>
12    1  0.8271773E-002  0.1847600E+03  0.7818608E-02  0.1163962E+00
         21   -1    0    0  503  502  0.00000000000E+00  0.00000000000E+00  0.79343623626E+03  0.79343623626E+03  0.00000000000E+00 0. -1.
         21   -1    0    0  501  503 -0.00000000000E+00 -0.00000000000E+00 -0.54199391978E+02  0.54199391978E+02  0.00000000000E+00 0. -1.
          6    2    1    2  501    0 -0.60356567951E+02  0.61812978269E+01  0.16913011895E+03  0.24833776766E+03  0.17142206968E+03 0.  0.
         24    2    3    3    0    0  0.19206200958E+02 -0.26754387123E+02  0.12325220345E+03  0.15065528883E+03  0.80132608915E+02 0.  0.
         -6    2    1    2    0  502  0.60356567951E+02 -0.61812978269E+01  0.57010672533E+03  0.59929786058E+03  0.17451396416E+03 0.  0.
        -24    2    5    5    0    0  0.38479883867E+02  0.59190616162E+02  0.42958721316E+03  0.44270954765E+03  0.80388676841E+02 0.  0.
          5    1    3    3  501    0 -0.79562768909E+02  0.32935684950E+02  0.45877915498E+02  0.97682478828E+02  0.47000000000E+01 0. -1.
        -13    1    4    4    0    0 -0.48379882835E+01  0.25553131125E+02  0.58449560421E+02  0.63974367948E+02  0.00000000000E+00 0.  1.
         14    1    4    4    0    0  0.24044189241E+02 -0.52307518247E+02  0.64802643032E+02  0.86680920885E+02  0.00000000000E+00 0. -1.
         -5    1    5    5    0  502  0.21876684084E+02 -0.65371913988E+02  0.14051951217E+03  0.15658831293E+03  0.47000000000E+01 0.  1.
         13    1    6    6    0    0  0.50246896211E+02  0.40616166408E+01  0.21659406591E+03  0.22238308545E+03  0.00000000000E+00 0. -1.
        -14    1    6    6    0    0 -0.11767012343E+02  0.55128999521E+02  0.21299314725E+03  0.22032646220E+03  0.00000000000E+00 0.  1.
</event>
<event>
12    1  0.8271773E-002  0.3103348E+03  0.7818608E-02  0.1080240E+00
         21   -1    0    0  501  502  0.00000000000E+00  0.00000000000E+00  0.64533748885E+03  0.64533748885E+03  0.00000000000E+00 0.  1.
         21   -1    0    0  502  503 -0.00000000000E+00 -0.00000000000E+00 -0.32824034895E+03  0.32824034895E+03  0.00000000000E+00 0. -1.
         -6    2    1    2    0  503  0.15380249186E+03 -0.20726760726E+03 -0.20120480411E+03  0.36947139674E+03  0.17149540020E+03 0.  0.
        -24    2    3    3    0    0  0.18387854352E+02 -0.10274230478E+03 -0.12587879058E+03  0.18249877515E+03  0.81032330793E+02 0.  0.
          6    2    1    2  501    0 -0.15380249186E+03  0.20726760726E+03  0.51830194402E+03  0.60410644106E+03  0.17231546487E+03 0.  0.
         24    2    5    5    0    0 -0.12379264753E+03  0.70637120354E+02  0.22032350006E+03  0.27489264461E+03  0.81910310862E+02 0.  0.
          5    1    5    5  501    0 -0.30009844324E+02  0.13663048691E+03  0.29797844396E+03  0.32921379645E+03  0.47000000000E+01 0. -1.
        -11    1    6    6    0    0 -0.13160812382E+02  0.49955660850E+02  0.75373129668E+02  0.91377698097E+02  0.00000000000E+00 0.  1.
         12    1    6    6    0    0 -0.11063183515E+03  0.20681459504E+02  0.14495037039E+03  0.18351494651E+03  0.00000000000E+00 0. -1.
         -5    1    3    3    0  503  0.13541463751E+03 -0.10452530248E+03 -0.75326013535E+02  0.18697262159E+03  0.47000000000E+01 0.  1.
         13    1    4    4    0    0  0.46792351677E+02 -0.89032665820E+02 -0.97088631763E+02  0.13979464287E+03  0.00000000000E+00 0. -1.
        -14    1    4    4    0    0 -0.28404497325E+02 -0.13709638961E+02 -0.28790158816E+02  0.42704132275E+02  0.00000000000E+00 0.  1.
</event>
<event>
12    1  0.8271773E-002  0.3341891E+03  0.7818608E-02  0.1069331E+00
         21   -1    0    0  501  502  0.00000000000E+00  0.00000000000E+00  0.70203780996E+03  0.70203780996E+03  0.00000000000E+00 0. -1.
         21   -1    0    0  502  503 -0.00000000000E+00 -0.00000000000E+00 -0.15970719824E+03  0.15970719824E+03  0.00000000000E+00 0. -1.
         -6    2    1    2    0  503  0.26334238342E+03  0.10940019597E+03  0.30092977879E+03  0.44948693304E+03  0.17367255809E+03 0.  0.
        -24    2    3    3    0    0  0.17443909421E+03  0.39151859645E+01  0.20400481996E+03  0.28082330385E+03  0.82458687543E+02 0.  0.
          6    2    1    2  501    0 -0.26334238342E+03 -0.10940019597E+03  0.24140083294E+03  0.41225807516E+03  0.17425482665E+03 0.  0.
         24    2    5    5    0    0 -0.23486442693E+03 -0.48397372178E+02  0.13670472834E+03  0.28769603105E+03  0.81100054610E+02 0.  0.
          5    1    5    5  501    0 -0.28477956483E+02 -0.61002823787E+02  0.10469610460E+03  0.12456204411E+03  0.47000000000E+01 0. -1.
        -13    1    6    6    0    0 -0.38812787669E+00  0.34905078087E+01  0.20701431962E+02  0.20997227752E+02  0.00000000000E+00 0.  1.
         14    1    6    6    0    0 -0.23447629906E+03 -0.51887879987E+02  0.11600329638E+03  0.26669880330E+03  0.00000000000E+00 0. -1.
         -5    1    3    3    0  503  0.88903289202E+02  0.10548501000E+03  0.96924958831E+02  0.16866362919E+03  0.47000000000E+01 0.  1.
         11    1    4    4    0    0  0.86416229973E+02 -0.17867366393E+02  0.15342596518E+03  0.17699303483E+03  0.00000000000E+00 0. -1.
        -12    1    4    4    0    0  0.88022864241E+02  0.21782552357E+02  0.50578854772E+02  0.10383026903E+03  0.00000000000E+00 0.  1.
</event>
<event>
12    1  0.8271773E-002  0.2068810E+03  0.7818608E-02  0.1144095E+00
         21   -1    0    0  503  502  0.00000000000E+00  0.00000000000E+00  0.38785942017E+02  0.38785942017E+02  0.00000000000E+00 0.  1.
         21   -1    0    0  501  503 -0.00000000000E+00 -0.00000000000E+00 -0.13787317917E+04  0.13787317917E+04  0.00000000000E+00 0.  1.
          6    2    1    2  501    0  0.35394189290E+02  0.11085447107E+03 -0.98740482860E+03  0.10088449039E+04  0.17105052518E+03 0.  0.
         24    2    3    3    0    0  0.46486119039E+02  0.44912928515E+02 -0.26330118924E+03  0.28164514558E+03  0.76278052971E+02 0.  0.
         -6    2    1    2    0  502 -0.35394189290E+02 -0.11085447107E+03 -0.35254102104E+03  0.40867282979E+03  0.17084158714E+03 0.  0.
        -24    2    5    5    0    0  0.15703687100E+02 -0.61749027541E+01 -0.20802172597E+03  0.22299374738E+03  0.78539402109E+02 0.  0.
          5    1    3    3  501    0 -0.11091929749E+02  0.65941542558E+02 -0.72410363936E+03  0.72719975830E+03  0.47000000000E+01 0. -1.
        -11    1    4    4    0    0  0.11905091590E+02  0.24053512664E+02 -0.22293715423E+03  0.22454682677E+03  0.00000000000E+00 0.  1.
         12    1    4    4    0    0  0.34581027449E+02  0.20859415852E+02 -0.40364035015E+02  0.57098318817E+02  0.00000000000E+00 0. -1.
         -5    1    5    5    0  502 -0.51097876390E+02 -0.10467956832E+03 -0.14451929507E+03  0.18567908241E+03  0.47000000000E+01 0.  1.
         11    1    6    6    0    0  0.47841422133E+02 -0.19637191776E+01 -0.12068934436E+03  0.12984057804E+03  0.00000000000E+00 0. -1.
        -12    1    6    6    0    0 -0.32137735033E+02 -0.42111835765E+01 -0.87332381609E+02  0.93153169338E+02  0.00000000000E+00 0.  1.
</event>
<event>
12    1  0.8271773E-002  0.1832428E+03  0.7818608E-02  0.1164876E+00
         21   -1    0    0  501  502  0.00000000000E+00  0.00000000000E+00  0.24335977968E+03  0.24335977968E+03  0.00000000000E+00 0. -1.
         21   -1    0    0  502  503 -0.00000000000E+00 -0.00000000000E+00 -0.13070143008E+04  0.13070143008E+04  0.00000000000E+00 0. -1.
         -6    2    1    2    0  503  0.31022738055E+02  0.51502650342E+02 -0.12652430161E+04  0.12784435076E+04  0.17309817752E+03 0.  0.
        -24    2    3    3    0    0  0.29501289282E+02  0.97268682064E+02 -0.74359470790E+03  0.75476813878E+03  0.80064543399E+02 0.  0.
          6    2    1    2  501    0 -0.31022738055E+02 -0.51502650342E+02  0.20158849499E+03  0.27193057287E+03  0.17231767721E+03 0.  0.
         24    2    5    5    0    0 -0.34924809021E+02  0.25894130246E+02  0.15726416157E+03  0.18253133162E+03  0.81825559822E+02 0.  0.
          5    1    5    5  501    0  0.39020709660E+01 -0.77396780588E+02  0.44324333421E+02  0.89399241252E+02  0.47000000000E+01 0. -1.
        -13    1    6    6    0    0 -0.51320280170E+00  0.17510157479E+02 -0.35408769788E+01  0.17871955736E+02  0.00000000000E+00 0.  1.
         14    1    6    6    0    0 -0.34411606220E+02  0.83839727676E+01  0.16080503855E+03  0.16465937588E+03  0.00000000000E+00 0. -1.
         -5    1    3    3    0  503  0.15214487735E+01 -0.45766031723E+02 -0.52164830821E+03  0.52367536884E+03  0.47000000000E+01 0.  1.
         13    1    4    4    0    0  0.42123888461E+00  0.68456639712E+02 -0.63558433942E+03  0.63926046451E+03  0.00000000000E+00 0. -1.
        -14    1    4    4    0    0  0.29080050397E+02  0.28812042352E+02 -0.10801036848E+03  0.11550767427E+03  0.00000000000E+00 0.  1.
</event>
<event>
12    1  0.8271773E-002  0.1772526E+03  0.7818608E-02  0.1170920E+00
         21   -1    0    0  503  502  0.00000000000E+00  0.00000000000E+00  0.13594509495E+04  0.13594509495E+04  0.00000000000E+00 0.  1.
         21   -1    0    0  501  503 -0.00000000000E+00 -0.00000000000E+00 -0.27227087677E+02  0.27227087677E+02  0.00000000000E+00 0.  1.
          6    2    1    2  501    0  0.42478545383E+02  0.17263112753E+02  0.94022368778E+03  0.95646575811E+03  0.16942172679E+03 0.  0.
         24    2    3    3    0    0  0.63809699843E+02  0.10876978043E+02  0.32478623240E+03  0.34060769626E+03  0.79608539437E+02 0.  0.
         -6    2    1    2    0  502 -0.42478545383E+02 -0.17263112753E+02  0.39200017403E+03  0.43021227905E+03  0.17121923585E+03 0.  0.
        -24    2    5    5    0    0 -0.20712152941E+02  0.46687632639E+02  0.30789529426E+03  0.32223452913E+03  0.80167644436E+02 0.  0.
          5    1    3    3  501    0 -0.21331154459E+02  0.63861347100E+01  0.61543745537E+03  0.61585806185E+03  0.47000000000E+01 0. -1.
        -11    1    4    4    0    0  0.33161543014E+02 -0.33809233880E+02  0.12733972858E+03  0.13586080636E+03  0.00000000000E+00 0.  1.
         12    1    4    4    0    0  0.30648156829E+02  0.44686211922E+02  0.19744650382E+03  0.20474688990E+03  0.00000000000E+00 0. -1.
         -5    1    5    5    0  502 -0.21766392443E+02 -0.63950745392E+02  0.84104879766E+02  0.10797774991E+03  0.47000000000E+01 0.  1.
         11    1    6    6    0    0  0.76091142236E+01  0.34376567301E+02  0.43138555812E+02  0.55682869863E+02  0.00000000000E+00 0. -1.
        -12    1    6    6    0    0 -0.28321267164E+02  0.12311065339E+02  0.26475673845E+03  0.26655165927E+03  0.00000000000E+00 0.  1.
</event>
<event>
12    1  0.8271773E-002  0.2360815E+03  0.7818608E-02  0.1122431E+00
         21   -1    0    0  501  502  0.00000000000E+00  0.00000000000E+00  0.19557800371E+04  0.19557800371E+04  0.00000000000E+00 0.  1.
         21   -1    0    0  502  503 -0.00000000000E+00 -0.00000000000E+00 -0.61020296533E+02  0.61020296533E+02  0.00000000000E+00 0.  1.
         -6    2    1    2    0  503 -0.16149910063E+03 -0.81962212713E+01  0.21118531251E+03  0.31675405987E+03  0.17200221126E+03 0.  0.
        -24    2    3    3    0    0 -0.14932954256E+03  0.43225585957E+02  0.19334859038E+03  0.26078496966E+03  0.80357696819E+02 0.  0.
          6    2    1    2  501    0  0.16149910063E+03  0.81962212713E+01  0.16835744281E+04  0.17000462738E+04  0.17200389696E+03 0.  0.
         24    2    5    5    0    0  0.11093399717E+03  0.53428274230E+02  0.75582248954E+03  0.76980516645E+03  0.78558426581E+02 0.  0.
          5    1    5    5  501    0  0.50565103464E+02 -0.45232052959E+02  0.92775193852E+03  0.93024110731E+03  0.47000000000E+01 0. -1.
        -11    1    6    6    0    0  0.83470075474E+02  0.53715736075E+02  0.70573799438E+03  0.71268418708E+03  0.00000000000E+00 0.  1.
         12    1    6    6    0    0  0.27463921692E+02 -0.28746184483E+00  0.50084495162E+02  0.57120979374E+02  0.00000000000E+00 0. -1.
         -5    1    3    3    0  503 -0.12169558069E+02 -0.51421807228E+02  0.17836722126E+02  0.55969090205E+02  0.47000000000E+01 0.  1.
         11    1    4    4    0    0 -0.86123969528E+02 -0.32251654087E+01  0.14489016523E+03  0.16858499280E+03  0.00000000000E+00 0. -1.
        -12    1    4    4    0    0 -0.63205573034E+02  0.46450751366E+02  0.48458425155E+02  0.92199976863E+02  0.00000000000E+00 0.  1.
</event>
<event>
12    1  0.8271773E-002  0.1904118E+03  0.7818608E-02  0.1158952E+00
         21   -1    0    0  503  502  0.00000000000E+00  0.00000000000E+00  0.20963281808E+03  0.20963281808E+03  0.00000000000E+00 0. -1.
         21   -1    0    0  501  503 -0.00000000000E+00 -0.00000000000E+00 -0.24611294261E+03  0.24611294261E+03  0.00000000000E+00 0. -1.
          6    2    1    2  501    0 -0.78913669733E+02  0.11466511505E+02 -0.14547927727E+03  0.23962653044E+03  0.17290981990E+03 0.  0.
         24    2    3    3    0    0 -0.26978293796E+01 -0.49657470508E+02 -0.56025592016E+02  0.10707824753E+03  0.76509747560E+02 0.  0.
         -6    2    1    2    0  502  0.78913669733E+02 -0.11466511505E+02  0.10899915273E+03  0.21611923025E+03  0.16872420760E+03 0.  0.
        -24    2    5    5    0    0  0.69149765808E+02  0.48055126487E+02  0.35056436441E+02  0.12057984308E+03  0.78864184062E+02 0.  0.
          5    1    3    3  501    0 -0.76215840354E+02  0.61123982012E+02 -0.89453685252E+02  0.13254828291E+03  0.47000000000E+01 0. -1.
        -11    1    4    4    0    0 -0.33403709025E+02 -0.38920181069E+02 -0.12589248966E+02  0.52811717077E+02  0.00000000000E+00 0.  1.
         12    1    4    4    0    0  0.30705879646E+02 -0.10737289438E+02 -0.43436343050E+02  0.54266530448E+02  0.00000000000E+00 0. -1.
         -5    1    5    5    0  502  0.97639039249E+01 -0.59521637992E+02  0.73942716292E+02  0.95539387174E+02  0.47000000000E+01 0.  1.
         11    1    6    6    0    0  0.84183114880E+02  0.25803395023E+02  0.31388323111E+02  0.93476408003E+02  0.00000000000E+00 0. -1.
        -12    1    6    6    0    0 -0.15033349071E+02  0.22251731465E+02  0.36681133303E+01  0.27103435075E+02  0.00000000000E+00 0.  1.
</event>
<event>
12    1  0.8271773E-002  0.1965715E+03  0.7818608E-02  0.1154164E+00
         21   -1    0    0  503  502  0.00000000000E+00  0.00000000000E+00  0.13060307845E+04  0.13060307845E+04  0.00000000000E+00 0. -1.
         21   -1    0    0  501  503 -0.00000000000E+00 -0.00000000000E+00 -0.37902812666E+02  0.37902812666E+02  0.00000000000E+00 0.  1.
          6    2    1    2  501    0  0.48636976878E+01 -0.79160106125E+02  0.30907255154E+03  0.36628701524E+03  0.17986205120E+03 0.  0.
         24    2    3    3    0    0 -0.39946539009E+02 -0.87386859103E+02  0.11033259127E+03  0.16233776032E+03  0.70342580311E+02 0.  0.
         -6    2    1    2    0  502 -0.48636976878E+01  0.79160106125E+02  0.95905542031E+03  0.97764658194E+03  0.17238202342E+03 0.  0.
        -24    2    5    5    0    0  0.46239560269E+02  0.29774212848E+02  0.76337570616E+03  0.76940837709E+03  0.78880804396E+02 0.  0.
          5    1    3    3  501    0  0.44810236697E+02  0.82267529781E+01  0.19873996027E+03  0.20394925492E+03  0.47000000000E+01 0. -1.
        -11    1    4    4    0    0 -0.54877417392E+02 -0.43618620280E+02  0.82910664712E+02  0.10857390708E+03  0.00000000000E+00 0.  1.
         12    1    4    4    0    0  0.14930878383E+02 -0.43768238822E+02  0.27421926562E+02  0.53763853241E+02  0.00000000000E+00 0. -1.
         -5    1    5    5    0  502 -0.51103257957E+02  0.49385893277E+02  0.19567971415E+03  0.20823820485E+03  0.47000000000E+01 0.  1.
         11    1    6    6    0    0  0.29495707266E+02 -0.23711470048E+02  0.39274541963E+03  0.39456456404E+03  0.00000000000E+00 0. -1.
        -12    1    6    6    0    0  0.16743853003E+02  0.53485682897E+02  0.37063028653E+03  0.37484381305E+03  0.00000000000E+00 0.  1.
</event>
<event>
12    1  0.8271773E-002  0.2003095E+03  0.7818608E-02  0.1149562E+00
         21   -1    0    0  501  502  0.00000000000E+00  0.00000000000E+00  0.13982274849E+03  0.13982274849E+03  0.00000000000E+00 0. -1.
         21   -1    0    0  502  503 -0.00000000000E+00 -0.00000000000E+00 -0.50051762320E+03  0.50051762320E+03  0.00000000000E+00 0.  1.
         -6    2    1    2    0  503  0.75364300290E+02  0.70369418930E+02 -0.38965827808E+03  0.43794776524E+03  0.17126890704E+03 0.  0.
        -24    2    3    3    0    0  0.13900685225E+02  0.10252016003E+03 -0.25331332666E+03  0.28490044606E+03  0.79353704619E+02 0.  0.
          6    2    1    2  501    0 -0.75364300290E+02 -0.70369418930E+02  0.28963403367E+02  0.20239260646E+03  0.17173309388E+03 0.  0.
         24    2    5    5    0    0 -0.16825256357E+02 -0.20533816695E+02 -0.44880694089E+02  0.95689993349E+02  0.80234476665E+02 0.  0.
          5    1    5    5  501    0 -0.58539043933E+02 -0.49835602235E+02  0.73844097456E+02  0.10670261311E+03  0.47000000000E+01 0. -1.
        -11    1    6    6    0    0 -0.11775932916E+02  0.27913650639E+02 -0.12901206135E+01  0.30323405139E+02  0.00000000000E+00 0.  1.
         12    1    6    6    0    0 -0.50493234415E+01 -0.48447467334E+02 -0.43590573475E+02  0.65366588210E+02  0.00000000000E+00 0. -1.
         -5    1    3    3    0  503  0.61463615065E+02 -0.32150741101E+02 -0.13634495142E+03  0.15304731918E+03  0.47000000000E+01 0.  1.
         11    1    4    4    0    0 -0.77264547287E+01 -0.11652715593E+02 -0.22595949864E+02  0.26571805238E+02  0.00000000000E+00 0. -1.
        -12    1    4    4    0    0  0.21627139954E+02  0.11417287562E+03 -0.23071737680E+03  0.25832864082E+03  0.00000000000E+00 0.  1.
</event>
<event>
12    1  0.8271773E-002  0.2635697E+03  0.7818608E-02  0.1106086E+00
         21   -1    0    0  501  502  0.00000000000E+00  0.00000000000E+00  0.78753441532E+03  0.78753441532E+03  0.00000000000E+00 0.  1.
         21   -1    0    0  502  503 -0.00000000000E+00 -0.00000000000E+00 -0.10042128851E+03  0.10042128851E+03  0.00000000000E+00 0.  1.
         -6    2    1    2    0  503  0.98572989375E+02 -0.17366585257E+03  0.17034830363E+03  0.30785669296E+03  0.16087490877E+03 0.  0.
        -24    2    3    3    0    0  0.12223734410E+03 -0.16264183570E+03  0.11988635700E+03  0.25084767008E+03  0.84601891097E+02 0.  0.
          6    2    1    2  501    0 -0.98572989375E+02  0.17366585257E+03  0.51676482319E+03  0.58009901087E+03  0.17202475793E+03 0.  0.
         24    2    5    5    0    0 -0.26319953384E+02  0.14525075393E+02  0.21569533821E+03  0.23194500334E+03  0.79814083273E+02 0.  0.
          5    1    5    5  501    0 -0.72253035991E+02  0.15914077717E+03  0.30106948498E+03  0.34815400753E+03  0.47000000000E+01 0. -1.
        -13    1    6    6    0    0 -0.54396486067E+02  0.12931085114E+02  0.12374238449E+03  0.13578795373E+03  0.00000000000E+00 0.  1.
         14    1    6    6    0    0  0.28076532683E+02  0.15939902789E+01  0.91952953722E+02  0.96157049616E+02  0.00000000000E+00 0. -1.
         -5    1    3    3    0  503 -0.23664354726E+02 -0.11024016865E+02  0.50461946630E+02  0.57009022884E+02  0.47000000000E+01 0.  1.
         11    1    4    4    0    0  0.64118283840E+02 -0.43322722028E+02  0.82170716860E+02  0.11287178246E+03  0.00000000000E+00 0. -1.
        -12    1    4    4    0    0  0.58119060261E+02 -0.11931911367E+03  0.37715640137E+02  0.13797588762E+03  0.00000000000E+00 0.  1.
</event>
<event>
12    1  0.8271773E-002  0.1778303E+03  0.7818608E-02  0.1170492E+00
         21   -1    0    0  501  502  0.00000000000E+00  0.00000000000E+00  0.69940156483E+03  0.69940156483E+03  0.00000000000E+00 0. -1.
         21   -1    0    0  502  503 -0.00000000000E+00 -0.00000000000E+00 -0.44919089822E+02  0.44919089822E+02  0.00000000000E+00 0. -1.
         -6    2    1    2    0  503 -0.39913178981E+02 -0.17019386545E+02  0.29524366749E+03  0.34347639501E+03  0.17007201228E+03 0.  0.
        -24    2    3    3    0    0 -0.30296147962E+02  0.54310259065E+02  0.19176673490E+03  0.21734166067E+03  0.81212413016E+02 0.  0.
          6    2    1    2  501    0  0.39913178981E+02  0.17019386545E+02  0.35923880751E+03  0.40084425964E+03  0.17245543855E+03 0.  0.
         24    2    5    5    0    0  0.22317735263E+02  0.26823327871E+02  0.70196746276E+02  0.11106310071E+03  0.78675643794E+02 0.  0.
          5    1    5    5  501    0  0.17595443718E+02 -0.98039413261E+01  0.28904206124E+03  0.28978115893E+03  0.47000000000E+01 0. -1.
        -11    1    6    6    0    0 -0.18935094453E+02  0.16605713535E+02  0.63145635417E+02  0.67982783086E+02  0.00000000000E+00 0.  1.
         12    1    6    6    0    0  0.41252829716E+02  0.10217614336E+02  0.70511108594E+01  0.43080317625E+02  0.00000000000E+00 0. -1.
         -5    1    3    3    0  503 -0.96170310195E+01 -0.71329645610E+02  0.10347693260E+03  0.12613473434E+03  0.47000000000E+01 0.  1.
         13    1    4    4    0    0  0.21803379323E+01  0.49896227427E+02  0.45879977300E+02  0.67818579328E+02  0.00000000000E+00 0. -1.
        -14    1    4    4    0    0 -0.32476485894E+02  0.44140316374E+01  0.14588675760E+03  0.14952308134E+03  0.00000000000E+00 0.  1.
</event>
<event>
12    1  0.8271773E-002  0.2131869E+03  0.7818608E-02  0.1139084E+00
         21   -1    0    0  501  502  0.00000000000E+00  0.00000000000E+00  0.58260496686E+02  0.58260496686E+02  0.00000000000E+00 0.  1.
         21   -1    0    0  502  503 -0.00000000000E+00 -0.00000000000E+00 -0.11436522550E+04  0.11436522550E+04  0.00000000000E+00 0. -1.
         -6    2    1    2    0  503 -0.10940839588E+03  0.63762459510E+02 -0.88175232860E+03  0.90715811429E+03  0.17150168224E+03 0.  0.
        -24    2    3    3    0    0 -0.81032252259E+02  0.10982907255E+03 -0.62099420500E+03  0.64080453841E+03  0.79799766406E+02 0.  0.
          6    2    1    2  501    0  0.10940839588E+03 -0.63762459510E+02 -0.20363942968E+03  0.29475463735E+03  0.17139262116E+03 0.  0.
         24    2    5    5    0    0  0.43127595293E+01 -0.21967563790E+02 -0.32194749894E+02  0.89310546869E+02  0.80241498663E+02 0.  0.
          5    1    5    5  501    0  0.10509563635E+03 -0.41794895720E+02 -0.17144467979E+03  0.20544409049E+03  0.47000000000E+01 0. -1.
        -13    1    6    6    0    0 -0.19705805460E+02 -0.45489974130E+02 -0.21456112753E+02  0.54018712403E+02  0.00000000000E+00 0.  1.
         14    1    6    6    0    0  0.24018564989E+02  0.23522410340E+02 -0.10738637142E+02  0.35291834466E+02  0.00000000000E+00 0. -1.
         -5    1    3    3    0  503 -0.28376143624E+02 -0.46066613045E+02 -0.26075812360E+03  0.26635357589E+03  0.47000000000E+01 0.  1.
         11    1    4    4    0    0 -0.80002493718E+02  0.45124739577E+02 -0.31933258120E+03  0.33227990992E+03  0.00000000000E+00 0. -1.
        -12    1    4    4    0    0 -0.10297585405E+01  0.64704332978E+02 -0.30166162380E+03  0.30852462849E+03  0.00000000000E+00 0.  1.
</event>
<event>
12    1  0.8271773E-002  0.1877403E+03  0.7818608E-02  0.1162345E+00
         21   -1    0    0  503  502  0.00000000000E+00  0.00000000000E+00  0.20494743833E+03  0.20494743833E+03  0.00000000000E+00 0. -1.
         21   -1    0    0  501  503 -0.00000000000E+00 -0.00000000000E+00 -0.21248252696E+03  0.21248252696E+03  0.00000000000E+00 0. -1.
          6    2    1    2  501    0 -0.28148823197E+02  0.44591886062E+02 -0.10258011277E+03  0.21393713986E+03  0.18018220702E+03 0.  0.
         24    2    3    3    0    0 -0.26288379483E+02  0.65366306385E+02 -0.13718830442E+03  0.17325723426E+03  0.78953185175E+02 0.  0.
         -6    2    1    2    0  502  0.28148823197E+02 -0.44591886062E+02  0.95045024140E+02  0.20349282543E+03  0.17203191808E+03 0.  0.
        -24    2    5    5    0    0  0.24467075512E+02 -0.39020879480E+02 -0.14542103002E+02  0.93601880332E+02  0.80178378771E+02 0.  0.
          5    1    3    3  501    0 -0.18604437143E+01 -0.20774420323E+02  0.34608191648E+02  0.40679905601E+02  0.47000000000E+01 0. -1.
        -13    1    4    4    0    0 -0.27310453234E+02  0.24618727727E+02 -0.77818848530E+01  0.37583245504E+02  0.00000000000E+00 0.  1.
         14    1    4    4    0    0  0.10220737512E+01  0.40747578658E+02 -0.12940641956E+03  0.13567398876E+03  0.00000000000E+00 0. -1.
         -5    1    5    5    0  502  0.36817476858E+01 -0.55710065818E+01  0.10958712714E+03  0.10989094510E+03  0.47000000000E+01 0.  1.
         13    1    6    6    0    0  0.39661470767E+02 -0.37107240537E+02  0.18341506845E+02  0.57327048040E+02  0.00000000000E+00 0. -1.
        -14    1    6    6    0    0 -0.15194395256E+02 -0.19136389436E+01 -0.32883609847E+02  0.36274832291E+02  0.00000000000E+00 0.  1.
</event>
<event>
12    1  0.8271773E-002  0.1864362E+03  0.7818608E-02  0.1161860E+00
         21   -1    0    0  501  502  0.00000000000E+00  0.00000000000E+00  0.52354704414E+03  0.52354704414E+03  0.00000000000E+00 0.  1.
         21   -1    0    0  502  503 -0.00000000000E+00 -0.00000000000E+00 -0.66435751367E+02  0.66435751367E+02  0.00000000000E+00 0.  1.
         -6    2    1    2    0  503 -0.40414865376E+01  0.72359236814E+02  0.20944029108E+03  0.27998380984E+03  0.17109501885E+03 0.  0.
        -24    2    3    3    0    0 -0.48204750689E+02  0.41601593778E+02  0.20054573262E+03  0.22523319636E+03  0.80355530480E+02 0.  0.
          6    2    1    2  501    0  0.40414865376E+01 -0.72359236814E+02  0.24767100169E+03  0.30999898567E+03  0.17177384339E+03 0.  0.
         24    2    5    5    0    0 -0.35621407444E+02 -0.10286430711E+03  0.19590928982E+03  0.23785281953E+03  0.79646491295E+02 0.  0.
          5    1    5    5  501    0  0.39662893981E+02  0.30505070297E+02  0.51761711877E+02  0.72146166144E+02  0.47000000000E+01 0. -1.
        -11    1    6    6    0    0  0.72031806832E+01 -0.83600668664E+02  0.15169061516E+03  0.17335224354E+03  0.00000000000E+00 0.  1.
         12    1    6    6    0    0 -0.42824588127E+02 -0.19263638448E+02  0.44218674659E+02  0.64500575990E+02  0.00000000000E+00 0. -1.
         -5    1    3    3    0  503  0.44163264152E+02  0.30757643036E+02  0.88945584663E+01  0.54750613476E+02  0.47000000000E+01 0.  1.
         13    1    4    4    0    0 -0.43724109174E+02 -0.12008549450E+02  0.12087853168E+03  0.12910314638E+03  0.00000000000E+00 0. -1.
        -14    1    4    4    0    0 -0.44806415149E+01  0.53610143228E+02  0.79667200938E+02  0.96130049987E+02  0.00000000000E+00 0.  1.
</event>
<event>
12    1  0.8271773E-002  0.2081960E+03  0.7818608E-02  0.1144548E+00
         21   -1    0    0  501  502  0.00000000000E+00  0.00000000000E+00  0.26549414387E+03  0.26549414387E+03  0.00000000000E+00 0.  1.
         21   -1    0    0  502  503 -0.00000000000E+00 -0.00000000000E+00 -0.21088491957E+03  0.21088491957E+03  0.00000000000E+00 0. -1.
         -6    2    1    2    0  503  0.84415659629E+02  0.48865362938E+02 -0.93029467989E+02  0.22114825319E+03  0.17532324629E+03 0.  0.
        -24    2    3    3    0    0 -0.70853395464E+01  0.55788232516E+02 -0.86341170339E+02  0.12902234859E+03  0.77649467586E+02 0.  0.
          6    2    1    2  501    0 -0.84415659629E+02 -0.48865362938E+02  0.14763869229E+03  0.25523081025E+03  0.18393410710E+03 0.  0.
         24    2    5    5    0    0 -0.59275208733E+01  0.39547321699E+02  0.55352154757E+02  0.10517720070E+03  0.79995352071E+02 0.  0.
          5    1    5    5  501    0 -0.78488138756E+02 -0.88412684637E+02  0.92286537531E+02  0.15005360955E+03  0.47000000000E+01 0. -1.
        -13    1    6    6    0    0 -0.30791283320E+02  0.52826486619E+02  0.40184007008E+02  0.73167583234E+02  0.00000000000E+00 0.  1.
         14    1    6    6    0    0  0.24863762447E+02 -0.13279164921E+02  0.15168147750E+02  0.32009617464E+02  0.00000000000E+00 0. -1.
         -5    1    3    3    0  503  0.91500999176E+02 -0.69228695777E+01 -0.66882976507E+01  0.92125904603E+02  0.47000000000E+01 0.  1.
         13    1    4    4    0    0  0.25904095926E+02  0.11744364622E+02 -0.22563541156E+01  0.28531446160E+02  0.00000000000E+00 0. -1.
        -14    1    4    4    0    0 -0.32989435472E+02  0.44043867895E+02 -0.84084816223E+02  0.10049090243E+03  0.00000000000E+00 0.  1.
</event>
<event>
12    1  0.8271773E-002  0.2315222E+03  0.7818608E-02  0.1125608E+00
         21   -1    0    0  501  502  0.00000000000E+00  0.00000000000E+00  0.24221748101E+03  0.24221748101E+03  0.00000000000E+00 0.  1.
         21   -1    0    0  502  503 -0.00000000000E+00 -0.00000000000E+00 -0.25476484159E+03  0.25476484159E+03  0.00000000000E+00 0.  1.
         -6    2    1    2    0  503 -0.15459951292E+03  0.15743675502E+02  0.84051884634E+02  0.24611593505E+03  0.17134602844E+03 0.  0.
        -24    2    3    3    0    0 -0.14685763846E+02 -0.18512072784E+02  0.10952634720E+02  0.84514871290E+02  0.80401708710E+02 0.  0.
          6    2    1    2  501    0  0.15459951292E+03 -0.15743675502E+02 -0.96599245213E+02  0.25086638756E+03  0.17162067916E+03 0.  0.
         24    2    5    5    0    0  0.95128286430E+02  0.57399401846E+02 -0.65615305083E+02  0.15152439699E+03  0.79436719533E+02 0.  0.
          5    1    5    5  501    0  0.59471226488E+02 -0.73143077348E+02 -0.30983940130E+02  0.99341990567E+02  0.47000000000E+01 0. -1.
        -11    1    6    6    0    0  0.62942221833E+02  0.28658818551E+02 -0.80269037260E+02  0.10595361963E+03  0.00000000000E+00 0.  1.
         12    1    6    6    0    0  0.32186064598E+02  0.28740583295E+02  0.14653732176E+02  0.45570777359E+02  0.00000000000E+00 0. -1.
         -5    1    3    3    0  503 -0.13991374907E+03  0.34255748286E+02  0.73099249914E+02  0.16160106376E+03  0.47000000000E+01 0.  1.
         11    1    4    4    0    0  0.27139891438E+02  0.93169090909E+01 -0.95678485018E+01  0.30247681353E+02  0.00000000000E+00 0. -1.
        -12    1    4    4    0    0 -0.41825655284E+02 -0.27828981874E+02  0.20520483222E+02  0.54267189938E+02  0.00000000000E+00 0.  1.
</event>
<event>
12    1  0.8271773E-002  0.3728729E+03  0.7818608E-02  0.1053609E+00
         21   -1    0    0  501  502  0.00000000000E+00  0.00000000000E+00  0.64144196612E+03  0.64144196612E+03  0.00000000000E+00 0. -1.
         21   -1    0    0  502  503 -0.00000000000E+00 -0.00000000000E+00 -0.30119527477E+03  0.30119527477E+03  0.00000000000E+00 0.  1.
         -6    2    1    2    0  503  0.29636971392E+03 -0.14540793298E+03 -0.79530277742E+02  0.38116869157E+03  0.17316475407E+03 0.  0.
        -24    2    3    3    0    0  0.25888027955E+03 -0.58470807569E+02 -0.70385565942E+02  0.28593614872E+03  0.79796734100E+02 0.  0.
          6    2    1    2  501    0 -0.29636971392E+03  0.14540793298E+03  0.41977696909E+03  0.56146854932E+03  0.17336595339E+03 0.  0.
         24    2    5    5    0    0 -0.87813591805E+02  0.10569222402E+03  0.15267384978E+03  0.22023672203E+03  0.79453358644E+02 0.  0.
          5    1    5    5  501    0 -0.20855612211E+03  0.39715708957E+02  0.26710311931E+03  0.34123182728E+03  0.47000000000E+01 0. -1.
        -13    1    6    6    0    0 -0.96236991066E+02  0.86077732720E+02  0.15121690159E+03  0.19884035266E+03  0.00000000000E+00 0.  1.
         14    1    6    6    0    0  0.84233992611E+01  0.19614491304E+02  0.14569481899E+01  0.21396369371E+02  0.00000000000E+00 0. -1.
         -5    1    3    3    0  503  0.37489434370E+02 -0.86937125412E+02 -0.91447118004E+01  0.95232542853E+02  0.47000000000E+01 0.  1.
         13    1    4    4    0    0  0.25874811766E+02  0.16435330899E+01  0.15765638276E+02  0.30344067545E+02  0.00000000000E+00 0. -1.
        -14    1    4    4    0    0  0.23300546778E+03 -0.60114340659E+02 -0.86151204218E+02  0.25559208117E+03  0.00000000000E+00 0.  1.
</event>
<event>
12    1  0.8271773E-002  0.2425603E+03  0.7818608E-02  0.1118101E+00
         21   -1    0    0  503  502  0.00000000000E+00  0.00000000000E+00  0.18032150720E+03  0.18032150720E+03  0.00000000000E+00 0.  1.
         21   -1    0    0  501  503 -0.00000000000E+00 -0.00000000000E+00 -0.52903702743E+03  0.52903702743E+03  0.00000000000E+00 0.  1.
          6    2    1    2  501    0  0.87991048556E+02  0.14798204512E+03 -0.39394056193E+03  0.46262797457E+03  0.17086358951E+03 0.  0.
         24    2    3    3    0    0  0.11125506299E+03  0.87884646342E+02 -0.34610183300E+03  0.38223179498E+03  0.78824274069E+02 0.  0.
         -6    2    1    2    0  502 -0.87991048556E+02 -0.14798204512E+03  0.45225041704E+02  0.24673056006E+03  0.17084950854E+03 0.  0.
        -24    2    5    5    0    0 -0.14624546672E+02 -0.13140113461E+03  0.65951401963E+02  0.16856891856E+03  0.81152679215E+02 0.  0.
          5    1    3    3  501    0 -0.23264014439E+02  0.60097398777E+02 -0.47838728933E+02  0.80396179595E+02  0.47000000000E+01 0. -1.
        -11    1    4    4    0    0  0.86576890252E+01  0.68367604629E+01 -0.12409759043E+03  0.12458695286E+03  0.00000000000E+00 0.  1.
         12    1    4    4    0    0  0.10259737397E+03  0.81047885879E+02 -0.22200424257E+03  0.25764484212E+03  0.00000000000E+00 0. -1.
         -5    1    5    5    0  502 -0.73366501884E+02 -0.16580910511E+02 -0.20726360259E+02  0.78161641498E+02  0.47000000000E+01 0.  1.
         13    1    6    6    0    0  0.50689918479E+01  0.49611626431E+01  0.23278030593E+02  0.24334636250E+02  0.00000000000E+00 0. -1.
        -14    1    6    6    0    0 -0.19693538519E+02 -0.13636229725E+03  0.42673371370E+02  0.14423428232E+03  0.00000000000E+00 0.  1.
</event>
<event>
12    1  0.8271773E-002  0.2231264E+03  0.7818608E-02  0.1132729E+00
         21   -1    0    0  503  502  0.00000000000E+00  0.00000000000E+00  0.21151092412E+03  0.21151092412E+03  0.00000000000E+00 0. -1.
         21   -1    0    0  501  503 -0.00000000000E+00 -0.00000000000E+00 -0.44185898128E+03  0.44185898128E+03  0.00000000000E+00 0. -1.
          6    2    1    2  501    0 -0.13479995248E+03 -0.35721896350E+02 -0.34113448061E+03  0.40425344268E+03  0.16613558014E+03 0.  0.
         24    2    3    3    0    0 -0.89960643525E+02 -0.74215468376E+02 -0.18885206190E+03  0.24083880514E+03  0.93473930305E+02 0.  0.
         -6    2    1    2    0  502  0.13479995248E+03  0.35721896350E+02  0.11078642346E+03  0.24911646272E+03  0.17417892900E+03 0.  0.
        -24    2    5    5    0    0  0.13791138691E+03  0.82008707710E+01  0.13667934872E+03  0.21091147022E+03  0.81948758265E+02 0.  0.
          5    1    3    3  501    0 -0.44839308955E+02  0.38493572026E+02 -0.15228241871E+03  0.16341463754E+03  0.47000000000E+01 0. -1.
        -11    1    4    4    0    0 -0.23779382129E+02  0.17951622276E+02 -0.72192661122E+02  0.78099296262E+02  0.00000000000E+00 0.  1.
         12    1    4    4    0    0 -0.66181261396E+02 -0.92167090652E+02 -0.11665940078E+03  0.16273950888E+03  0.00000000000E+00 0. -1.
         -5    1    5    5    0  502 -0.31114344331E+01  0.27521025579E+02 -0.25892925263E+02  0.38204992499E+02  0.47000000000E+01 0.  1.
         11    1    6    6    0    0  0.42888592634E+02  0.40057156510E+02  0.35969232242E+02  0.68831626698E+02  0.00000000000E+00 0. -1.
        -12    1    6    6    0    0  0.95022794279E+02 -0.31856285739E+02  0.10071011648E+03  0.14207984352E+03  0.00000000000E+00 0.  1.
</event>
<event>
12    1  0.8271773E-002  0.1788831E+03  0.7818608E-02  0.1168895E+00
         21   -1    0    0  501  502  0.00000000000E+00  0.00000000000E+00  0.14257924280E+03  0.14257924280E+03  0.00000000000E+00 0.  1.
         21   -1    0    0  502  503 -0.00000000000E+00 -0.00000000000E+00 -0.26344760458E+03  0.26344760458E+03  0.00000000000E+00 0.  1.
         -6    2    1    2    0  503  0.74586953092E+01  0.49427912056E+02 -0.13859092299E+03  0.22626801860E+03  0.17172950149E+03 0.  0.
        -24    2    3    3    0    0  0.14711332629E+02  0.17341381516E+02  0.55906636985E+00  0.83205250110E+02  0.80035331386E+02 0.  0.
          6    2    1    2  501    0 -0.74586953092E+01 -0.49427912056E+02  0.17722561212E+02  0.17975882878E+03  0.17175679527E+03 0.  0.
         24    2    5    5    0    0 -0.44234603738E+02 -0.18634577513E+02 -0.43079175101E+02  0.10217250246E+03  0.79243026723E+02 0.  0.
          5    1    5    5  501    0  0.36775908428E+02 -0.30793334543E+02  0.60801736314E+02  0.77586326320E+02  0.47000000000E+01 0. -1.
        -13    1    6    6    0    0  0.53359634139E-01 -0.88458839999E+01  0.21504553960E+02  0.23252921365E+02  0.00000000000E+00 0.  1.
         14    1    6    6    0    0 -0.44287963372E+02 -0.97886935135E+01 -0.64583729062E+02  0.78919581093E+02  0.00000000000E+00 0. -1.
         -5    1    3    3    0  503 -0.72526373197E+01  0.32086530540E+02 -0.13914998936E+03  0.14306276849E+03  0.47000000000E+01 0.  1.
         13    1    4    4    0    0  0.12157926710E+02 -0.20160630875E+02  0.28061530061E+02  0.36629437458E+02  0.00000000000E+00 0. -1.
        -14    1    4    4    0    0  0.25534059193E+01  0.37502012391E+02 -0.27502463691E+02  0.46575812652E+02  0.00000000000E+00 0.  1.
</event>
<event>
12    1  0.8271773E-002  0.2341197E+03  0.7818608E-02  0.1124005E+00
         21   -1    0    0  503  502  0.00000000000E+00  0.00000000000E+00  0.42249277602E+03  0.42249277602E+03  0.00000000000E+00 0.  1.
         21   -1    0    0  501  503 -0.00000000000E+00 -0.00000000000E+00 -0.22182620602E+03  0.22182620602E+03  0.00000000000E+00 0. -1.
          6    2    1    2  501    0 -0.78714199263E+02 -0.13804763697E+03 -0.10824320473E+03  0.25671444807E+03  0.17009597656E+03 0.  0.
         24    2    3    3    0    0 -0.25997949856E+02 -0.11331682604E+03 -0.11924234935E+02  0.14406432644E+03  0.84236252962E+02 0.  0.
         -6    2    1    2    0  502  0.78714199263E+02  0.13804763697E+03  0.30890977473E+03  0.38760453396E+03  0.17192716650E+03 0.  0.
        -24    2    5    5    0    0  0.21033068539E+02  0.58595027732E+02  0.25678523481E+03  0.27634408448E+03  0.80942133424E+02 0.  0.
          5    1    3    3  501    0 -0.52716249407E+02 -0.24730810922E+02 -0.96318969798E+02  0.11265012163E+03  0.47000000000E+01 0. -1.
        -11    1    4    4    0    0 -0.25019039771E+02 -0.63270315966E+02  0.34065310642E+02  0.76088965183E+02  0.00000000000E+00 0.  1.
         12    1    4    4    0    0 -0.97891008482E+00 -0.50046510077E+02 -0.45989545577E+02  0.67975361259E+02  0.00000000000E+00 0. -1.
         -5    1    5    5    0  502  0.57681130725E+02  0.79452609234E+02  0.52124539922E+02  0.11126044948E+03  0.47000000000E+01 0.  1.
         11    1    6    6    0    0 -0.26342219192E+02  0.43038863359E+02  0.10337053571E+03  0.11502923073E+03  0.00000000000E+00 0. -1.
        -12    1    6    6    0    0  0.47375287731E+02  0.15556164373E+02  0.15341469911E+03  0.16131485375E+03  0.00000000000E+00 0.  1.
</event>
<event>
12    1  0.8271773E-002  0.1747586E+03  0.7818608E-02  0.1173353E+00
         21   -1    0    0  501  502  0.00000000000E+00  0.00000000000E+00  0.49732707120E+03  0.49732707120E+03  0.00000000000E+00 0.  1.
         21   -1    0    0  502  503 -0.00000000000E+00 -0.00000000000E+00 -0.12359374516E+03  0.12359374516E+03  0.00000000000E+00 0.  1.
         -6    2    1    2    0  503  0.10150274310E+02 -0.23766277293E+02  0.40840788991E+03  0.44422695610E+03  0.17283726445E+03 0.  0.
        -24    2    3    3    0    0 -0.71500704230E+01 -0.11841767800E+02  0.41408881116E+03  0.42195907068E+03  0.79928485741E+02 0.  0.
          6    2    1    2  501    0 -0.10150274310E+02  0.23766277293E+02 -0.34674563870E+02  0.17669386027E+03  0.17131996635E+03 0.  0.
         24    2    5    5    0    0  0.62033863918E+02  0.13181405743E+02 -0.68248496529E+01  0.98461604133E+02  0.75007727506E+02 0.  0.
          5    1    5    5  501    0 -0.72184138229E+02  0.10584871550E+02 -0.27849714218E+02  0.78232256132E+02  0.47000000000E+01 0. -1.
        -11    1    6    6    0    0  0.29199925980E+02  0.40487238283E+02 -0.19992407667E+02  0.53773120658E+02  0.00000000000E+00 0.  1.
         12    1    6    6    0    0  0.32833937938E+02 -0.27305832539E+02  0.13167558014E+02  0.44688483474E+02  0.00000000000E+00 0. -1.
         -5    1    3    3    0  503  0.17300344733E+02 -0.11924509494E+02 -0.56809212529E+01  0.22267885415E+02  0.47000000000E+01 0.  1.
         13    1    4    4    0    0 -0.24823366770E+02  0.16561022656E+02  0.68027235464E+02  0.74284397918E+02  0.00000000000E+00 0. -1.
        -14    1    4    4    0    0  0.17673296347E+02 -0.28402790456E+02  0.34606157570E+03  0.34767467277E+03  0.00000000000E+00 0.  1.
</event>
<event>
12    1  0.8271773E-002  0.2863887E+03  0.7818608E-02  0.1092460E+00
         21   -1    0    0  503  502  0.00000000000E+00  0.00000000000E+00  0.21455667542E+04  0.21455667542E+04  0.00000000000E+00 0. -1.
         21   -1    0    0  501  503 -0.00000000000E+00 -0.00000000000E+00 -0.46825132756E+02  0.46825132756E+02  0.00000000000E+00 0.  1.
          6    2    1    2  501    0  0.21331437984E+03  0.78248872938E+02  0.57628400729E+03  0.64352291303E+03  0.17433465455E+03 0.  0.
         24    2    3    3    0    0  0.14975590727E+03  0.70783511680E+02  0.24933585725E+03  0.31033738833E+03  0.81876660890E+02 0.  0.
         -6    2    1    2    0  502 -0.21331437984E+03 -0.78248872938E+02  0.15224576141E+04  0.15488689739E+04  0.17173235201E+03 0.  0.
        -24    2    5    5    0    0 -0.19211329638E+03 -0.80466650202E+01  0.97369489766E+03  0.99520802627E+03  0.73382520898E+02 0.  0.
          5    1    3    3  501    0  0.63558472569E+02  0.74653612576E+01  0.32694815003E+03  0.33318552469E+03  0.47000000000E+01 0. -1.
        -11    1    4    4    0    0  0.12174888205E+03  0.86627530655E+02  0.18028948685E+03  0.23416109501E+03  0.00000000000E+00 0.  1.
         12    1    4    4    0    0  0.28007025224E+02 -0.15844018974E+02  0.69046370402E+02  0.76176293326E+02  0.00000000000E+00 0. -1.
         -5    1    5    5    0  502 -0.21201083466E+02 -0.70202207918E+02  0.54876271647E+03  0.55366094762E+03  0.47000000000E+01 0.  1.
         11    1    6    6    0    0 -0.98483826874E+02 -0.34872373724E+02  0.60007493267E+03  0.60910185636E+03  0.00000000000E+00 0. -1.
        -12    1    6    6    0    0 -0.93629469502E+02  0.26825708704E+02  0.37361996499E+03  0.38610616992E+03  0.00000000000E+00 0.  1.
</event>
<event>
12    1  0.8271773E-002  0.1805170E+03  0.7818608E-02  0.1167456E+00
         21   -1    0    0  501  502  0.00000000000E+00  0.00000000000E+00  0.57018022466E+02  0.57018022466E+02  0.00000000000E+00 0.  1.
         21   -1    0    0  502  503 -0.00000000000E+00 -0.00000000000E+00 -0.67458916296E+03  0.67458916296E+03  0.00000000000E+00 0.  1.
         -6    2    1    2    0  503 -0.48820236413E+02  0.26261153205E+02 -0.45269699172E+03  0.48712844288E+03  0.17113295969E+03 0.  0.
        -24    2    3    3    0    0  0.18005483664E+02 -0.33349809515E+02 -0.19943949346E+03  0.21846397897E+03  0.80709301312E+02 0.  0.
          6    2    1    2  501    0  0.48820236413E+02 -0.26261153205E+02 -0.16487414877E+03  0.24447874255E+03  0.17179437411E+03 0.  0.
         24    2    5    5    0    0 -0.31086305646E+02 -0.50252379955E+02 -0.64086057565E+02  0.11355523911E+03  0.72774373683E+02 0.  0.
          5    1    5    5  501    0  0.79906542059E+02  0.23991226750E+02 -0.10078809120E+03  0.13092350344E+03  0.47000000000E+01 0. -1.
        -13    1    6    6    0    0  0.13022009462E+01  0.12774067213E+02  0.57459303170E+01  0.14067275347E+02  0.00000000000E+00 0.  1.
         14    1    6    6    0    0 -0.32388506592E+02 -0.63026447168E+02 -0.69831987882E+02  0.99487963762E+02  0.00000000000E+00 0. -1.
         -5    1    3    3    0  503 -0.66825720077E+02  0.59610962720E+02 -0.25325749826E+03  0.26866446391E+03  0.47000000000E+01 0.  1.
         11    1    4    4    0    0  0.23851316068E+02 -0.30382519281E+01 -0.92126077967E+01  0.25748561035E+02  0.00000000000E+00 0. -1.
        -12    1    4    4    0    0 -0.58458324038E+01 -0.30311557586E+02 -0.19022688567E+03  0.19271541794E+03  0.00000000000E+00 0.  1.
</event>
<event>
12    1  0.8271773E-002  0.1994502E+03  0.7818608E-02  0.1150993E+00
         21   -1    0    0  503  502  0.00000000000E+00  0.00000000000E+00  0.11530223275E+03  0.11530223275E+03  0.00000000000E+00 0.  1.
         21   -1    0    0  501  503 -0.00000000000E+00 -0.00000000000E+00 -0.71196076617E+03  0.71196076617E+03  0.00000000000E+00 0.  1.
          6    2    1    2  501    0 -0.11944006154E+02  0.91548924023E+02 -0.59651330900E+03  0.62781275891E+03  0.17261769221E+03 0.  0.
         24    2    3    3    0    0 -0.21874751184E+01  0.30226985378E+02 -0.52990532814E+03  0.53663006773E+03  0.79080447067E+02 0.  0.
         -6    2    1    2    0  502  0.11944006154E+02 -0.91548924023E+02 -0.14522441666E+00  0.19945024001E+03  0.17679511413E+03 0.  0.
        -24    2    5    5    0    0 -0.26432581021E+01 -0.13097680670E+03 -0.19281783149E+02  0.15302132563E+03  0.76693078100E+02 0.  0.
          5    1    3    3  501    0 -0.97565310357E+01  0.61321938644E+02 -0.66607980867E+02  0.91182691187E+02  0.47000000000E+01 0. -1.
        -13    1    4    4    0    0  0.37778710628E+02  0.19785154937E+02 -0.30437070608E+03  0.30734379781E+03  0.00000000000E+00 0.  1.
         14    1    4    4    0    0 -0.39966185746E+02  0.10441830441E+02 -0.22553462206E+03  0.22928626992E+03  0.00000000000E+00 0. -1.
         -5    1    5    5    0  502  0.14587264256E+02  0.39427882678E+02  0.19136558733E+02  0.46428914386E+02  0.47000000000E+01 0.  1.
         13    1    6    6    0    0 -0.36650166689E+02 -0.39922614241E+02 -0.15299516176E+01  0.54216147024E+02  0.00000000000E+00 0. -1.
        -14    1    6    6    0    0  0.34006908587E+02 -0.91054192460E+02 -0.17751831532E+02  0.98805178604E+02  0.00000000000E+00 0.  1.
</event>
<event>
12    1  0.8271773E-002  0.1950656E+03  0.7818608E-02  0.1154143E+00
         21   -1    0    0  503  502  0.00000000000E+00  0.00000000000E+00  0.49616197984E+03  0.49616197984E+03  0.00000000000E+00 0. -1.
         21   -1    0    0  501  503 -0.00000000000E+00 -0.00000000000E+00 -0.15091630304E+03  0.15091630304E+03  0.00000000000E+00 0.  1.
          6    2    1    2  501    0  0.92426100960E+02 -0.82389392894E+01 -0.54575165168E+02  0.20255629965E+03  0.17158129739E+03 0.  0.
         24    2    3    3    0    0  0.40484817861E+02  0.45881845201E+02  0.14026556637E+02  0.10079558799E+03  0.78859635238E+02 0.  0.
         -6    2    1    2    0  502 -0.92426100960E+02  0.82389392894E+01  0.39982084197E+03  0.44452198323E+03  0.17068281590E+03 0.  0.
        -24    2    5    5    0    0 -0.84399840817E+02  0.50515476827E+02  0.37207358401E+03  0.39310479931E+03  0.80109205418E+02 0.  0.
          5    1    3    3  501    0  0.51941283099E+02 -0.54120784490E+02 -0.68601721805E+02  0.10176071166E+03  0.47000000000E+01 0. -1.
        -11    1    4    4    0    0 -0.21604505357E+02  0.16968810072E+02  0.16882944245E+02  0.32244828629E+02  0.00000000000E+00 0.  1.
         12    1    4    4    0    0  0.62089323218E+02  0.28913035129E+02 -0.28563876071E+01  0.68550759356E+02  0.00000000000E+00 0. -1.
         -5    1    5    5    0  502 -0.80262601432E+01 -0.42276537538E+02  0.27747257957E+02  0.51417183919E+02  0.47000000000E+01 0.  1.
         11    1    6    6    0    0 -0.92569078578E+02  0.32305186695E+02  0.34941322370E+03  0.36290806038E+03  0.00000000000E+00 0. -1.
        -12    1    6    6    0    0  0.81692377616E+01  0.18210290132E+02  0.22660360316E+02  0.30196738929E+02  0.00000000000E+00 0.  1.
</event>
<event>
12    1  0.8271773E-002  0.2234544E+03  0.7818608E-02  0.1131393E+00
         21   -1    0    0  503  502  0.00000000000E+00  0.00000000000E+00  0.99457849682E+02  0.99457849682E+02  0.00000000000E+00 0. -1.
         21   -1    0    0  501  503 -0.00000000000E+00 -0.00000000000E+00 -0.58042898295E+03  0.58042898295E+03  0.00000000000E+00 0.  1.
          6    2    1    2  501    0  0.13855222193E+03 -0.18705788680E+02 -0.36614732652E+03  0.42894725276E+03  0.17431367186E+03 0.  0.
         24    2    3    3    0    0  0.15781411515E+03 -0.10673283170E+02 -0.36710306973E+03  0.40753358609E+03  0.79370939731E+02 0.  0.
         -6    2    1    2    0  502 -0.13855222193E+03  0.18705788680E+02 -0.11482380675E+03  0.25093957987E+03  0.17389520240E+03 0.  0.
        -24    2    5    5    0    0 -0.16979673935E+03  0.26202963777E+02 -0.89665430669E+02  0.20986085800E+03  0.80524296081E+02 0.  0.
          5    1    3    3  501    0 -0.19261893219E+02 -0.80325055099E+01  0.95574320631E+00  0.21413666669E+02  0.47000000000E+01 0. -1.
        -13    1    4    4    0    0  0.81879933112E+02 -0.37112946431E+02 -0.13769970668E+03  0.16444726650E+03  0.00000000000E+00 0.  1.
         14    1    4    4    0    0  0.75934182042E+02  0.26439663260E+02 -0.22940336304E+03  0.24308631959E+03  0.00000000000E+00 0. -1.
         -5    1    5    5    0  502  0.31244517420E+02 -0.74971750967E+01 -0.25158376079E+02  0.41078721866E+02  0.47000000000E+01 0.  1.
         11    1    6    6    0    0 -0.59350376319E+02  0.41791705887E+02 -0.60692991088E+02  0.94618460235E+02  0.00000000000E+00 0. -1.
        -12    1    6    6    0    0 -0.11044636304E+03 -0.15588742110E+02 -0.28972439581E+02  0.11524239777E+03  0.00000000000E+00 0.  1.
</event>
<event>
12    1  0.8271773E-002  0.2308711E+03  0.7818608E-02  0.1126547E+00
         21   -1    0    0  501  502  0.00000000000E+00  0.00000000000E+00  0.16875505327E+04  0.16875505327E+04  0.00000000000E+00 0. -1.
         21   -1    0    0  502  503 -0.00000000000E+00 -0.00000000000E+00 -0.34086689371E+02  0.34086689371E+02  0.00000000000E+00 0. -1.
         -6    2    1    2    0  503  0.10666842146E+03 -0.10991245219E+03  0.58036830589E+03  0.62460294409E+03  0.17275001596E+03 0.  0.
        -24    2    3    3    0    0  0.12953489479E+03 -0.11516879164E+03  0.56536600677E+03  0.59636000363E+03  0.77223006869E+02 0.  0.
          6    2    1    2  501    0 -0.10666842146E+03  0.10991245219E+03  0.10730955375E+04  0.10970342780E+04  0.16879358784E+03 0.  0.
         24    2    5    5    0    0 -0.67993140661E+02  0.35331148408E+02  0.33618091397E+03  0.35533123733E+03  0.85856415481E+02 0.  0.
          5    1    5    5  501    0 -0.38675280795E+02  0.74581303777E+02  0.73691462349E+03  0.74170304066E+03  0.47000000000E+01 0. -1.
        -11    1    6    6    0    0 -0.44486362185E+02 -0.22478749910E+02  0.18909785380E+03  0.19555645970E+03  0.00000000000E+00 0.  1.
         12    1    6    6    0    0 -0.23506778476E+02  0.57809898318E+02  0.14708306017E+03  0.15977477763E+03  0.00000000000E+00 0. -1.
         -5    1    3    3    0  503 -0.22866473330E+02  0.52563394586E+01  0.15002299117E+02  0.28242940461E+02  0.47000000000E+01 0.  1.
         13    1    4    4    0    0  0.59697813794E+00 -0.35851864104E+02  0.74470179164E+02  0.82653010395E+02  0.00000000000E+00 0. -1.
        -14    1    4    4    0    0  0.12893791665E+03 -0.79316927540E+02  0.49089582760E+03  0.51370699324E+03  0.00000000000E+00 0.  1.
</event>
<event>
12    1  0.8271773E-002  0.2100026E+03  0.7818608E-02  0.1141755E+00
         21   -1    0    0  501  502  0.00000000000E+00  0.00000000000E+00  0.23120547633E+03  0.23120547633E+03  0.00000000000E+00 0.  1.
         21   -1    0    0  502  503 -0.00000000000E+00 -0.00000000000E+00 -0.31585604245E+03  0.31585604245E+03  0.00000000000E+00 0.  1.
         -6    2    1    2    0  503 -0.64348738804E+02  0.10233383174E+03 -0.21513496940E+03  0.30063956973E+03  0.17172106022E+03 0.  0.
        -24    2    3    3    0    0  0.31438579680E+02  0.35839004988E+02 -0.82420155493E+02  0.12391355524E+03  0.79301125903E+02 0.  0.
          6    2    1    2  501    0  0.64348738804E+02 -0.10233383174E+03  0.13048440328E+03  0.24642194904E+03  0.17054214777E+03 0.  0.
         24    2    5    5    0    0  0.48910461164E+02 -0.44938456445E+02  0.14003681794E+01  0.10423422932E+03  0.80318836217E+02 0.  0.
          5    1    5    5  501    0  0.15438277640E+02 -0.57395375294E+02  0.12908403511E+03  0.14218771973E+03  0.47000000000E+01 0. -1.
        -13    1    6    6    0    0  0.35146240156E+02 -0.68428571646E+02 -0.67268297122E+00  0.76929708936E+02  0.00000000000E+00 0.  1.
         14    1    6    6    0    0  0.13764221009E+02  0.23490115202E+02  0.20730511506E+01  0.27304520381E+02  0.00000000000E+00 0. -1.
         -5    1    3    3    0  503 -0.95787318484E+02  0.66494826751E+02 -0.13271481391E+03  0.17672601449E+03  0.47000000000E+01 0.  1.
         13    1    4    4    0    0 -0.52017933497E+01 -0.21001590418E+02 -0.72934296112E+01  0.22832423648E+02  0.00000000000E+00 0. -1.
        -14    1    4    4    0    0  0.36640373030E+02  0.56840595406E+02 -0.75126725882E+02  0.10108113159E+03  0.00000000000E+00 0.  1.
</event>
<event>
12    1  0.8271773E-002  0.1845634E+03  0.7818608E-02  0.1163672E+00
         21   -1    0    0  501  502  0.00000000000E+00  0.00000000000E+00  0.97692816946E+02  0.97692816946E+02  0.00000000000E+00 0.  1.
         21   -1    0    0  502  503 -0.00000000000E+00 -0.00000000000E+00 -0.52463604701E+03  0.52463604701E+03  0.00000000000E+00 0.  1.
         -6    2    1    2    0  503 -0.46203174795E+02 -0.49196956158E+02 -0.39489867301E+03  0.43589978236E+03  0.17178062889E+03 0.  0.
        -24    2    3    3    0    0 -0.22570184829E+02 -0.85995608255E+02 -0.36108685806E+03  0.38042016592E+03  0.80194299602E+02 0.  0.
          6    2    1    2  501    0  0.46203174795E+02  0.49196956158E+02 -0.32044557058E+02  0.18642908160E+03  0.17080361522E+03 0.  0.
         24    2    5    5    0    0 -0.12097424203E+02 -0.20442593107E+02 -0.43658555661E+02  0.94747013398E+02  0.80663993084E+02 0.  0.
          5    1    5    5  501    0  0.58300598998E+02  0.69639549265E+02  0.11613998603E+02  0.91682068197E+02  0.47000000000E+01 0. -1.
        -13    1    6    6    0    0  0.18443495508E+02 -0.69891557652E+01  0.16655921417E+02  0.25815316057E+02  0.00000000000E+00 0.  1.
         14    1    6    6    0    0 -0.30540919711E+02 -0.13453437342E+02 -0.60314477078E+02  0.68931697341E+02  0.00000000000E+00 0. -1.
         -5    1    3    3    0  503 -0.23632989966E+02  0.36798652097E+02 -0.33811814944E+02  0.55479616443E+02  0.47000000000E+01 0.  1.
         13    1    4    4    0    0  0.22321139245E+02 -0.50025458915E+02 -0.24259725052E+03  0.24870505776E+03  0.00000000000E+00 0. -1.
        -14    1    4    4    0    0 -0.44891324074E+02 -0.35970149339E+02 -0.11848960754E+03  0.13171510816E+03  0.00000000000E+00 0.  1.
</event>
<event>
12    1  0.8271773E-002  0.1912138E+03  0.7818608E-02  0.1157739E+00
         21   -1    0    0  503  502  0.00000000000E+00  0.00000000000E+00  0.50537092651E+03  0.50537092651E+03  0.00000000000E+00 0.  1.
         21   -1    0    0  501  503 -0.00000000000E+00 -0.00000000000E+00 -0.86259224914E+02  0.86259224914E+02  0.00000000000E+00 0.  1.
          6    2    1    2  501    0  0.64655060330E+02 -0.49612603453E+02  0.88902952777E+02  0.21087072445E+03  0.17297699319E+03 0.  0.
         24    2    3    3    0    0  0.63845941632E+02  0.27869895204E+02  0.26182007862E+02  0.11106992685E+03  0.82449959329E+02 0.  0.
         -6    2    1    2    0  502 -0.64655060330E+02  0.49612603453E+02  0.33020874882E+03  0.38075942697E+03  0.17116727544E+03 0.  0.
        -24    2    5    5    0    0 -0.52310211129E+02  0.63959836987E+02  0.33990831495E+03  0.35897847211E+03  0.80626682472E+02 0.  0.
          5    1    3    3  501    0  0.80911869779E+00 -0.77482498657E+02  0.62720944916E+02  0.99800797604E+02  0.47000000000E+01 0. -1.
        -11    1    4    4    0    0 -0.34999615541E+01  0.21051488110E+02 -0.19902848289E+02  0.29181128363E+02  0.00000000000E+00 0.  1.
         12    1    4    4    0    0  0.67345903186E+02  0.68184070939E+01  0.46084856151E+02  0.81888798487E+02  0.00000000000E+00 0. -1.
         -5    1    5    5    0  502 -0.12344849200E+02 -0.14347233534E+02 -0.96995661286E+01  0.21780954867E+02  0.47000000000E+01 0.  1.
         11    1    6    6    0    0 -0.14540277925E+02 -0.16854265443E+02  0.36725026305E+02  0.42944306990E+02  0.00000000000E+00 0. -1.
        -12    1    6    6    0    0 -0.37769933204E+02  0.80814102430E+02  0.30318328865E+03  0.31603416512E+03  0.00000000000E+00 0.  1.
</event>
<event>
12    1  0.8271773E-002  0.1902485E+03  0.7818608E-02  0.1158335E+00
         21   -1    0    0  501  502  0.00000000000E+00  0.00000000000E+00  0.26561376660E+03  0.26561376660E+03  0.00000000000E+00 0.  1.
         21   -1    0    0  502  503 -0.00000000000E+00 -0.00000000000E+00 -0.20762842434E+03  0.20762842434E+03  0.00000000000E+00 0.  1.
         -6    2    1    2    0  503 -0.33806501601E+02  0.71328243904E+02 -0.11000736679E+03  0.21976375768E+03  0.17310081026E+03 0.  0.
        -24    2    3    3    0    0 -0.16489425514E+02  0.19285789225E+02  0.11907313491E+02  0.85996880306E+02  0.81300900906E+02 0.  0.
          6    2    1    2  501    0  0.33806501601E+02 -0.71328243904E+02  0.16799270906E+03  0.25347843327E+03  0.17262435491E+03 0.  0.
         24    2    5    5    0    0  0.39028702296E+02  0.20642293887E+02  0.11808285914E+03  0.14860262900E+03  0.78675509683E+02 0.  0.
          5    1    5    5  501    0 -0.52222006946E+01 -0.91970537791E+02  0.49909849918E+02  0.10487580427E+03  0.47000000000E+01 0. -1.
        -13    1    6    6    0    0 -0.10972731817E+02 -0.21566127477E+02  0.24711485062E+02  0.34585491060E+02  0.00000000000E+00 0.  1.
         14    1    6    6    0    0  0.50001434113E+02  0.42208421364E+02  0.93371374075E+02  0.11401713794E+03  0.00000000000E+00 0. -1.
         -5    1    3    3    0  503 -0.17317076087E+02  0.52042454679E+02 -0.12191468028E+03  0.13376687737E+03  0.47000000000E+01 0.  1.
         11    1    4    4    0    0 -0.46360861260E+02  0.35989058939E+01  0.21045895313E+02  0.51041270458E+02  0.00000000000E+00 0. -1.
        -12    1    4    4    0    0  0.29871435746E+02  0.15686883331E+02 -0.91385818221E+01  0.34955609849E+02  0.00000000000E+00 0.  1.
</event>
<event>
12    1  0.8271773E-002  0.2009968E+03  0.7818608E-02  0.1150159E+00
         21   -1    0    0  503  502  0.00000000000E+00  0.00000000000E+00  0.26044727061E+03  0.26044727061E+03  0.00000000000E+00 0. -1.
         21   -1    0    0  501  503 -0.00000000000E+00 -0.00000000000E+00 -0.21556240334E+03  0.21556240334E+03  0.00000000000E+00 0. -1.
          6    2    1    2  501    0 -0.15278099553E+02  0.10439954800E+03 -0.10844832204E+03  0.22320389015E+03  0.16409220602E+03 0.  0.
         24    2    3    3    0    0 -0.93207803612E+01  0.13137109727E+02 -0.69339212646E+00  0.81791241453E+02  0.80186443912E+02 0.  0.
         -6    2    1    2    0  502  0.15278099553E+02 -0.10439954800E+03  0.15333318930E+03  0.25280578380E+03  0.17107603991E+03 0.  0.
        -24    2    5    5    0    0  0.34300318423E+02 -0.13400637049E+03  0.10212523404E+03  0.19049403988E+03  0.82001198914E+02 0.  0.
          5    1    3    3  501    0 -0.59573191918E+01  0.91262438275E+02 -0.10775492991E+03  0.14141264870E+03  0.47000000000E+01 0. -1.
        -11    1    4    4    0    0  0.15684284045E+02 -0.28581512084E+02 -0.49124686530E+01  0.32970167535E+02  0.00000000000E+00 0.  1.
         12    1    4    4    0    0 -0.25005064406E+02  0.41718621811E+02  0.42190765265E+01  0.48821073918E+02  0.00000000000E+00 0. -1.
         -5    1    5    5    0  502 -0.19022218870E+02  0.29606822492E+02  0.51207955258E+02  0.62311743921E+02  0.47000000000E+01 0.  1.
         13    1    6    6    0    0  0.45987779646E+02 -0.11349508176E+03  0.48154317670E+02  0.13158589503E+03  0.00000000000E+00 0. -1.
        -14    1    6    6    0    0 -0.11687461224E+02 -0.20511288738E+02  0.53970916372E+02  0.58908144849E+02  0.00000000000E+00 0.  1.
</event>
<event>
12    1  0.8271773E-002  0.2502557E+03  0.7818608E-02  0.1113182E+00
         21   -1    0    0  503  502  0.00000000000E+00  0.00000000000E+00  0.24490457997E+03  0.24490457997E+03  0.00000000000E+00 0. -1.
         21   -1    0    0  501  503 -0.00000000000E+00 -0.00000000000E+00 -0.34732226942E+03  0.34732226942E+03  0.00000000000E+00 0. -1.
          6    2    1    2  501    0  0.88365266768E+02 -0.15904518944E+03 -0.20350096260E+03  0.32255319158E+03  0.17182586232E+03 0.  0.
         24    2    3    3    0    0  0.25271031601E+02 -0.11282925015E+02 -0.90957115261E+02  0.12633194687E+03  0.83190351301E+02 0.  0.
         -6    2    1    2    0  502 -0.88365266768E+02  0.15904518944E+03  0.10108327315E+03  0.26967365781E+03  0.17147087494E+03 0.  0.
        -24    2    5    5    0    0 -0.12640797726E+03  0.11529531809E+03  0.58691464810E+02  0.19769828370E+03  0.79799349929E+02 0.  0.
          5    1    3    3  501    0  0.63094235167E+02 -0.14776226442E+03 -0.11254384734E+03  0.19622124470E+03  0.47000000000E+01 0. -1.
        -11    1    4    4    0    0  0.21613203676E+02  0.14099317605E+02  0.56180974641E+01  0.26409928989E+02  0.00000000000E+00 0.  1.
         12    1    4    4    0    0  0.36578279242E+01 -0.25382242620E+02 -0.96575212725E+02  0.99922017886E+02  0.00000000000E+00 0. -1.
         -5    1    5    5    0  502  0.38042710489E+02  0.43749871348E+02  0.42391808335E+02  0.71975374110E+02  0.47000000000E+01 0.  1.
         11    1    6    6    0    0 -0.83799494835E+02  0.23884720343E+02  0.18182972673E+02  0.89013794974E+02  0.00000000000E+00 0. -1.
        -12    1    6    6    0    0 -0.42608482422E+02  0.91410597745E+02  0.40508492137E+02  0.10868448873E+03  0.00000000000E+00 0.  1.
</event>
<event>
12    1  0.8271773E-002  0.2716500E+03  0.7818608E-02  0.1100342E+00
         21   -1    0    0  503  502  0.00000000000E+00  0.00000000000E+00  0.53007380561E+03  0.53007380561E+03  0.00000000000E+00 0.  1.
         21   -1    0    0  501  503 -0.00000000000E+00 -0.00000000000E+00 -0.14619908422E+03  0.14619908422E+03  0.00000000000E+00 0. -1.
          6    2    1    2  501    0 -0.14769729765E+03 -0.14931695156E+03  0.11797466735E+03  0.29616164826E+03  0.17228945414E+03 0.  0.
         24    2    3    3    0    0 -0.72826031192E+01 -0.53838054845E+02  0.72967425544E+02  0.12043388161E+03  0.78920860301E+02 0.  0.
         -6    2    1    2    0  502  0.14769729765E+03  0.14931695156E+03  0.26590005404E+03  0.38011124157E+03  0.17225467620E+03 0.  0.
        -24    2    5    5    0    0  0.53387250481E+01  0.54671290713E+02  0.15110756103E+03  0.17414238285E+03  0.66892619107E+02 0.  0.
          5    1    3    3  501    0 -0.14041469453E+03 -0.95478896715E+02  0.45007241809E+02  0.17572776666E+03  0.47000000000E+01 0. -1.
        -11    1    4    4    0    0  0.30769818579E+02 -0.42638729638E+01  0.12530443174E+02  0.33495885631E+02  0.00000000000E+00 0.  1.
         12    1    4    4    0    0 -0.38052421699E+02 -0.49574181881E+02  0.60436982370E+02  0.86937995976E+02  0.00000000000E+00 0. -1.
         -5    1    5    5    0  502  0.14235857260E+03  0.94645660846E+02  0.11479249302E+03  0.20596885872E+03  0.47000000000E+01 0.  1.
         13    1    6    6    0    0 -0.91599810577E+01  0.61845611574E+02  0.81713139037E+02  0.10288742399E+03  0.00000000000E+00 0. -1.
        -14    1    6    6    0    0  0.14498706106E+02 -0.71743208611E+01  0.69394421989E+02  0.71254958857E+02  0.00000000000E+00 0.  1.
</event>
<event>
12    1  0.8271773E-002  0.2076560E+03  0.7818608E-02  0.1143440E+00
         21   -1    0    0  501  502  0.00000000000E+00  0.00000000000E+00  0.76532756872E+03  0.76532756872E+03  0.00000000000E+00 0. -1.
         21   -1    0    0  502  503 -0.00000000000E+00 -0.00000000000E+00 -0.56670827667E+02  0.56670827667E+02  0.00000000000E+00 0.  1.
         -6    2    1    2    0  503  0.16775811215E+02 -0.11519592295E+03  0.32277376910E+03  0.38378991232E+03  0.17193098113E+03 0.  0.
        -24    2    3    3    0    0  0.33636916128E+01 -0.46531237757E+02  0.29782219689E+03  0.30936280099E+03  0.69504037057E+02 0.  0.
          6    2    1    2  501    0 -0.16775811215E+02  0.11519592295E+03  0.38588297195E+03  0.43820848407E+03  0.17195778249E+03 0.  0.
         24    2    5    5    0    0  0.44231085381E+02  0.10411342210E+03  0.31448914952E+03  0.34353097281E+03  0.79461377631E+02 0.  0.
          5    1    5    5  501    0 -0.61006896596E+02  0.11082500849E+02  0.71393822431E+02  0.94677511262E+02  0.47000000000E+01 0. -1.
        -11    1    6    6    0    0  0.54791870961E+02  0.86501052198E+02  0.17673369804E+03  0.20425322807E+03  0.00000000000E+00 0.  1.
         12    1    6    6    0    0 -0.10560785579E+02  0.17612369906E+02  0.13775545148E+03  0.13927774474E+03  0.00000000000E+00 0. -1.
         -5    1    3    3    0  503  0.13412119602E+02 -0.68664685196E+02  0.24951572212E+02  0.74427111331E+02  0.47000000000E+01 0.  1.
         13    1    4    4    0    0  0.15606233568E+02 -0.48481161585E+02  0.11096785349E+03  0.12209767427E+03  0.00000000000E+00 0. -1.
        -14    1    4    4    0    0 -0.12242541955E+02  0.19499238285E+01  0.18685434340E+03  0.18726512671E+03  0.00000000000E+00 0.  1.
</event>
<event>
12    1  0.8271773E-002  0.1714589E+03  0.7818608E-02  0.1176754E+00
         21   -1    0    0  501  502  0.00000000000E+00  0.00000000000E+00  0.20704614261E+03  0.20704614261E+03  0.00000000000E+00 0. -1.
         21   -1    0    0  502  503 -0.00000000000E+00 -0.00000000000E+00 -0.21325286531E+03  0.21325286531E+03  0.00000000000E+00 0. -1.
         -6    2    1    2    0  503 -0.15571721668E+01 -0.12804060171E+02 -0.12572829235E+03  0.21261643834E+03  0.17097303184E+03 0.  0.
        -24    2    3    3    0    0 -0.50624277595E+02 -0.16391083922E+02 -0.28709230171E+02  0.10373468597E+03  0.84292230140E+02 0.  0.
          6    2    1    2  501    0  0.15571721668E+01  0.12804060171E+02  0.11952156965E+03  0.20768256958E+03  0.16935251800E+03 0.  0.
         24    2    5    5    0    0 -0.57618569613E+02  0.35101578499E+02  0.59661811934E+02  0.12048034293E+03  0.80024751489E+02 0.  0.
          5    1    5    5  501    0  0.59175741780E+02 -0.22297518328E+02  0.59859757718E+02  0.87202226651E+02  0.47000000000E+01 0. -1.
        -11    1    6    6    0    0 -0.59082195613E+02  0.15973619881E+02  0.74363508595E+02  0.96310922440E+02  0.00000000000E+00 0.  1.
         12    1    6    6    0    0  0.14636260000E+01  0.19127958618E+02 -0.14701696661E+02  0.24169420487E+02  0.00000000000E+00 0. -1.
         -5    1    3    3    0  503  0.49067105428E+02  0.35870237512E+01 -0.97019062175E+02  0.10888175237E+03  0.47000000000E+01 0.  1.
         11    1    4    4    0    0 -0.60125282603E+02  0.18866193491E+02 -0.15403928358E+02  0.64871132823E+02  0.00000000000E+00 0. -1.
        -12    1    4    4    0    0  0.95010050081E+01 -0.35257277414E+02 -0.13305301813E+02  0.38863553146E+02  0.00000000000E+00 0.  1.
</event>
<event>
12    1  0.8271773E-002  0.1997711E+03  0.7818608E-02  0.1151320E+00
         21   -1    0    0  503  502  0.00000000000E+00  0.00000000000E+00  0.91921683178E+02  0.91921683178E+02  0.00000000000E+00 0. -1.
         21   -1    0    0  501  503 -0.00000000000E+00 -0.00000000000E+00 -0.43101391050E+03  0.43101391050E+03  0.00000000000E+00 0. -1.
          6    2    1    2  501    0  0.66653460181E-01  0.89389181051E+02 -0.21358810507E+03  0.29245233116E+03  0.17865625441E+03 0.  0.
         24    2    3    3    0    0 -0.48370561196E+02  0.69180398169E+02 -0.20939236390E+03  0.23959163769E+03  0.80208179828E+02 0.  0.
         -6    2    1    2    0  502 -0.66653460181E-01 -0.89389181051E+02 -0.12550412225E+03  0.23048326253E+03  0.17140834131E+03 0.  0.
        -24    2    5    5    0    0 -0.18418502373E+02 -0.12631762084E+03 -0.11079089837E+03  0.18644840156E+03  0.78695620705E+02 0.  0.
          5    1    3    3  501    0  0.48437214656E+02  0.20208782882E+02 -0.41957411707E+01  0.52860693461E+02  0.47000000000E+01 0. -1.
        -11    1    4    4    0    0 -0.48718440287E+02  0.42631935859E+01 -0.65591330909E+02  0.81816159369E+02  0.00000000000E+00 0.  1.
         12    1    4    4    0    0  0.34787909083E+00  0.64917204583E+02 -0.14380103299E+03  0.15777547832E+03  0.00000000000E+00 0. -1.
         -5    1    5    5    0  502  0.18351848913E+02  0.36928439784E+02 -0.14713223879E+02  0.44034860967E+02  0.47000000000E+01 0.  1.
         11    1    6    6    0    0  0.75159055875E+01 -0.90993542193E+02 -0.10954862953E+03  0.14260861050E+03  0.00000000000E+00 0. -1.
        -12    1    6    6    0    0 -0.25934407961E+02 -0.35324078643E+02 -0.12422688478E+01  0.43839791059E+02  0.00000000000E+00 0.  1.
</event>
<event>
12    1  0.8271773E-002  0.1768266E+03  0.7818608E-02  0.1170975E+00
         21   -1    0    0  501  502  0.00000000000E+00  0.00000000000E+00  0.18973631614E+03  0.18973631614E+03  0.00000000000E+00 0. -1.
         21   -1    0    0  502  503 -0.00000000000E+00 -0.00000000000E+00 -0.17467498465E+03  0.17467498465E+03  0.00000000000E+00 0. -1.
         -6    2    1    2    0  503  0.25257315378E+02 -0.33852072862E+02 -0.36340797187E+02  0.18026508178E+03  0.17143789357E+03 0.  0.
        -24    2    3    3    0    0 -0.11680392684E+02 -0.80662525895E+02 -0.98026886325E+01  0.11482828788E+03  0.80290524576E+02 0.  0.
          6    2    1    2  501    0 -0.25257315378E+02  0.33852072862E+02  0.51402128679E+02  0.18414621900E+03  0.17170834669E+03 0.  0.
         24    2    5    5    0    0 -0.65367019196E+02  0.51635390470E+02  0.68760100181E+02  0.13672867056E+03  0.83831481131E+02 0.  0.
          5    1    5    5  501    0  0.40109703818E+02 -0.17783317608E+02 -0.17357971502E+02  0.47417548441E+02  0.47000000000E+01 0. -1.
        -11    1    6    6    0    0 -0.90204008503E+01  0.35276812894E+01 -0.19331706758E+02  0.21622373897E+02  0.00000000000E+00 0.  1.
         12    1    6    6    0    0 -0.56346618345E+02  0.48107709181E+02  0.88091806939E+02  0.11510629666E+03  0.00000000000E+00 0. -1.
         -5    1    3    3    0  503  0.36937708061E+02  0.46810453033E+02 -0.26538108555E+02  0.65436793898E+02  0.47000000000E+01 0.  1.
         13    1    4    4    0    0  0.26451160268E+02 -0.67573892572E+02  0.27061603737E+01  0.72616927371E+02  0.00000000000E+00 0. -1.
        -14    1    4    4    0    0 -0.38131552952E+02 -0.13088633323E+02 -0.12508849006E+02  0.42211360512E+02  0.00000000000E+00 0.  1.
</event>
<event>
12    1  0.8271773E-002  0.1821204E+03  0.7818608E-02  0.1166227E+00
         21   -1    0    0  503  502  0.00000000000E+00  0.00000000000E+00  0.15930906125E+03  0.15930906125E+03  0.00000000000E+00 0.  1.
         21   -1    0    0  501  503 -0.00000000000E+00 -0.00000000000E+00 -0.28432572498E+03  0.28432572498E+03  0.00000000000E+00 0.  1.
          6    2    1    2  501    0 -0.30322105288E+02  0.49719909773E+02 -0.17916538302E+03  0.25547614095E+03  0.17255817751E+03 0.  0.
         24    2    3    3    0    0  0.45069170914E+02  0.35331058967E+02 -0.64229454500E+02  0.11718933312E+03  0.79551260691E+02 0.  0.
         -6    2    1    2    0  502  0.30322105288E+02 -0.49719909773E+02  0.54148719286E+02  0.18815864528E+03  0.17052886118E+03 0.  0.
        -24    2    5    5    0    0 -0.39376654348E+02  0.58119211277E+00  0.26474293056E+02  0.97736956438E+02  0.85444518661E+02 0.  0.
          5    1    3    3  501    0 -0.75391276202E+02  0.14388850806E+02 -0.11493592852E+03  0.13828680783E+03  0.47000000000E+01 0. -1.
        -13    1    4    4    0    0  0.36135747477E+01  0.52070494065E+01 -0.65620351986E+02  0.65925730036E+02  0.00000000000E+00 0.  1.
         14    1    4    4    0    0  0.41455596166E+02  0.30124009561E+02  0.13908974862E+01  0.51263603086E+02  0.00000000000E+00 0. -1.
         -5    1    5    5    0  502  0.69698759636E+02 -0.50301101886E+02  0.27674426231E+02  0.90421688841E+02  0.47000000000E+01 0.  1.
         11    1    6    6    0    0  0.21704121937E+02  0.12240386292E+02  0.25345978908E+02  0.35543137346E+02  0.00000000000E+00 0. -1.
        -12    1    6    6    0    0 -0.61080776285E+02 -0.11659194179E+02  0.11283141479E+01  0.62193819092E+02  0.00000000000E+00 0.  1.
</event>
<event>
12    1  0.8271773E-002  0.2513850E+03  0.7818608E-02  0.1113032E+00
         21   -1    0    0  501  502  0.00000000000E+00  0.00000000000E+00  0.91295972867E+03  0.91295972867E+03  0.00000000000E+00 0.  1.
         21   -1    0    0  502  503 -0.00000000000E+00 -0.00000000000E+00 -0.81413973727E+02  0.81413973727E+02  0.00000000000E+00 0.  1.
         -6    2    1    2    0  503 -0.69395265705E+02 -0.16461620509E+03  0.61886864157E+03  0.66797665540E+03  0.17686214618E+03 0.  0.
        -24    2    3    3    0    0 -0.57346656456E+02 -0.10571367669E+03  0.21254492103E+03  0.25720210322E+03  0.80706616827E+02 0.  0.
          6    2    1    2  501    0  0.69395265705E+02  0.16461620509E+03  0.21267711337E+03  0.32639704700E+03  0.17143301858E+03 0.  0.
         24    2    5    5    0    0  0.51773619821E+02  0.17743648079E+03  0.12655815984E+03  0.23743949516E+03  0.78716793742E+02 0.  0.
          5    1    5    5  501    0  0.17621645884E+02 -0.12820275695E+02  0.86118953523E+02  0.88957551835E+02  0.47000000000E+01 0. -1.
        -13    1    6    6    0    0  0.48164289175E+01  0.71842749369E+02  0.91983961290E+02  0.11681450149E+03  0.00000000000E+00 0.  1.
         14    1    6    6    0    0  0.46957190903E+02  0.10559373142E+03  0.34574198552E+02  0.12062499367E+03  0.00000000000E+00 0. -1.
         -5    1    3    3    0  503 -0.12048609249E+02 -0.58902528398E+02  0.40632372055E+03  0.41077455218E+03  0.47000000000E+01 0.  1.
         13    1    4    4    0    0 -0.26245532581E+01 -0.10539805769E+02  0.97785192238E+02  0.98386582452E+02  0.00000000000E+00 0. -1.
        -14    1    4    4    0    0 -0.54722103198E+02 -0.95173870925E+02  0.11475972879E+03  0.15881552077E+03  0.00000000000E+00 0.  1.
</event>
<event>
12    1  0.8271773E-002  0.2841911E+03  0.7818608E-02  0.1093424E+00
         21   -1    0    0  503  502  0.00000000000E+00  0.00000000000E+00  0.55465159751E+03  0.55465159751E+03  0.00000000000E+00 0.  1.
         21   -1    0    0  501  503 -0.00000000000E+00 -0.00000000000E+00 -0.32612658894E+03  0.32612658894E+03  0.00000000000E+00 0.  1.
          6    2    1    2  501    0  0.20618004819E+03  0.92018808452E+02 -0.21338761352E+03  0.35537232541E+03  0.17256170690E+03 0.  0.
         24    2    3    3    0    0  0.52950293953E+02  0.90870372530E+01 -0.13657445163E+03  0.16490083648E+03  0.75189076061E+02 0.  0.
         -6    2    1    2    0  502 -0.20618004819E+03 -0.92018808452E+02  0.44191262209E+03  0.52540586103E+03  0.17258875937E+03 0.  0.
        -24    2    5    5    0    0 -0.13882336419E+03 -0.66650182739E+01  0.17765420354E+03  0.23961433884E+03  0.80855837339E+02 0.  0.
          5    1    3    3  501    0  0.15322975423E+03  0.82931771199E+02 -0.76813161892E+02  0.19047148893E+03  0.47000000000E+01 0. -1.
        -11    1    4    4    0    0  0.58767002899E+02  0.32594529695E+02 -0.11038139429E+03  0.12922854252E+03  0.00000000000E+00 0.  1.
         12    1    4    4    0    0 -0.58167089456E+01 -0.23507492442E+02 -0.26193057335E+02  0.35672293961E+02  0.00000000000E+00 0. -1.
         -5    1    5    5    0  502 -0.67356683998E+02 -0.85353790178E+02  0.26425841855E+03  0.28579152219E+03  0.47000000000E+01 0.  1.
         11    1    6    6    0    0  0.75241582940E+01  0.31776519582E+01  0.31532805903E+02  0.32573429020E+02  0.00000000000E+00 0. -1.
        -12    1    6    6    0    0 -0.14634752248E+03 -0.98426702322E+01  0.14612139763E+03  0.20704090982E+03  0.00000000000E+00 0.  1.
</event>
<event>
12    1  0.8271773E-002  0.1887967E+03  0.7818608E-02  0.1159829E+00
         21   -1    0    0  501  502  0.00000000000E+00  0.00000000000E+00  0.89125702923E+02  0.89125702923E+02  0.00000000000E+00 0. -1.
         21   -1    0    0  502  503 -0.00000000000E+00 -0.00000000000E+00 -0.39797961662E+03  0.39797961662E+03  0.00000000000E+00 0. -1.
         -6    2    1    2    0  503 -0.54802006155E+02  0.55465418733E+02 -0.16458871923E+03  0.25046687774E+03  0.17194341451E+03 0.  0.
        -24    2    3    3    0    0 -0.43959728804E+02  0.93901253445E+02 -0.16562567481E+03  0.21024208880E+03  0.77588456559E+02 0.  0.
          6    2    1    2  501    0  0.54802006155E+02 -0.55465418733E+02 -0.14426519447E+03  0.23663844180E+03  0.17060373164E+03 0.  0.
         24    2    5    5    0    0  0.83488864610E+01 -0.71997436217E+02 -0.27346899003E+02  0.10966136613E+03  0.77617186303E+02 0.  0.
          5    1    5    5  501    0  0.46453119694E+02  0.16532017483E+02 -0.11691829547E+03  0.12697707567E+03  0.47000000000E+01 0. -1.
        -13    1    6    6    0    0  0.38212201817E+02 -0.14042254230E+02 -0.14465285301E+02  0.43204186723E+02  0.00000000000E+00 0.  1.
         14    1    6    6    0    0 -0.29863315356E+02 -0.57955181987E+02 -0.12881613702E+02  0.66457179407E+02  0.00000000000E+00 0. -1.
         -5    1    3    3    0  503 -0.10842277350E+02 -0.38435834711E+02  0.10369555891E+01  0.40224788937E+02  0.47000000000E+01 0.  1.
         13    1    4    4    0    0 -0.56605035961E+01  0.86740168001E+02 -0.89730727805E+02  0.12492998663E+03  0.00000000000E+00 0. -1.
        -14    1    4    4    0    0 -0.38299225208E+02  0.71610854436E+01 -0.75894947009E+02  0.85312102177E+02  0.00000000000E+00 0.  1.
</event>
<event>
12    1  0.8271773E-002  0.1809799E+03  0.7818608E-02  0.1167153E+00
         21   -1    0    0  503  502  0.00000000000E+00  0.00000000000E+00  0.98484601253E+02  0.98484601253E+02  0.00000000000E+00 0. -1.
         21   -1    0    0  501  503 -0.00000000000E+00 -0.00000000000E+00 -0.33989931565E+03  0.33989931565E+03  0.00000000000E+00 0. -1.
          6    2    1    2  501    0 -0.98014247534E+01 -0.50295490784E+02 -0.83534759004E+02  0.19821775145E+03  0.17229775595E+03 0.  0.
         24    2    3    3    0    0  0.25691394018E+02 -0.91525699734E+02 -0.46727785139E+02  0.13236554086E+03  0.79373478341E+02 0.  0.
         -6    2    1    2    0  502  0.98014247534E+01  0.50295490784E+02 -0.15787995539E+03  0.24016616546E+03  0.17357419853E+03 0.  0.
        -24    2    5    5    0    0 -0.92937427769E+01  0.70559336106E+02 -0.32303687684E+02  0.11145432505E+03  0.79457817533E+02 0.  0.
          5    1    3    3  501    0 -0.35492818771E+02  0.41230208950E+02 -0.36806973865E+02  0.65852210589E+02  0.47000000000E+01 0. -1.
        -13    1    4    4    0    0  0.38272803590E+02 -0.71152889785E+02 -0.10588963320E+01  0.80800139114E+02  0.00000000000E+00 0.  1.
         14    1    4    4    0    0 -0.12581409572E+02 -0.20372809949E+02 -0.45668888807E+02  0.51565401743E+02  0.00000000000E+00 0. -1.
         -5    1    5    5    0  502  0.19095167530E+02 -0.20263845322E+02 -0.12557626771E+03  0.12871184041E+03  0.47000000000E+01 0.  1.
         13    1    6    6    0    0  0.71790379071E+01  0.73936441765E+02 -0.48007039483E+02  0.88446661023E+02  0.00000000000E+00 0. -1.
        -14    1    6    6    0    0 -0.16472780684E+02 -0.33771056592E+01  0.15703351799E+02  0.23007664024E+02  0.00000000000E+00 0.  1.
</event>
<event>
12    1  0.8271773E-002  0.2307621E+03  0.7818608E-02  0.1126442E+00
         21   -1    0    0  501  502  0.00000000000E+00  0.00000000000E+00  0.20583978940E+03  0.20583978940E+03  0.00000000000E+00 0.  1.
         21   -1    0    0  502  503 -0.00000000000E+00 -0.00000000000E+00 -0.26170489893E+03  0.26170489893E+03  0.00000000000E+00 0.  1.
         -6    2    1    2    0  503  0.13935213643E+03 -0.61011189800E+02 -0.60837432067E+02  0.23864689166E+03  0.17352164864E+03 0.  0.
        -24    2    3    3    0    0  0.65124973788E+02 -0.10197715842E+03 -0.32678112640E+02  0.14918785338E+03  0.80923133283E+02 0.  0.
          6    2    1    2  501    0 -0.13935213643E+03  0.61011189800E+02  0.49723225362E+01  0.22889779667E+03  0.17096225934E+03 0.  0.
         24    2    5    5    0    0 -0.39467013941E+02  0.76196969135E+02  0.46775189664E+02  0.11945733208E+03  0.68691429776E+02 0.  0.
          5    1    5    5  501    0 -0.99885122491E+02 -0.15185779335E+02 -0.41802867128E+02  0.10944046459E+03  0.47000000000E+01 0. -1.
        -11    1    6    6    0    0 -0.49268036126E+02  0.28226081286E+02  0.41254138642E+02  0.70185148027E+02  0.00000000000E+00 0.  1.
         12    1    6    6    0    0  0.98010221847E+01  0.47970887850E+02  0.55210510220E+01  0.49272184053E+02  0.00000000000E+00 0. -1.
         -5    1    3    3    0  503  0.74227162644E+02  0.40965968616E+02 -0.28159319427E+02  0.89459038277E+02  0.47000000000E+01 0.  1.
         13    1    4    4    0    0  0.20339922394E+01 -0.48459010009E+02  0.18494698737E+02  0.51908252300E+02  0.00000000000E+00 0. -1.
        -14    1    4    4    0    0  0.63090981549E+02 -0.53518148407E+02 -0.51172811377E+02  0.97279601078E+02  0.00000000000E+00 0.  1.
</event>
<event>
12    1  0.8271773E-002  0.2656128E+03  0.7818608E-02  0.1103861E+00
         21   -1    0    0  503  502  0.00000000000E+00  0.00000000000E+00  0.37837810504E+03  0.37837810504E+03  0.00000000000E+00 0.  1.
         21   -1    0    0  501  503 -0.00000000000E+00 -0.00000000000E+00 -0.33879519061E+03  0.33879519061E+03  0.00000000000E+00 0. -1.
          6    2    1    2  501    0 -0.15876361598E+03  0.12475663700E+03 -0.22082446641E+03  0.34541800500E+03  0.17256896876E+03 0.  0.
         24    2    3    3    0    0 -0.29847861972E+02  0.22868105951E+01 -0.47029497040E+02  0.96731633460E+02  0.79051318477E+02 0.  0.
         -6    2    1    2    0  502  0.15876361598E+03 -0.12475663700E+03  0.26040738085E+03  0.37175529065E+03  0.17210429364E+03 0.  0.
        -24    2    5    5    0    0  0.12320626384E+03 -0.15048669043E+03  0.17104614125E+03  0.27208642849E+03  0.83355951733E+02 0.  0.
          5    1    3    3  501    0 -0.12891575401E+03  0.12246982641E+03 -0.17379496937E+03  0.24868637154E+03  0.47000000000E+01 0. -1.
        -13    1    4    4    0    0 -0.11632447456E+02  0.36533357749E+02 -0.43189742794E+02  0.57752523277E+02  0.00000000000E+00 0.  1.
         14    1    4    4    0    0 -0.18215414516E+02 -0.34246547154E+02 -0.38397542457E+01  0.38979110183E+02  0.00000000000E+00 0. -1.
         -5    1    5    5    0  502  0.35557352143E+02  0.25730053426E+02  0.89361239596E+02  0.99668862153E+02  0.47000000000E+01 0.  1.
         13    1    6    6    0    0  0.10267203218E+03 -0.60944508585E+02  0.10422178346E+03  0.15848646462E+03  0.00000000000E+00 0. -1.
        -14    1    6    6    0    0  0.20534231656E+02 -0.89542181843E+02  0.66824357787E+02  0.11359996388E+03  0.00000000000E+00 0.  1.
</event>
<event>
12    1  0.8271773E-002  0.2843791E+03  0.7818608E-02  0.1093381E+00
         21   -1    0    0  503  502  0.00000000000E+00  0.00000000000E+00  0.25975263880E+03  0.25975263880E+03  0.00000000000E+00 0.  1.
         21   -1    0    0  501  503 -0.00000000000E+00 -0.00000000000E+00 -0.45258880114E+03  0.45258880114E+03  0.00000000000E+00 0. -1.
          6    2    1    2  501    0 -0.21575148267E+03 -0.68224467787E+02 -0.29578912436E+03  0.41032018877E+03  0.17224450919E+03 0.  0.
         24    2    3    3    0    0 -0.50809026251E+02 -0.58894191251E+02 -0.75209591666E+02  0.13469274414E+03  0.80222002810E+02 0.  0.
         -6    2    1    2    0  502  0.21575148267E+03  0.68224467787E+02  0.10295296202E+03  0.30202125116E+03  0.17150581182E+03 0.  0.
        -24    2    5    5    0    0  0.22362246536E+03  0.34682709653E+02  0.11617621604E+03  0.26481982170E+03  0.73639170460E+02 0.  0.
          5    1    3    3  501    0 -0.16494245642E+03 -0.93302765368E+01 -0.22057953269E+03  0.27562744463E+03  0.47000000000E+01 0. -1.
        -11    1    4    4    0    0 -0.50186083193E+02 -0.73928029543E+02 -0.43041434810E+02  0.99179441463E+02  0.00000000000E+00 0.  1.
         12    1    4    4    0    0 -0.62294305795E+00  0.15033838292E+02 -0.32168156855E+02  0.35513302681E+02  0.00000000000E+00 0. -1.
         -5    1    5    5    0  502 -0.78709826923E+01  0.33541758134E+02 -0.13223254028E+02  0.37201429467E+02  0.47000000000E+01 0.  1.
         13    1    6    6    0    0 -0.32392981669E+01 -0.61481040513E+01  0.66374962932E+01  0.96098175364E+01  0.00000000000E+00 0. -1.
        -14    1    6    6    0    0  0.22686176353E+03  0.40830813704E+02  0.10953871975E+03  0.25521000416E+03  0.00000000000E+00 0.  1.
</event>
<event>
12    1  0.8271773E-002  0.2457487E+03  0.7818608E-02  0.1116026E+00
         21   -1    0    0  501  502  0.00000000000E+00  0.00000000000E+00  0.31181741699E+03  0.31181741699E+03  0.00000000000E+00 0.  1.
         21   -1    0    0  502  503 -0.00000000000E+00 -0.00000000000E+00 -0.23410167346E+03  0.23410167346E+03  0.00000000000E+00 0. -1.
         -6    2    1    2    0  503 -0.16245435330E+03  0.65422589487E+02 -0.74603608508E+02  0.25679352624E+03  0.17235337130E+03 0.  0.
        -24    2    3    3    0    0 -0.11186916520E+02  0.85671250405E+01 -0.43277784571E+02  0.92118760380E+02  0.80089678760E+02 0.  0.
          6    2    1    2  501    0  0.16245435330E+03 -0.65422589487E+02  0.15231935203E+03  0.28912556421E+03  0.17239743256E+03 0.  0.
         24    2    5    5    0    0  0.11947482561E+03 -0.11123109379E+03  0.10289795973E+03  0.20906169668E+03  0.80450063514E+02 0.  0.
          5    1    5    5  501    0  0.42979527683E+02  0.45808504307E+02  0.49421392304E+02  0.80063867530E+02  0.47000000000E+01 0. -1.
        -11    1    6    6    0    0  0.12084802180E+03 -0.69958398172E+02  0.88539939319E+02  0.16534129158E+03  0.00000000000E+00 0.  1.
         12    1    6    6    0    0 -0.13731961842E+01 -0.41272695621E+02  0.14358020407E+02  0.43720405095E+02  0.00000000000E+00 0. -1.
         -5    1    3    3    0  503 -0.15126743678E+03  0.56855464447E+02 -0.31325823938E+02  0.16467476586E+03  0.47000000000E+01 0.  1.
         13    1    4    4    0    0  0.58587149453E+01 -0.19612515772E+02  0.14864509642E+02  0.25296817243E+02  0.00000000000E+00 0. -1.
        -14    1    4    4    0    0 -0.17045631465E+02  0.28179640812E+02 -0.58142294213E+02  0.66821943138E+02  0.00000000000E+00 0.  1.
</event>
<event>
12    1  0.8271773E-002  0.2752339E+03  0.7818608E-02  0.1098555E+00
         21   -1    0    0  503  502  0.00000000000E+00  0.00000000000E+00  0.63886211551E+03  0.63886211551E+03  0.00000000000E+00 0. -1.
         21   -1    0    0  501  503 -0.00000000000E+00 -0.00000000000E+00 -0.21529730462E+03  0.21529730462E+03  0.00000000000E+00 0. -1.
          6    2    1    2  501    0 -0.19925555393E+03 -0.76901702531E+02 -0.75885536438E+02  0.28389249051E+03  0.17093766087E+03 0.  0.
         24    2    3    3    0    0 -0.15305531468E+03 -0.95715010569E+00 -0.88746761922E+02  0.19395063000E+03  0.79460767925E+02 0.  0.
         -6    2    1    2    0  502  0.19925555393E+03  0.76901702531E+02  0.49945034733E+03  0.57026692962E+03  0.17360032818E+03 0.  0.
        -24    2    5    5    0    0  0.16579730190E+03  0.11201702675E+03  0.45994328627E+03  0.50753385623E+03  0.77499864725E+02 0.  0.
          5    1    3    3  501    0 -0.46200239247E+02 -0.75944552426E+02  0.12861225484E+02  0.89941860502E+02  0.47000000000E+01 0. -1.
        -13    1    4    4    0    0 -0.36742457020E+02  0.19299658821E+02 -0.59108053799E+02  0.72223590345E+02  0.00000000000E+00 0.  1.
         14    1    4    4    0    0 -0.11631285766E+03 -0.20256808927E+02 -0.29638708123E+02  0.12172703966E+03  0.00000000000E+00 0. -1.
         -5    1    5    5    0  502  0.33458252022E+02 -0.35115324220E+02  0.39507061066E+02  0.62733073395E+02  0.47000000000E+01 0.  1.
         11    1    6    6    0    0  0.10035138234E+03  0.47986551861E+02  0.16731698243E+03  0.20091809701E+03  0.00000000000E+00 0. -1.
        -12    1    6    6    0    0  0.65445919567E+02  0.64030474890E+02  0.29262630383E+03  0.30661575921E+03  0.00000000000E+00 0.  1.
</event>
<event>
12    1  0.8271773E-002  0.1773411E+03  0.7818608E-02  0.1171149E+00
         21   -1    0    0  501  502  0.00000000000E+00  0.00000000000E+00  0.11849519184E+02  0.11849519184E+02  0.00000000000E+00 0. -1.
         21   -1    0    0  502  503 -0.00000000000E+00 -0.00000000000E+00 -0.26600820252E+04  0.26600820252E+04  0.00000000000E+00 0. -1.
         -6    2    1    2    0  503 -0.40780312339E+02 -0.60515681034E+01 -0.14975348672E+04  0.15076485373E+04  0.16939237925E+03 0.  0.
        -24    2    3    3    0    0 -0.71731398750E+02 -0.24518708379E+02 -0.78794098422E+03  0.79712438303E+03  0.93860144783E+02 0.  0.
          6    2    1    2  501    0  0.40780312339E+02  0.60515681034E+01 -0.11506976389E+04  0.11642830072E+04  0.17248248982E+03 0.  0.
         24    2    5    5    0    0 -0.26653657562E+02  0.57092496792E+02 -0.52165631741E+03  0.52956449410E+03  0.65903484541E+02 0.  0.
          5    1    5    5  501    0  0.67433969901E+02 -0.51040928689E+02 -0.62904132149E+03  0.63471851307E+03  0.47000000000E+01 0. -1.
        -11    1    6    6    0    0  0.68520593336E+01  0.26541528973E+02 -0.63423318297E+02  0.69093565411E+02  0.00000000000E+00 0.  1.
         12    1    6    6    0    0 -0.33505716895E+02  0.30550967819E+02 -0.45823299911E+03  0.46047092869E+03  0.00000000000E+00 0. -1.
         -5    1    3    3    0  503  0.30951086411E+02  0.18467140275E+02 -0.70959388295E+03  0.71052415422E+03  0.47000000000E+01 0.  1.
         13    1    4    4    0    0 -0.20675180009E+02  0.30609725216E+02 -0.13813160713E+03  0.14298517138E+03  0.00000000000E+00 0. -1.
        -14    1    4    4    0    0 -0.51056218742E+02 -0.55128433595E+02 -0.64980937709E+03  0.65413921165E+03  0.00000000000E+00 0.  1.
</event>
<event>
12    1  0.8271773E-002  0.2522333E+03  0.7818608E-02  0.1112013E+00
         21   -1    0    0  503  502  0.00000000000E+00  0.00000000000E+00  0.19197334027E+03  0.19197334027E+03  0.00000000000E+00 0. -1.
         21   -1    0    0  501  503 -0.00000000000E+00 -0.00000000000E+00 -0.47427892357E+03  0.47427892357E+03  0.00000000000E+00 0. -1.
          6    2    1    2  501    0  0.17654395225E+03  0.50022860784E+02 -0.32444699016E+03  0.41052285598E+03  0.17202648685E+03 0.  0.
         24    2    3    3    0    0  0.82469036299E+02 -0.71112358207E+00 -0.69582281155E+02  0.13411349131E+03  0.79643499767E+02 0.  0.
         -6    2    1    2    0  502 -0.17654395225E+03 -0.50022860784E+02  0.42141406856E+02  0.25572940786E+03  0.17306524261E+03 0.  0.
        -24    2    5    5    0    0 -0.17410163942E+03 -0.48684404779E+02 -0.15063742317E+02  0.19826397958E+03  0.80000857165E+02 0.  0.
          5    1    3    3  501    0  0.94074915947E+02  0.50733984366E+02 -0.25486470901E+03  0.27640936467E+03  0.47000000000E+01 0. -1.
        -13    1    4    4    0    0  0.72215875112E+02 -0.10912165112E+02 -0.85605642259E+02  0.11252792521E+03  0.00000000000E+00 0.  1.
         14    1    4    4    0    0  0.10253161187E+02  0.10201041530E+02  0.16023361105E+02  0.21585566097E+02  0.00000000000E+00 0. -1.
         -5    1    5    5    0  502 -0.24423128241E+01 -0.13384560052E+01  0.57205149173E+02  0.57465428288E+02  0.47000000000E+01 0.  1.
         13    1    6    6    0    0 -0.12974354051E+03 -0.18651857386E+01  0.74013322806E+01  0.12996786118E+03  0.00000000000E+00 0. -1.
        -14    1    6    6    0    0 -0.44358098913E+02 -0.46819219040E+02 -0.22465074598E+02  0.68296118392E+02  0.00000000000E+00 0.  1.
</event>
<event>
12    1  0.8271773E-002  0.2522721E+03  0.7818608E-02  0.1112202E+00
         21   -1    0    0  501  502  0.00000000000E+00  0.00000000000E+00  0.23276081001E+03  0.23276081001E+03  0.00000000000E+00 0. -1.
         21   -1    0    0  502  503 -0.00000000000E+00 -0.00000000000E+00 -0.47870165233E+03  0.47870165233E+03  0.00000000000E+00 0.  1.
         -6    2    1    2    0  503  0.17319050539E+03  0.64301635483E+02 -0.35747649008E+03  0.43752789443E+03  0.17178930690E+03 0.  0.
        -24    2    3    3    0    0  0.42964694176E+02  0.53768960377E+02 -0.22682695482E+03  0.25270070430E+03  0.87579178306E+02 0.  0.
          6    2    1    2  501    0 -0.17319050539E+03 -0.64301635483E+02  0.11153564775E+03  0.27393456791E+03  0.16873142947E+03 0.  0.
         24    2    5    5    0    0 -0.11147322440E+03  0.24572764152E+02  0.75319189843E+02  0.15973560335E+03  0.82537156006E+02 0.  0.
          5    1    5    5  501    0 -0.61717280989E+02 -0.88874399635E+02  0.36216457911E+02  0.11419896456E+03  0.47000000000E+01 0. -1.
        -13    1    6    6    0    0 -0.10056199207E+03  0.18465966301E+02  0.21495418901E+02  0.10447851069E+03  0.00000000000E+00 0.  1.
         14    1    6    6    0    0 -0.10911232325E+02  0.61067978512E+01  0.53823770942E+02  0.55257092661E+02  0.00000000000E+00 0. -1.
         -5    1    3    3    0  503  0.13022581121E+03  0.10532675107E+02 -0.13064953526E+03  0.18482719013E+03  0.47000000000E+01 0.  1.
         11    1    4    4    0    0  0.50777115583E+02  0.97304211958E+01 -0.56437213513E+02  0.76538589174E+02  0.00000000000E+00 0. -1.
        -12    1    4    4    0    0 -0.78124214065E+01  0.44038539181E+02 -0.17038974131E+03  0.17616211513E+03  0.00000000000E+00 0.  1.
</event>
<event>
12    1  0.8271773E-002  0.1728066E+03  0.7818608E-02  0.1175775E+00
         21   -1    0    0  501  502  0.00000000000E+00  0.00000000000E+00  0.10281949429E+03  0.10281949429E+03  0.00000000000E+00 0. -1.
         21   -1    0    0  502  503 -0.00000000000E+00 -0.00000000000E+00 -0.29395096960E+03  0.29395096960E+03  0.00000000000E+00 0. -1.
         -6    2    1    2    0  503 -0.12691848701E+02 -0.44679367271E+01 -0.13086656978E+03  0.21676755008E+03  0.17228193811E+03 0.  0.
        -24    2    3    3    0    0 -0.63911070589E+02 -0.59301140566E+01 -0.36767131790E+02  0.10951858326E+03  0.80763276939E+02 0.  0.
          6    2    1    2  501    0  0.12691848701E+02  0.44679367271E+01 -0.60264905523E+02  0.18000291382E+03  0.16908029058E+03 0.  0.
         24    2    5    5    0    0 -0.39164267915E+02  0.27392844970E+02 -0.76859183246E+02  0.12074020800E+03  0.79916556111E+02 0.  0.
          5    1    5    5  501    0  0.51856116616E+02 -0.22924908243E+02  0.16594277723E+02  0.59262705823E+02  0.47000000000E+01 0. -1.
        -13    1    6    6    0    0  0.14587830871E+02 -0.31106384832E+01 -0.52045825307E+02  0.54141008609E+02  0.00000000000E+00 0.  1.
         14    1    6    6    0    0 -0.53752098786E+02  0.30503483453E+02 -0.24813357938E+02  0.66599199386E+02  0.00000000000E+00 0. -1.
         -5    1    3    3    0  503  0.51219221888E+02  0.14621773295E+01 -0.94099437994E+02  0.10724896682E+03  0.47000000000E+01 0.  1.
         13    1    4    4    0    0 -0.36222962030E+02  0.62816672242E+01 -0.60680899783E+02  0.70948811969E+02  0.00000000000E+00 0. -1.
        -14    1    4    4    0    0 -0.27688108559E+02 -0.12211781281E+02  0.23913767992E+02  0.38569771288E+02  0.00000000000E+00 0.  1.
</event>
<event>
12    1  0.8271773E-002  0.1867626E+03  0.7818608E-02  0.1161449E+00
         21   -1    0    0  501  502  0.00000000000E+00  0.00000000000E+00  0.22506136739E+03  0.22506136739E+03  0.00000000000E+00 0.  1.
         21   -1    0    0  502  503 -0.00000000000E+00 -0.00000000000E+00 -0.17785501001E+03  0.17785501001E+03  0.00000000000E+00 0.  1.
         -6    2    1    2    0  503  0.56846059507E+02 -0.44917661803E+02 -0.48831607934E+02  0.19304095094E+03  0.17213718943E+03 0.  0.
        -24    2    3    3    0    0  0.22997608206E+02  0.52774657556E+01  0.34328659813E+02  0.90070136542E+02  0.79858819075E+02 0.  0.
          6    2    1    2  501    0 -0.56846059507E+02  0.44917661803E+02  0.96037965319E+02  0.20987542646E+03  0.17197480346E+03 0.  0.
         24    2    5    5    0    0 -0.59261948507E+02  0.87846249277E+02  0.10255836093E+03  0.16613407644E+03  0.76507332369E+02 0.  0.
          5    1    5    5  501    0  0.24158890000E+01 -0.42928587474E+02 -0.65203956074E+01  0.43741350014E+02  0.47000000000E+01 0. -1.
        -11    1    6    6    0    0  0.13782128102E+02  0.42471414314E+02  0.32729976420E+02  0.55362617761E+02  0.00000000000E+00 0.  1.
         12    1    6    6    0    0 -0.73044076609E+02  0.45374834963E+02  0.69828384506E+02  0.11077145868E+03  0.00000000000E+00 0. -1.
         -5    1    3    3    0  503  0.33848451301E+02 -0.50195127558E+02 -0.83160267747E+02  0.10297081440E+03  0.47000000000E+01 0.  1.
         11    1    4    4    0    0  0.83181425255E+01  0.42115214693E+02  0.23606379919E+02  0.48991264289E+02  0.00000000000E+00 0. -1.
        -12    1    4    4    0    0  0.14679465680E+02 -0.36837748938E+02  0.10722279895E+02  0.41078872253E+02  0.00000000000E+00 0.  1.
</event>
<event>
12    1  0.8271773E-002  0.1993184E+03  0.7818608E-02  0.1151176E+00
         21   -1    0    0  501  502  0.00000000000E+00  0.00000000000E+00  0.59365350192E+03  0.59365350192E+03  0.00000000000E+00 0.  1.
         21   -1    0    0  502  503 -0.00000000000E+00 -0.00000000000E+00 -0.66354898425E+02  0.66354898425E+02  0.00000000000E+00 0. -1.
         -6    2    1    2    0  503  0.39471312712E+02 -0.90558831736E+02  0.22530816290E+03  0.29817133698E+03  0.16847400807E+03 0.  0.
        -24    2    3    3    0    0 -0.23983190072E+02 -0.21547790405E+02  0.16443001783E+03  0.18629088160E+03  0.81409834338E+02 0.  0.
          6    2    1    2  501    0 -0.39471312712E+02  0.90558831736E+02  0.30199044060E+03  0.36183706336E+03  0.17311541722E+03 0.  0.
         24    2    5    5    0    0  0.15370762324E+02  0.76512877900E+00  0.45022581643E+02  0.84122942693E+02  0.69374281063E+02 0.  0.
          5    1    5    5  501    0 -0.54842075036E+02  0.89793702957E+02  0.25696785895E+03  0.27771412067E+03  0.47000000000E+01 0. -1.
        -11    1    6    6    0    0  0.33970576413E+02  0.52727875863E+01  0.53175807481E+02  0.63320366803E+02  0.00000000000E+00 0.  1.
         12    1    6    6    0    0 -0.18599814089E+02 -0.45076588073E+01 -0.81532258384E+01  0.20802575890E+02  0.00000000000E+00 0. -1.
         -5    1    3    3    0  503  0.63454502784E+02 -0.69011041331E+02  0.60878145070E+02  0.11188045538E+03  0.47000000000E+01 0.  1.
         13    1    4    4    0    0 -0.68900268195E+01 -0.34613489567E+02  0.20608489234E+02  0.40869009752E+02  0.00000000000E+00 0. -1.
        -14    1    4    4    0    0 -0.17093163253E+02  0.13065699162E+02  0.14382152859E+03  0.14542187185E+03  0.00000000000E+00 0.  1.
</event>
<event>
12    1  0.8271773E-002  0.2255348E+03  0.7818608E-02  0.1132613E+00
         21   -1    0    0  501  502  0.00000000000E+00  0.00000000000E+00  0.23544698501E+03  0.23544698501E+03  0.00000000000E+00 0. -1.
         21   -1    0    0  502  503 -0.00000000000E+00 -0.00000000000E+00 -0.31607628214E+03  0.31607628214E+03  0.00000000000E+00 0. -1.
         -6    2    1    2    0  503 -0.82162061512E+02  0.89993861903E+02 -0.20680067736E+03  0.30599420748E+03  0.18977996554E+03 0.  0.
        -24    2    3    3    0    0 -0.34095580923E+02 -0.10629536137E+02 -0.16482569914E+03  0.18674889903E+03  0.80200651591E+02 0.  0.
          6    2    1    2  501    0  0.82162061512E+02 -0.89993861903E+02  0.12617138024E+03  0.24552905967E+03  0.17180163684E+03 0.  0.
         24    2    5    5    0    0 -0.23735585979E+02 -0.44510104234E+02  0.63548591579E+02  0.11427820209E+03  0.80477056115E+02 0.  0.
          5    1    5    5  501    0  0.10589764749E+03 -0.45483757670E+02  0.62622788662E+02  0.13125085758E+03  0.47000000000E+01 0. -1.
        -13    1    6    6    0    0 -0.29202252484E+02 -0.28169979487E+01  0.65927982512E+02  0.72160972178E+02  0.00000000000E+00 0.  1.
         14    1    6    6    0    0  0.54666665051E+01 -0.41693106285E+02 -0.23793909329E+01  0.42117229914E+02  0.00000000000E+00 0. -1.
         -5    1    3    3    0  503 -0.48066480589E+02  0.10062339804E+03 -0.41974978224E+02  0.11924530845E+03  0.47000000000E+01 0.  1.
         11    1    4    4    0    0 -0.53107829794E+02  0.15542247133E+02 -0.99469516556E+02  0.11382525096E+03  0.00000000000E+00 0. -1.
        -12    1    4    4    0    0  0.19012248871E+02 -0.26171783270E+02 -0.65356182585E+02  0.72923648076E+02  0.00000000000E+00 0.  1.
</event>
<event>
12    1  0.8271773E-002  0.2389748E+03  0.7818608E-02  0.1120574E+00
         21   -1    0    0  501  502  0.00000000000E+00  0.00000000000E+00  0.67926210504E+02  0.67926210504E+02  0.00000000000E+00 0.  1.
         21   -1    0    0  502  503 -0.00000000000E+00 -0.00000000000E+00 -0.84179971022E+03  0.84179971022E+03  0.00000000000E+00 0.  1.
         -6    2    1    2    0  503  0.27609725130E+02  0.16337222988E+03 -0.41397880847E+03  0.47771536031E+03  0.17140807798E+03 0.  0.
        -24    2    3    3    0    0  0.82550673356E+02  0.12064614437E+03 -0.26192999626E+03  0.31042830920E+03  0.79926881513E+02 0.  0.
          6    2    1    2  501    0 -0.27609725130E+02 -0.16337222988E+03 -0.35989469125E+03  0.43201056041E+03  0.17220961966E+03 0.  0.
         24    2    5    5    0    0 -0.84356517041E+02 -0.10785506374E+03 -0.24891802355E+03  0.29548120495E+03  0.81241758306E+02 0.  0.
          5    1    5    5  501    0  0.56746791911E+02 -0.55517166147E+02 -0.11097666770E+03  0.13652935546E+03  0.47000000000E+01 0. -1.
        -13    1    6    6    0    0 -0.18859718374E+02 -0.87997658804E+02 -0.15566844491E+03  0.17981084971E+03  0.00000000000E+00 0.  1.
         14    1    6    6    0    0 -0.65496798667E+02 -0.19857404932E+02 -0.93249578636E+02  0.11567035524E+03  0.00000000000E+00 0. -1.
         -5    1    3    3    0  503 -0.54940948226E+02  0.42726085517E+02 -0.15204881221E+03  0.16728705111E+03  0.47000000000E+01 0.  1.
         13    1    4    4    0    0  0.68994878279E+02  0.33639413207E+02 -0.99519591877E+02  0.12568234767E+03  0.00000000000E+00 0. -1.
        -14    1    4    4    0    0  0.13555795078E+02  0.87006731159E+02 -0.16241040438E+03  0.18474596152E+03  0.00000000000E+00 0.  1.
</event>
<event>
12    1  0.8271773E-002  0.2183281E+03  0.7818608E-02  0.1135302E+00
         21   -1    0    0  501  502  0.00000000000E+00  0.00000000000E+00  0.11052045291E+04  0.11052045291E+04  0.00000000000E+00 0. -1.
         21   -1    0    0  502  503 -0.00000000000E+00 -0.00000000000E+00 -0.14263493261E+03  0.14263493261E+03  0.00000000000E+00 0. -1.
         -6    2    1    2    0  503 -0.45120284871E+02 -0.12570138106E+03 -0.40582856320E+02  0.22120319711E+03  0.17160189065E+03 0.  0.
        -24    2    3    3    0    0 -0.57391904590E+02 -0.19811443671E+02 -0.55579946074E+02  0.11345221478E+03  0.78076568961E+02 0.  0.
          6    2    1    2  501    0  0.45120284871E+02  0.12570138106E+03  0.10031524528E+04  0.10266362646E+04  0.17271508012E+03 0.  0.
         24    2    5    5    0    0 -0.46060729220E+00 -0.16889848870E+01  0.30479103786E+03  0.31527371360E+03  0.80603181700E+02 0.  0.
          5    1    5    5  501    0  0.45580892163E+02  0.12739036595E+03  0.69836141494E+03  0.71136255099E+03  0.47000000000E+01 0. -1.
        -11    1    6    6    0    0  0.46312380815E+01 -0.40687412884E+02  0.16996051105E+03  0.17482416666E+03  0.00000000000E+00 0.  1.
         12    1    6    6    0    0 -0.50918453737E+01  0.38998427997E+02  0.13483052681E+03  0.14044954694E+03  0.00000000000E+00 0. -1.
         -5    1    3    3    0  503  0.12271619719E+02 -0.10588993739E+03  0.14997089754E+02  0.10775098232E+03  0.47000000000E+01 0.  1.
         11    1    4    4    0    0 -0.31544247674E+02 -0.49097986271E+02 -0.42737996373E+02  0.72333865867E+02  0.00000000000E+00 0. -1.
        -12    1    4    4    0    0 -0.25847656916E+02  0.29286542600E+02 -0.12841949700E+02  0.41118348916E+02  0.00000000000E+00 0.  1.
</event>
<event>
12    1  0.8271773E-002  0.2465700E+03  0.7818608E-02  0.1115905E+00
         21   -1    0    0  501  502  0.00000000000E+00  0.00000000000E+00  0.13619742969E+03  0.13619742969E+03  0.00000000000E+00 0.  1.
         21   -1    0    0  502  503 -0.00000000000E+00 -0.00000000000E+00 -0.96925966730E+03  0.96925966730E+03  0.00000000000E+00 0. -1.
         -6    2    1    2    0  503 -0.13041534624E+03 -0.11601372489E+03 -0.82526755843E+03  0.86131488450E+03  0.17415349658E+03 0.  0.
        -24    2    3    3    0    0 -0.15822507127E+03 -0.85635185912E+02 -0.74835408660E+03  0.77394207073E+03  0.81141430120E+02 0.  0.
          6    2    1    2  501    0  0.13041534624E+03  0.11601372489E+03 -0.77946791804E+01  0.24414221249E+03  0.17052072014E+03 0.  0.
         24    2    5    5    0    0  0.12289825512E+03  0.73363630772E+02  0.50645012296E+02  0.17125308623E+03  0.79224357625E+02 0.  0.
          5    1    5    5  501    0  0.75170911242E+01  0.42650094119E+02 -0.58439691476E+02  0.72889126261E+02  0.47000000000E+01 0. -1.
        -11    1    6    6    0    0  0.26275105544E+02  0.46680881494E+01  0.45302638269E+02  0.52578524632E+02  0.00000000000E+00 0.  1.
         12    1    6    6    0    0  0.96623149574E+02  0.68695542622E+02  0.53423740265E+01  0.11867456160E+03  0.00000000000E+00 0. -1.
         -5    1    3    3    0  503  0.27809725027E+02 -0.30378538979E+02 -0.76913471833E+02  0.87372813769E+02  0.47000000000E+01 0.  1.
         11    1    4    4    0    0 -0.12783413617E+03 -0.81876404707E+02 -0.46999020184E+03  0.49389887816E+03  0.00000000000E+00 0. -1.
        -12    1    4    4    0    0 -0.30390935096E+02 -0.37587812052E+01 -0.27836388476E+03  0.28004319258E+03  0.00000000000E+00 0.  1.
</event>
<event>
12    1  0.8271773E-002  0.1798385E+03  0.7818608E-02  0.1168404E+00
         21   -1    0    0  503  502  0.00000000000E+00  0.00000000000E+00  0.34109872986E+03  0.34109872986E+03  0.00000000000E+00 0.  1.
         21   -1    0    0  501  503 -0.00000000000E+00 -0.00000000000E+00 -0.94547387663E+02  0.94547387663E+02  0.00000000000E+00 0.  1.
          6    2    1    2  501    0 -0.12654384776E+02  0.39289078026E+02  0.10403564861E+03  0.20618457073E+03  0.17316147355E+03 0.  0.
         24    2    3    3    0    0 -0.49485601021E+02  0.25702522358E+01  0.52393753659E+01  0.94436621025E+02  0.80220903955E+02 0.  0.
         -6    2    1    2    0  502  0.12654384776E+02 -0.39289078026E+02  0.14251569358E+03  0.22946154678E+03  0.17503746293E+03 0.  0.
        -24    2    5    5    0    0 -0.46490287178E+02 -0.43777353067E+02  0.94917935708E+02  0.15326526480E+03  0.10199521279E+03 0.  0.
          5    1    3    3  501    0  0.36831216245E+02  0.36718825790E+02  0.98796273244E+02  0.11174794971E+03  0.47000000000E+01 0. -1.
        -13    1    4    4    0    0  0.14751099949E+02 -0.20794690366E+02  0.55010003462E+01  0.26082083926E+02  0.00000000000E+00 0.  1.
         14    1    4    4    0    0 -0.64236700971E+02  0.23364942601E+02 -0.26162498022E+00  0.68354537099E+02  0.00000000000E+00 0. -1.
         -5    1    5    5    0  502  0.59144671955E+02  0.44882750418E+01  0.47597757876E+02  0.76196281984E+02  0.47000000000E+01 0.  1.
         11    1    6    6    0    0 -0.97939353366E+01 -0.13319314734E+02 -0.21695737552E+02  0.27276919590E+02  0.00000000000E+00 0. -1.
        -12    1    6    6    0    0 -0.36696351842E+02 -0.30458038333E+02  0.11661367326E+03  0.12598834521E+03  0.00000000000E+00 0.  1.
</event>
<event>
12    1  0.8271773E-002  0.2820055E+03  0.7818608E-02  0.1094729E+00
         21   -1    0    0  501  502  0.00000000000E+00  0.00000000000E+00  0.29578112159E+03  0.29578112159E+03  0.00000000000E+00 0.  1.
         21   -1    0    0  502  503 -0.00000000000E+00 -0.00000000000E+00 -0.74135061639E+03  0.74135061639E+03  0.00000000000E+00 0.  1.
         -6    2    1    2    0  503 -0.40197612294E+02 -0.21880994408E+03 -0.63703273055E+03  0.69627210131E+03  0.17172798142E+03 0.  0.
        -24    2    3    3    0    0 -0.51506640246E+02 -0.46632340843E+02 -0.20216252883E+03  0.22839690052E+03  0.80423546928E+02 0.  0.
          6    2    1    2  501    0  0.40197612294E+02  0.21880994408E+03  0.19146323575E+03  0.34085963668E+03  0.17330170688E+03 0.  0.
         24    2    5    5    0    0 -0.32694848775E+02  0.17147914112E+03  0.10861995886E+03  0.22069885141E+03  0.80222431882E+02 0.  0.
          5    1    5    5  501    0  0.72892461069E+02  0.47330802967E+02  0.82843276893E+02  0.12016078527E+03  0.47000000000E+01 0. -1.
        -11    1    6    6    0    0 -0.20495987141E+02  0.15110323603E+03  0.12030558579E+03  0.19423106703E+03  0.00000000000E+00 0.  1.
         12    1    6    6    0    0 -0.12198861634E+02  0.20375905085E+02 -0.11685626931E+02  0.26467784379E+02  0.00000000000E+00 0. -1.
         -5    1    3    3    0  503  0.11309027952E+02 -0.17217760324E+03 -0.43487020172E+03  0.46787520079E+03  0.47000000000E+01 0.  1.
         11    1    4    4    0    0 -0.78757723478E+01 -0.18904901285E+01  0.66208067693E+01  0.10461205728E+02  0.00000000000E+00 0. -1.
        -12    1    4    4    0    0 -0.43630867898E+02 -0.44741850715E+02 -0.20878333560E+03  0.21793569479E+03  0.00000000000E+00 0.  1.
</event>
<event>
12    1  0.8271773E-002  0.2209311E+03  0.7818608E-02  0.1133725E+00
         21   -1    0    0  501  502  0.00000000000E+00  0.00000000000E+00  0.52138062861E+03  0.52138062861E+03  0.00000000000E+00 0.  1.
         21   -1    0    0  502  503 -0.00000000000E+00 -0.00000000000E+00 -0.12746814810E+03  0.12746814810E+03  0.00000000000E+00 0.  1.
         -6    2    1    2    0  503 -0.66776029133E+02 -0.11983214061E+03  0.27746502882E+02  0.22266658204E+03  0.17318128752E+03 0.  0.
        -24    2    3    3    0    0  0.28041302444E+02 -0.76618097065E+02 -0.27260999469E+01  0.11399989234E+03  0.79573214042E+02 0.  0.
          6    2    1    2  501    0  0.66776029133E+02  0.11983214061E+03  0.36616597763E+03  0.42618219466E+03  0.16951389291E+03 0.  0.
         24    2    5    5    0    0  0.10792843880E+03  0.11233693531E+03  0.31203021881E+03  0.35760764176E+03  0.79071063321E+02 0.  0.
          5    1    5    5  501    0 -0.41152409667E+02  0.74952052948E+01  0.54135758816E+02  0.68574552907E+02  0.47000000000E+01 0. -1.
        -11    1    6    6    0    0  0.62657226626E+02  0.11098462268E+03  0.25213015036E+03  0.28251217184E+03  0.00000000000E+00 0.  1.
         12    1    6    6    0    0  0.45271212174E+02  0.13523126359E+01  0.59900068453E+02  0.75095469916E+02  0.00000000000E+00 0. -1.
         -5    1    3    3    0  503 -0.94817331577E+02 -0.43214043541E+02  0.30472602829E+02  0.10866668970E+03  0.47000000000E+01 0.  1.
         13    1    4    4    0    0  0.25221452778E+02 -0.47054771734E+02  0.36593634560E+02  0.64725322043E+02  0.00000000000E+00 0. -1.
        -14    1    4    4    0    0  0.28198496662E+01 -0.29563325330E+02 -0.39319734507E+02  0.49274570302E+02  0.00000000000E+00 0.  1.
</event>
<event>
12    1  0.8271773E-002  0.2170127E+03  0.7818608E-02  0.1138160E+00
         21   -1    0    0  501  502  0.00000000000E+00  0.00000000000E+00  0.76728442977E+02  0.76728442977E+02  0.00000000000E+00 0. -1.
         21   -1    0    0  502  503 -0.00000000000E+00 -0.00000000000E+00 -0.59150843265E+03  0.59150843265E+03  0.00000000000E+00 0. -1.
         -6    2    1    2    0  503  0.89006900209E+02 -0.72071659923E+02 -0.28707010679E+03  0.35367955615E+03  0.17194019245E+03 0.  0.
        -24    2    3    3    0    0  0.10712392297E+03 -0.98176936585E+02 -0.19474788385E+03  0.25592887926E+03  0.80365460423E+02 0.  0.
          6    2    1    2  501    0 -0.89006900209E+02  0.72071659923E+02 -0.22770988289E+03  0.31455731948E+03  0.18433112603E+03 0.  0.
         24    2    5    5    0    0  0.19228555347E+02  0.97744453814E+01 -0.13722732723E+03  0.16026850051E+03  0.79933571144E+02 0.  0.
          5    1    5    5  501    0 -0.10823545556E+03  0.62297214542E+02 -0.90482555662E+02  0.15428881897E+03  0.47000000000E+01 0. -1.
        -11    1    6    6    0    0  0.21816757304E+02  0.18723805051E+02 -0.68445702887E+01  0.29553340205E+02  0.00000000000E+00 0.  1.
         12    1    6    6    0    0 -0.25882019568E+01 -0.89493596691E+01 -0.13038275694E+03  0.13071516031E+03  0.00000000000E+00 0. -1.
         -5    1    3    3    0  503 -0.18117022756E+02  0.26105276662E+02 -0.92322222938E+02  0.97750676885E+02  0.47000000000E+01 0.  1.
         11    1    4    4    0    0  0.52150338059E+02 -0.87570042887E+02 -0.84958604313E+02  0.13268811031E+03  0.00000000000E+00 0. -1.
        -12    1    4    4    0    0  0.54973584907E+02 -0.10606893699E+02 -0.10978927953E+03  0.12324076895E+03  0.00000000000E+00 0.  1.
</event>
<event>
12    1  0.8271773E-002  0.2230985E+03  0.7818608E-02  0.1131789E+00
         21   -1    0    0  503  502  0.00000000000E+00  0.00000000000E+00  0.73520359440E+02  0.73520359440E+02  0.00000000000E+00 0.  1.
         21   -1    0    0  501  503 -0.00000000000E+00 -0.00000000000E+00 -0.75020424628E+03  0.75020424628E+03  0.00000000000E+00 0. -1.
          6    2    1    2  501    0 -0.51713151444E+02  0.13116018073E+03 -0.46907819500E+03  0.51897378315E+03  0.17152898162E+03 0.  0.
         24    2    3    3    0    0 -0.73764965574E+02  0.63295737228E+02 -0.40116328967E+03  0.42035132342E+03  0.79470935717E+02 0.  0.
         -6    2    1    2    0  502  0.51713151444E+02 -0.13116018073E+03 -0.20760569184E+03  0.30475082257E+03  0.17290372330E+03 0.  0.
        -24    2    5    5    0    0  0.81832602691E+02 -0.12483169746E+03 -0.21371822462E+03  0.27302253707E+03  0.81156014302E+02 0.  0.
          5    1    3    3  501    0  0.22051814130E+02  0.67864443501E+02 -0.67914905333E+02  0.98622459736E+02  0.47000000000E+01 0. -1.
        -11    1    4    4    0    0 -0.32752328592E+02 -0.18087619808E+01 -0.43370302205E+02  0.54378026458E+02  0.00000000000E+00 0.  1.
         12    1    4    4    0    0 -0.41012636982E+02  0.65104499208E+02 -0.35779298746E+03  0.36597329696E+03  0.00000000000E+00 0. -1.
         -5    1    5    5    0  502 -0.30119451247E+02 -0.63284832674E+01  0.61125327797E+01  0.31728285502E+02  0.47000000000E+01 0.  1.
         11    1    6    6    0    0  0.10763631555E+02 -0.23804758205E+02 -0.10586903257E+03  0.10904482718E+03  0.00000000000E+00 0. -1.
        -12    1    6    6    0    0  0.71068971136E+02 -0.10102693926E+03 -0.10784919205E+03  0.16397770989E+03  0.00000000000E+00 0.  1.
</event>
<event>
12    1  0.8271773E-002  0.2459566E+03  0.7818608E-02  0.1115916E+00
         21   -1    0    0  503  502  0.00000000000E+00  0.00000000000E+00  0.68011610403E+03  0.68011610403E+03  0.00000000000E+00 0.  1.
         21   -1    0    0  501  503 -0.00000000000E+00 -0.00000000000E+00 -0.89002336507E+02  0.89002336507E+02  0.00000000000E+00 0. -1.
          6    2    1    2  501    0 -0.38247228651E+02  0.17028962857E+03  0.30974045775E+03  0.39551714775E+03  0.17330105278E+03 0.  0.
         24    2    3    3    0    0 -0.62956962157E+02  0.12384722429E+03  0.11083172224E+03  0.18971568296E+03  0.66382645757E+02 0.  0.
         -6    2    1    2    0  502  0.38247228651E+02 -0.17028962857E+03  0.28137330978E+03  0.37360129280E+03  0.17304790790E+03 0.  0.
        -24    2    5    5    0    0 -0.44002220509E+02 -0.10657470947E+03  0.14318474077E+03  0.20056160543E+03  0.80179320723E+02 0.  0.
          5    1    3    3  501    0  0.24709733507E+02  0.46442404275E+02  0.19890873551E+03  0.20580146478E+03  0.47000000000E+01 0. -1.
        -11    1    4    4    0    0 -0.53958145121E+02  0.92929568207E+02  0.11482940290E+03  0.15726785381E+03  0.00000000000E+00 0.  1.
         12    1    4    4    0    0 -0.89988170357E+01  0.30917656086E+02 -0.39976806596E+01  0.32447829150E+02  0.00000000000E+00 0. -1.
         -5    1    5    5    0  502  0.82249449159E+02 -0.63714919094E+02  0.13818856900E+03  0.17303968737E+03  0.47000000000E+01 0.  1.
         13    1    6    6    0    0 -0.92276136435E+01 -0.58392895208E+02  0.17685489812E+02  0.61706204017E+02  0.00000000000E+00 0. -1.
        -14    1    6    6    0    0 -0.34774606865E+02 -0.48181814266E+02  0.12549925096E+03  0.13885540141E+03  0.00000000000E+00 0.  1.
</event>
<event>
12    1  0.8271773E-002  0.2104849E+03  0.7818608E-02  0.1141217E+00
         21   -1    0    0  503  502  0.00000000000E+00  0.00000000000E+00  0.61899559257E+02  0.61899559257E+02  0.00000000000E+00 0. -1.
         21   -1    0    0  501  503 -0.00000000000E+00 -0.00000000000E+00 -0.72660979608E+03  0.72660979608E+03  0.00000000000E+00 0. -1.
          6    2    1    2  501    0 -0.11836095588E+03  0.27186502682E+02 -0.38199644755E+03  0.43614813122E+03  0.17191708647E+03 0.  0.
         24    2    3    3    0    0 -0.14743174142E+03  0.47641602098E+02 -0.24501184935E+03  0.29454872512E+03  0.52175708136E+02 0.  0.
         -6    2    1    2    0  502  0.11836095588E+03 -0.27186502682E+02 -0.28271378928E+03  0.35236122413E+03  0.17170592247E+03 0.  0.
        -24    2    5    5    0    0  0.68816794958E+02  0.34106676717E+02 -0.85792711493E+02  0.14020213617E+03  0.79982704240E+02 0.  0.
          5    1    3    3  501    0  0.29070785540E+02 -0.20455099415E+02 -0.13698459819E+03  0.14159940610E+03  0.47000000000E+01 0. -1.
        -13    1    4    4    0    0 -0.31541581153E+02 -0.11124425813E+02 -0.46022254865E+02  0.56891758052E+02  0.00000000000E+00 0.  1.
         14    1    4    4    0    0 -0.11589016027E+03  0.58766027911E+02 -0.19898959449E+03  0.23765696707E+03  0.00000000000E+00 0. -1.
         -5    1    5    5    0  502  0.49544160924E+02 -0.61293179400E+02 -0.19692107779E+03  0.21215908795E+03  0.47000000000E+01 0.  1.
         11    1    6    6    0    0  0.35061855147E+02  0.47104389411E+01  0.80053783493E+01  0.36271311031E+02  0.00000000000E+00 0. -1.
        -12    1    6    6    0    0  0.33754939811E+02  0.29396237776E+02 -0.93798089842E+02  0.10393082514E+03  0.00000000000E+00 0.  1.
</event>
<event>
12    1  0.8271773E-002  0.2715402E+03  0.7818608E-02  0.1100474E+00
         21   -1    0    0  501  502  0.00000000000E+00  0.00000000000E+00  0.36988610826E+03  0.36988610826E+03  0.00000000000E+00 0.  1.
         21   -1    0    0  502  503 -0.00000000000E+00 -0.00000000000E+00 -0.19960593340E+03  0.19960593340E+03  0.00000000000E+00 0. -1.
         -6    2    1    2    0  503  0.15192221227E+03  0.14517747447E+03  0.10129328138E+03  0.28981788080E+03  0.17198028230E+03 0.  0.
        -24    2    3    3    0    0  0.46096516398E+02  0.69514952251E+02 -0.13148180211E+02  0.11648919504E+03  0.80247370714E+02 0.  0.
          6    2    1    2  501    0 -0.15192221227E+03 -0.14517747447E+03  0.68986893470E+02  0.27967416086E+03  0.17117706361E+03 0.  0.
         24    2    5    5    0    0 -0.10207966129E+02 -0.77164265677E+02  0.36535590604E+02  0.11910049805E+03  0.82410877834E+02 0.  0.
          5    1    5    5  501    0 -0.14171424614E+03 -0.68013208798E+02  0.32451302867E+02  0.16057366281E+03  0.47000000000E+01 0. -1.
        -11    1    6    6    0    0 -0.15899081698E+02 -0.47821278142E+02  0.61955408452E+02  0.79863183498E+02  0.00000000000E+00 0.  1.
         12    1    6    6    0    0  0.56911155687E+01 -0.29342987535E+02 -0.25419817849E+02  0.39237314553E+02  0.00000000000E+00 0. -1.
         -5    1    3    3    0  503  0.10582569588E+03  0.75662522224E+02  0.11444146159E+03  0.17332868576E+03  0.47000000000E+01 0.  1.
         13    1    4    4    0    0  0.27128700671E+02 -0.48906861195E+01 -0.26861155868E+02  0.38489049162E+02  0.00000000000E+00 0. -1.
        -14    1    4    4    0    0  0.18967815727E+02  0.74405638371E+02  0.13712975658E+02  0.78000145873E+02  0.00000000000E+00 0.  1.
</event>
<event>
12    1  0.8271773E-002  0.2188268E+03  0.7818608E-02  0.1134817E+00
         21   -1    0    0  503  502  0.00000000000E+00  0.00000000000E+00  0.20335297297E+03  0.20335297297E+03  0.00000000000E+00 0. -1.
         21   -1    0    0  501  503 -0.00000000000E+00 -0.00000000000E+00 -0.30402430437E+03  0.30402430437E+03  0.00000000000E+00 0. -1.
          6    2    1    2  501    0  0.57049409536E+01  0.13425646555E+03 -0.17110154186E+03  0.27777850321E+03  0.17270730825E+03 0.  0.
         24    2    3    3    0    0  0.32357937472E+02  0.13411630226E+03 -0.66932556982E+02  0.17015104723E+03  0.73737324611E+02 0.  0.
         -6    2    1    2    0  502 -0.57049409536E+01 -0.13425646555E+03  0.70430210465E+02  0.22959877413E+03  0.17233060564E+03 0.  0.
        -24    2    5    5    0    0 -0.68539919604E+02 -0.10375199146E+03  0.48389362311E+02  0.15620499735E+03  0.81217451954E+02 0.  0.
          5    1    3    3  501    0 -0.26652996519E+02  0.14016329205E+00 -0.10416898488E+03  0.10762745598E+03  0.47000000000E+01 0. -1.
        -11    1    4    4    0    0  0.15817512872E+02  0.31275921653E+02 -0.55123004463E+02  0.65321685601E+02  0.00000000000E+00 0.  1.
         12    1    4    4    0    0  0.16540424600E+02  0.10284038061E+03 -0.11809552519E+02  0.10482936163E+03  0.00000000000E+00 0. -1.
         -5    1    5    5    0  502  0.62834978651E+02 -0.30504474092E+02  0.22040848154E+02  0.73393776773E+02  0.47000000000E+01 0.  1.
         13    1    6    6    0    0 -0.57578231883E+02 -0.79389842423E+02 -0.31842354611E+01  0.98123082005E+02  0.00000000000E+00 0. -1.
        -14    1    6    6    0    0 -0.10961687721E+02 -0.24362149040E+02  0.51573597772E+02  0.58081915350E+02  0.00000000000E+00 0.  1.
</event>
<event>
12    1  0.8271773E-002  0.2164181E+03  0.7818608E-02  0.1136744E+00
         21   -1    0    0  501  502  0.00000000000E+00  0.00000000000E+00  0.25147012279E+03  0.25147012279E+03  0.00000000000E+00 0. -1.
         21   -1    0    0  502  503 -0.00000000000E+00 -0.00000000000E+00 -0.22584759039E+03  0.22584759039E+03  0.00000000000E+00 0. -1.
         -6    2    1    2    0  503 -0.92140896605E+02  0.91671206504E+02 -0.88053789543E+02  0.23286100741E+03  0.17198030117E+03 0.  0.
        -24    2    3    3    0    0  0.70333065645E+01  0.50194012663E+02  0.18158966922E+01  0.92666390226E+02  0.77555503276E+02 0.  0.
          6    2    1    2  501    0  0.92140896605E+02 -0.91671206504E+02  0.11367632194E+03  0.24445670577E+03  0.17304109309E+03 0.  0.
         24    2    5    5    0    0  0.21040680024E+02 -0.39228554342E+02 -0.12628389110E+02  0.90247618500E+02  0.77482686723E+02 0.  0.
          5    1    5    5  501    0  0.71100216582E+02 -0.52442652162E+02  0.12630471105E+03  0.15420908727E+03  0.47000000000E+01 0. -1.
        -11    1    6    6    0    0 -0.20620925569E+02  0.68311092282E+01 -0.17578541631E+02  0.27944440422E+02  0.00000000000E+00 0.  1.
         12    1    6    6    0    0  0.41661605593E+02 -0.46059663570E+02  0.49501525205E+01  0.62303178079E+02  0.00000000000E+00 0. -1.
         -5    1    3    3    0  503 -0.99174203170E+02  0.41477193841E+02 -0.89869686235E+02  0.14019461718E+03  0.47000000000E+01 0.  1.
         11    1    4    4    0    0 -0.29218908581E+01 -0.50230650179E+00 -0.31208436190E+02  0.31348943322E+02  0.00000000000E+00 0. -1.
        -12    1    4    4    0    0  0.99551974227E+01  0.50696319165E+02  0.33024332882E+02  0.61317446904E+02  0.00000000000E+00 0.  1.
</event>
<event>
12    1  0.8271773E-002  0.2422113E+03  0.7818608E-02  0.1118332E+00
         21   -1    0    0  501  502  0.00000000000E+00  0.00000000000E+00  0.14864701785E+04  0.14864701785E+04  0.00000000000E+00 0. -1.
         21   -1    0    0  502  503 -0.00000000000E+00 -0.00000000000E+00 -0.95954671499E+02  0.95954671499E+02  0.00000000000E+00 0.  1.
         -6    2    1    2    0  503  0.15945516027E+03  0.59985981886E+02  0.88182728555E+02  0.25776440401E+03  0.17216860399E+03 0.  0.
        -24    2    3    3    0    0  0.96363521933E+02  0.18716798073E+02 -0.17377328076E+02  0.12796180035E+03  0.80224708963E+02 0.  0.
          6    2    1    2  501    0 -0.15945516027E+03 -0.59985981886E+02  0.13023327785E+04  0.13246604460E+04  0.17213472981E+03 0.  0.
         24    2    5    5    0    0 -0.69966774967E+01 -0.61343206919E+01  0.44073345108E+03  0.44800824512E+03  0.79867574191E+02 0.  0.
          5    1    5    5  501    0 -0.15245848277E+03 -0.53851661194E+02  0.86159932738E+03  0.87665220089E+03  0.47000000000E+01 0. -1.
        -11    1    6    6    0    0  0.52283488974E+01 -0.23851841743E+02  0.40861279874E+03  0.40934174632E+03  0.00000000000E+00 0.  1.
         12    1    6    6    0    0 -0.12225026394E+02  0.17717521051E+02  0.32120652338E+02  0.38666498796E+02  0.00000000000E+00 0. -1.
         -5    1    3    3    0  503  0.63091638334E+02  0.41269183813E+02  0.10556005663E+03  0.12980260366E+03  0.47000000000E+01 0.  1.
         13    1    4    4    0    0  0.73351502270E+02 -0.14418774509E+02  0.14985743554E+02  0.76242484571E+02  0.00000000000E+00 0. -1.
        -14    1    4    4    0    0  0.23012019662E+02  0.33135572582E+02 -0.32363071630E+02  0.51719315778E+02  0.00000000000E+00 0.  1.
</event>
<event>
12    1  0.8271773E-002  0.1891986E+03  0.7818608E-02  0.1160578E+00
         21   -1    0    0  503  502  0.00000000000E+00  0.00000000000E+00  0.13782797128E+04  0.13782797128E+04  0.00000000000E+00 0. -1.
         21   -1    0    0  501  503 -0.00000000000E+00 -0.00000000000E+00 -0.26273511362E+02  0.26273511362E+02  0.00000000000E+00 0. -1.
          6    2    1    2  501    0 -0.30037564358E+02 -0.33617736297E+02  0.52031153317E+03  0.55161001313E+03  0.17753058206E+03 0.  0.
         24    2    3    3    0    0  0.21801703236E+02  0.39733292425E+02  0.18916825061E+03  0.20846915770E+03  0.74971420436E+02 0.  0.
         -6    2    1    2    0  502  0.30037564358E+02  0.33617736297E+02  0.83169466823E+03  0.85294321099E+03  0.18374899335E+03 0.  0.
        -24    2    5    5    0    0  0.37635857523E+02  0.11466061729E+02  0.18321525730E+03  0.20402405798E+03  0.80684926634E+02 0.  0.
          5    1    3    3  501    0 -0.51839267594E+02 -0.73351028722E+02  0.33114328256E+03  0.34314085543E+03  0.47000000000E+01 0. -1.
        -11    1    4    4    0    0  0.36826255435E+02  0.23513671862E+02  0.17877890415E+03  0.18404065427E+03  0.00000000000E+00 0.  1.
         12    1    4    4    0    0 -0.15024552199E+02  0.16219620563E+02  0.10389346456E+02  0.24428503429E+02  0.00000000000E+00 0. -1.
         -5    1    5    5    0  502 -0.75982931647E+01  0.22151674568E+02  0.64847941093E+03  0.64891915301E+03  0.47000000000E+01 0.  1.
         13    1    6    6    0    0  0.30175691857E+01  0.27575432123E+02  0.15255004300E+03  0.15505168751E+03  0.00000000000E+00 0. -1.
        -14    1    6    6    0    0  0.34618288337E+02 -0.16109370394E+02  0.30665214302E+02  0.48972370477E+02  0.00000000000E+00 0.  1.
</event>
<event>
12    1  0.8271773E-002  0.2178546E+03  0.7818608E-02  0.1135736E+00
         21   -1    0    0  503  502  0.00000000000E+00  0.00000000000E+00  0.78887560874E+02  0.78887560874E+02  0.00000000000E+00 0.  1.
         21   -1    0    0  501  503 -0.00000000000E+00 -0.00000000000E+00 -0.59902149777E+03  0.59902149777E+03  0.00000000000E+00 0. -1.
          6    2    1    2  501    0 -0.12841285728E+03  0.27821662364E+02 -0.27428322011E+03  0.35027403253E+03  0.17377199492E+03 0.  0.
         24    2    3    3    0    0 -0.11352815575E+02  0.54512666075E+02 -0.11856810486E+03  0.15358964027E+03  0.80192673746E+02 0.  0.
         -6    2    1    2    0  502  0.12841285728E+03 -0.27821662364E+02 -0.24585071678E+03  0.32763502611E+03  0.17215756905E+03 0.  0.
        -24    2    5    5    0    0  0.16166857942E+03 -0.16888565813E+02 -0.19719250085E+03  0.26750859571E+03  0.79082318870E+02 0.  0.
          5    1    3    3  501    0 -0.11706004170E+03 -0.26691003712E+02 -0.15571511525E+03  0.19668439226E+03  0.47000000000E+01 0. -1.
        -13    1    4    4    0    0 -0.16673334033E+02  0.47130999465E+02 -0.18806044301E+02  0.53413467221E+02  0.00000000000E+00 0.  1.
         14    1    4    4    0    0  0.53205184580E+01  0.73816666105E+01 -0.99762060563E+02  0.10017617305E+03  0.00000000000E+00 0. -1.
         -5    1    5    5    0  502 -0.33255722145E+02 -0.10933096550E+02 -0.48658215928E+02  0.60126430402E+02  0.47000000000E+01 0.  1.
         13    1    6    6    0    0  0.63037202891E+02 -0.44749034890E+02 -0.71240368147E+02  0.10512542569E+03  0.00000000000E+00 0. -1.
        -14    1    6    6    0    0  0.98631376532E+02  0.27860469076E+02 -0.12595213271E+03  0.16238317003E+03  0.00000000000E+00 0.  1.
</event>
<event>
12    1  0.8271773E-002  0.2325895E+03  0.7818608E-02  0.1125960E+00
         21   -1    0    0  503  502  0.00000000000E+00  0.00000000000E+00  0.23110158610E+03  0.23110158610E+03  0.00000000000E+00 0.  1.
         21   -1    0    0  501  503 -0.00000000000E+00 -0.00000000000E+00 -0.28907076489E+03  0.28907076489E+03  0.00000000000E+00 0.  1.
          6    2    1    2  501    0 -0.55699525000E+02 -0.13744590808E+03 -0.14851873010E+03  0.27057845642E+03  0.17076613585E+03 0.  0.
         24    2    3    3    0    0  0.26769400371E+02 -0.10164315950E+03 -0.11333305206E+03  0.17391883508E+03  0.79721062692E+02 0.  0.
         -6    2    1    2    0  502  0.55699525000E+02  0.13744590808E+03  0.90549551317E+02  0.24959389458E+03  0.17917610397E+03 0.  0.
        -24    2    5    5    0    0  0.90260008257E+02  0.14488339911E+03  0.47774866182E+02  0.19390271965E+03  0.78598717694E+02 0.  0.
          5    1    3    3  501    0 -0.82468925371E+02 -0.35802748574E+02 -0.35185678043E+02  0.96659621335E+02  0.47000000000E+01 0. -1.
        -11    1    4    4    0    0 -0.23989823531E+02 -0.54025440799E+02 -0.71281235038E+02  0.92602777254E+02  0.00000000000E+00 0.  1.
         12    1    4    4    0    0  0.50759223902E+02 -0.47617718705E+02 -0.42051817021E+02  0.81316057828E+02  0.00000000000E+00 0. -1.
         -5    1    5    5    0  502 -0.34560483258E+02 -0.74374910275E+01  0.42774685135E+02  0.55691174922E+02  0.47000000000E+01 0.  1.
         13    1    6    6    0    0 -0.20408370285E+01  0.13556003366E+02  0.29269259297E+02  0.32320578318E+02  0.00000000000E+00 0. -1.
        -14    1    6    6    0    0  0.92300845286E+02  0.13132739574E+03  0.18505606885E+02  0.16158214133E+03  0.00000000000E+00 0.  1.
</event>
<event>
12    1  0.8271773E-002  0.1766066E+03  0.7818608E-02  0.1171468E+00
         21   -1    0    0  503  502  0.00000000000E+00  0.00000000000E+00  0.23323642584E+03  0.23323642584E+03  0.00000000000E+00 0. -1.
         21   -1    0    0  501  503 -0.00000000000E+00 -0.00000000000E+00 -0.13526419775E+03  0.13526419775E+03  0.00000000000E+00 0. -1.
          6    2    1    2  501    0  0.22264050127E+02  0.24583504954E+02  0.74183503958E+02  0.19029906806E+03  0.17207703624E+03 0.  0.
         24    2    3    3    0    0  0.15033872394E+02  0.37889548199E+02 -0.21744766955E+02  0.93069188821E+02  0.80792350108E+02 0.  0.
         -6    2    1    2    0  502 -0.22264050127E+02 -0.24583504954E+02  0.23788724134E+02  0.17820155552E+03  0.17346427399E+03 0.  0.
        -24    2    5    5    0    0 -0.73833901043E+02 -0.34610417281E+02  0.40821146127E+02  0.12277428883E+03  0.82206046606E+02 0.  0.
          5    1    3    3  501    0  0.72301777331E+01 -0.13306043245E+02  0.95928270914E+02  0.97229879242E+02  0.47000000000E+01 0. -1.
        -13    1    4    4    0    0 -0.17816470855E+02 -0.46591405927E-01  0.20722848183E+02  0.27328835345E+02  0.00000000000E+00 0.  1.
         14    1    4    4    0    0  0.32850343249E+02  0.37936139605E+02 -0.42467615138E+02  0.65740353477E+02  0.00000000000E+00 0. -1.
         -5    1    5    5    0  502  0.51569850916E+02  0.10026912327E+02 -0.17032421993E+02  0.55427266695E+02  0.47000000000E+01 0.  1.
         11    1    6    6    0    0 -0.41840892863E+01 -0.64432159892E+01  0.46781781510E+02  0.47408403439E+02  0.00000000000E+00 0. -1.
        -12    1    6    6    0    0 -0.69649811756E+02 -0.28167201292E+02 -0.59606353825E+01  0.75365885389E+02  0.00000000000E+00 0.  1.
</event>
<event>
12    1  0.8271773E-002  0.2384322E+03  0.7818608E-02  0.1121212E+00
         21   -1    0    0  503  502  0.00000000000E+00  0.00000000000E+00  0.51548137277E+03  0.51548137277E+03  0.00000000000E+00 0.  1.
         21   -1    0    0  501  503 -0.00000000000E+00 -0.00000000000E+00 -0.16820352436E+03  0.16820352436E+03  0.00000000000E+00 0. -1.
          6    2    1    2  501    0 -0.80224406373E+02  0.14273316591E+03 -0.29220378850E+02  0.23803834138E+03  0.17029301042E+03 0.  0.
         24    2    3    3    0    0  0.22402384445E+02  0.45976641330E+02 -0.18814706886E+01  0.94289987850E+02  0.79191814602E+02 0.  0.
         -6    2    1    2    0  502  0.80224406373E+02 -0.14273316591E+03  0.37649822726E+03  0.44564655575E+03  0.17332404766E+03 0.  0.
        -24    2    5    5    0    0 -0.91950417909E+01 -0.59830300753E+02  0.88379567135E+02  0.13275172506E+03  0.78408283608E+02 0.  0.
          5    1    3    3  501    0 -0.10262679082E+03  0.96756524580E+02 -0.27338908161E+02  0.14374835353E+03  0.47000000000E+01 0. -1.
        -11    1    4    4    0    0 -0.15966365108E+02  0.22327097927E+02  0.28785417491E+02  0.39774670039E+02  0.00000000000E+00 0.  1.
         12    1    4    4    0    0  0.38368749552E+02  0.23649543403E+02 -0.30666888180E+02  0.54515317811E+02  0.00000000000E+00 0. -1.
         -5    1    5    5    0  502  0.89419448164E+02 -0.82902865157E+02  0.28811866013E+03  0.31289483069E+03  0.47000000000E+01 0.  1.
         13    1    6    6    0    0  0.33628768297E+02 -0.25311997114E+02  0.25509722183E+02  0.49217244751E+02  0.00000000000E+00 0. -1.
        -14    1    6    6    0    0 -0.42823810088E+02 -0.34518303638E+02  0.62869844952E+02  0.83534480311E+02  0.00000000000E+00 0.  1.
</event>
<event>
12    1  0.8271773E-002  0.2424622E+03  0.7818608E-02  0.1118349E+00
         21   -1    0    0  503  502  0.00000000000E+00  0.00000000000E+00  0.36436618904E+02  0.36436618904E+02  0.00000000000E+00 0.  1.
         21   -1    0    0  501  503 -0.00000000000E+00 -0.00000000000E+00 -0.17051658154E+04  0.17051658154E+04  0.00000000000E+00 0. -1.
          6    2    1    2  501    0  0.14855276613E+03 -0.82628102513E+02 -0.10425925027E+04  0.10701599092E+04  0.17131192926E+03 0.  0.
         24    2    3    3    0    0  0.11128925460E+02 -0.21638277535E+02 -0.50724179673E+03  0.51407759603E+03  0.79934137579E+02 0.  0.
         -6    2    1    2    0  502 -0.14855276613E+03  0.82628102513E+02 -0.62613669387E+03  0.67144252509E+03  0.17289470044E+03 0.  0.
        -24    2    5    5    0    0 -0.57723628492E+02 -0.22575562618E+02 -0.35977073133E+03  0.37095848325E+03  0.65829657895E+02 0.  0.
          5    1    3    3  501    0  0.13742384067E+03 -0.60989824978E+02 -0.53535070592E+03  0.55608231321E+03  0.47000000000E+01 0. -1.
        -11    1    4    4    0    0  0.34954150469E+01  0.17994513962E+02 -0.30175175589E+02  0.35306680400E+02  0.00000000000E+00 0.  1.
         12    1    4    4    0    0  0.76335104129E+01 -0.39632791496E+02 -0.47706662114E+03  0.47877091563E+03  0.00000000000E+00 0. -1.
         -5    1    5    5    0  502 -0.90829137643E+02  0.10520366513E+03 -0.26636596254E+03  0.30048404184E+03  0.47000000000E+01 0.  1.
         11    1    6    6    0    0 -0.69951416620E+02 -0.84977298628E+01 -0.25576716436E+03  0.26529654062E+03  0.00000000000E+00 0. -1.
        -12    1    6    6    0    0  0.12227788129E+02 -0.14077832755E+02 -0.10400356698E+03  0.10566194264E+03  0.00000000000E+00 0.  1.
</event>
<event>
12    1  0.8271773E-002  0.1949393E+03  0.7818608E-02  0.1155175E+00
         21   -1    0    0  501  502  0.00000000000E+00  0.00000000000E+00  0.98949348614E+03  0.98949348614E+03  0.00000000000E+00 0. -1.
         21   -1    0    0  502  503 -0.00000000000E+00 -0.00000000000E+00 -0.41731197241E+02  0.41731197241E+02  0.00000000000E+00 0. -1.
         -6    2    1    2    0  503  0.52621058505E+02 -0.73630755069E+02  0.30299161297E+03  0.35762945157E+03  0.16704623075E+03 0.  0.
        -24    2    3    3    0    0 -0.46353502579E+01  0.16512512614E+02  0.15138788491E+03  0.17213043428E+03  0.80102716327E+02 0.  0.
          6    2    1    2  501    0 -0.52621058505E+02  0.73630755069E+02  0.64477067593E+03  0.67359523181E+03  0.17265818223E+03 0.  0.
         24    2    5    5    0    0 -0.45686028992E+02 -0.23014763157E+02  0.25013087630E+03  0.26720734779E+03  0.78850611075E+02 0.  0.
          5    1    5    5  501    0 -0.69350295128E+01  0.96645518226E+02  0.39463979963E+03  0.40638788402E+03  0.47000000000E+01 0. -1.
        -11    1    6    6    0    0 -0.49734847310E+01 -0.34613768771E+02  0.41240011765E+02  0.54070205374E+02  0.00000000000E+00 0.  1.
         12    1    6    6    0    0 -0.40712544261E+02  0.11599005614E+02  0.20889086454E+03  0.21313714242E+03  0.00000000000E+00 0. -1.
         -5    1    3    3    0  503  0.57256408763E+02 -0.90143267683E+02  0.15160372806E+03  0.18549901728E+03  0.47000000000E+01 0.  1.
         11    1    4    4    0    0  0.35394253480E+02 -0.56601681365E+01  0.59092908795E+02  0.69114127012E+02  0.00000000000E+00 0. -1.
        -12    1    4    4    0    0 -0.40029603738E+02  0.22172680750E+02  0.92294976117E+02  0.10301630727E+03  0.00000000000E+00 0.  1.
</event>
<event>
12    1  0.8271773E-002  0.1790883E+03  0.7818608E-02  0.1169558E+00
         21   -1    0    0  503  502  0.00000000000E+00  0.00000000000E+00  0.42245139592E+03  0.42245139592E+03  0.00000000000E+00 0. -1.
         21   -1    0    0  501  503 -0.00000000000E+00 -0.00000000000E+00 -0.75614718013E+02  0.75614718013E+02  0.00000000000E+00 0. -1.
          6    2    1    2  501    0 -0.48927972253E+02  0.21812497178E+01  0.14053612022E+03  0.22487652403E+03  0.16858334928E+03 0.  0.
         24    2    3    3    0    0  0.10398422705E+02 -0.27145331059E+02  0.21568877474E+02  0.88659915920E+02  0.80934343900E+02 0.  0.
         -6    2    1    2    0  502  0.48927972253E+02 -0.21812497178E+01  0.20630055770E+03  0.27318958991E+03  0.17226121911E+03 0.  0.
        -24    2    5    5    0    0  0.19584372833E+02 -0.61024099412E+02  0.70932584145E+02  0.12262363742E+03  0.76796071460E+02 0.  0.
          5    1    3    3  501    0 -0.59326394957E+02  0.29326580777E+02  0.11896724274E+03  0.13621660811E+03  0.47000000000E+01 0. -1.
        -11    1    4    4    0    0  0.18491014128E+02 -0.28336420014E+02  0.49273788491E+02  0.59772707275E+02  0.00000000000E+00 0.  1.
         12    1    4    4    0    0 -0.80925914238E+01  0.11910889549E+01 -0.27704911017E+02  0.28887208645E+02  0.00000000000E+00 0. -1.
         -5    1    5    5    0  502  0.29343599420E+02  0.58842849694E+02  0.13536797355E+03  0.15056595249E+03  0.47000000000E+01 0.  1.
         13    1    6    6    0    0  0.24297065052E+01 -0.26394381569E+02  0.78840638930E+02  0.83176999218E+02  0.00000000000E+00 0. -1.
        -14    1    6    6    0    0  0.17154666328E+02 -0.34629717843E+02 -0.79080547851E+01  0.39446638199E+02  0.00000000000E+00 0.  1.
</event>
<event>
12    1  0.8271773E-002  0.2508660E+03  0.7818608E-02  0.1112882E+00
         21   -1    0    0  501  502  0.00000000000E+00  0.00000000000E+00  0.19244168390E+03  0.19244168390E+03  0.00000000000E+00 0. -1.
         21   -1    0    0  502  503 -0.00000000000E+00 -0.00000000000E+00 -0.32603809346E+03  0.32603809346E+03  0.00000000000E+00 0. -1.
         -6    2    1    2    0  503  0.17442981068E+03 -0.50906373230E+02 -0.69211679614E+02  0.26023840147E+03  0.17296401739E+03 0.  0.
        -24    2    3    3    0    0  0.16904301591E+03 -0.42416991627E+02 -0.16274013095E+01  0.19174889985E+03  0.79939037710E+02 0.  0.
          6    2    1    2  501    0 -0.17442981068E+03  0.50906373230E+02 -0.64384729946E+02  0.25824137590E+03  0.17183130414E+03 0.  0.
         24    2    5    5    0    0 -0.19480323418E+03  0.22084682987E+02 -0.69313629170E+02  0.22229488426E+03  0.78578642839E+02 0.  0.
          5    1    5    5  501    0  0.20373423495E+02  0.28821690243E+02  0.49288992231E+01  0.35946491636E+02  0.47000000000E+01 0. -1.
        -11    1    6    6    0    0 -0.16733369748E+03  0.47297397148E+02 -0.55491417254E+02  0.18252919624E+03  0.00000000000E+00 0.  1.
         12    1    6    6    0    0 -0.27469536695E+02 -0.25212714161E+02 -0.13822211915E+02  0.39765688022E+02  0.00000000000E+00 0. -1.
         -5    1    3    3    0  503  0.53867947685E+01 -0.84893816030E+01 -0.67584278304E+02  0.68489501617E+02  0.47000000000E+01 0.  1.
         13    1    4    4    0    0  0.22481417150E+02  0.11986817076E+02  0.21973559177E+02  0.33644244732E+02  0.00000000000E+00 0. -1.
        -14    1    4    4    0    0  0.14656159876E+03 -0.54403808703E+02 -0.23600960486E+02  0.15810465512E+03  0.00000000000E+00 0.  1.
</event>
<event>
12    1  0.8271773E-002  0.1835925E+03  0.7818608E-02  0.1168580E+00
         21   -1    0    0  503  502  0.00000000000E+00  0.00000000000E+00  0.10878479508E+03  0.10878479508E+03  0.00000000000E+00 0. -1.
         21   -1    0    0  501  503 -0.00000000000E+00 -0.00000000000E+00 -0.42416156495E+03  0.42416156495E+03  0.00000000000E+00 0.  1.
          6    2    1    2  501    0  0.17508095671E+02 -0.63800569538E+02 -0.30682184930E+03  0.34915462485E+03  0.15294528028E+03 0.  0.
         24    2    3    3    0    0  0.98091475890E+01 -0.75171717795E+02 -0.31429672427E+03  0.33282855459E+03  0.79027902250E+02 0.  0.
         -6    2    1    2    0  502 -0.17508095671E+02  0.63800569538E+02 -0.85549205790E+01  0.18379173518E+03  0.17125761053E+03 0.  0.
        -24    2    5    5    0    0  0.40092868551E+02  0.80495464765E+02 -0.31444814788E+02  0.11942848586E+03  0.72023807876E+02 0.  0.
          5    1    3    3  501    0  0.76989480822E+01  0.11371148257E+02  0.74748749703E+01  0.16326070258E+02  0.47000000000E+01 0. -1.
        -11    1    4    4    0    0  0.35422073778E+01  0.13817483676E+02 -0.95256188407E+02  0.96318282367E+02  0.00000000000E+00 0.  1.
         12    1    4    4    0    0  0.62669402112E+01 -0.88989201471E+02 -0.21904053586E+03  0.23651027223E+03  0.00000000000E+00 0. -1.
         -5    1    5    5    0  502 -0.57600964222E+02 -0.16694895227E+02  0.22889894209E+02  0.64363249319E+02  0.47000000000E+01 0.  1.
         11    1    6    6    0    0 -0.12579123991E+02  0.53293539869E+02 -0.66109714261E+01  0.55155604388E+02  0.00000000000E+00 0. -1.
        -12    1    6    6    0    0  0.52671992542E+02  0.27201924896E+02 -0.24833843361E+02  0.64272881470E+02  0.00000000000E+00 0.  1.
</event>
<event>
12    1  0.8271773E-002  0.2077675E+03  0.7818608E-02  0.1143533E+00
         21   -1    0    0  503  502  0.00000000000E+00  0.00000000000E+00  0.90245860600E+03  0.90245860600E+03  0.00000000000E+00 0.  1.
         21   -1    0    0  501  503 -0.00000000000E+00 -0.00000000000E+00 -0.13328216576E+03  0.13328216576E+03  0.00000000000E+00 0.  1.
          6    2    1    2  501    0 -0.10305900088E+03  0.51360228804E+02 -0.30892993844E+02  0.20913419941E+03  0.17182463598E+03 0.  0.
         24    2    3    3    0    0  0.82678533791E+01  0.54297368326E+02 -0.12731016379E+02  0.96199516107E+02  0.77946818502E+02 0.  0.
         -6    2    1    2    0  502  0.10305900088E+03 -0.51360228804E+02  0.80006943409E+03  0.82660657235E+03  0.17294014953E+03 0.  0.
        -24    2    5    5    0    0  0.32157922371E+02  0.43598587265E+01  0.17730961402E+03  0.19733431444E+03  0.80305616799E+02 0.  0.
          5    1    3    3  501    0 -0.11132685426E+03 -0.29371395216E+01 -0.18161977464E+02  0.11293468330E+03  0.47000000000E+01 0. -1.
        -13    1    4    4    0    0 -0.24831513522E+02 -0.17329927971E+01 -0.18285358133E+02  0.30886269601E+02  0.00000000000E+00 0.  1.
         14    1    4    4    0    0  0.33099366901E+02  0.56030361123E+02  0.55543417542E+01  0.65313246506E+02  0.00000000000E+00 0. -1.
         -5    1    5    5    0  502  0.70901078508E+02 -0.55720087531E+02  0.62275982007E+03  0.62927225791E+03  0.47000000000E+01 0.  1.
         13    1    6    6    0    0  0.25960698157E+02 -0.35626814590E+02  0.70852684064E+02  0.83446573361E+02  0.00000000000E+00 0. -1.
        -14    1    6    6    0    0  0.61972242147E+01  0.39986673316E+02  0.10645692996E+03  0.11388774107E+03  0.00000000000E+00 0.  1.
</event>
<event>
12    1  0.8271773E-002  0.1805354E+03  0.7818608E-02  0.1167978E+00
         21   -1    0    0  501  502  0.00000000000E+00  0.00000000000E+00  0.12910933062E+03  0.12910933062E+03  0.00000000000E+00 0. -1.
         21   -1    0    0  502  503 -0.00000000000E+00 -0.00000000000E+00 -0.25731993820E+03  0.25731993820E+03  0.00000000000E+00 0. -1.
         -6    2    1    2    0  503  0.39612309577E+02 -0.39895253731E+02 -0.10040360287E+03  0.20657668301E+03  0.17155837536E+03 0.  0.
        -24    2    3    3    0    0  0.13659208803E+02 -0.25927303136E+02 -0.13608158044E+03  0.16006136115E+03  0.79010402885E+02 0.  0.
          6    2    1    2  501    0 -0.39612309577E+02  0.39895253731E+02 -0.27807004715E+02  0.17985258582E+03  0.16856143323E+03 0.  0.
         24    2    5    5    0    0 -0.28527326693E+02 -0.36444703340E+02 -0.39162262893E+02  0.10173922089E+03  0.81701661327E+02 0.  0.
          5    1    5    5  501    0 -0.11084982885E+02  0.76339957071E+02  0.11355258178E+02  0.78113364922E+02  0.47000000000E+01 0. -1.
        -13    1    6    6    0    0  0.78280777166E+01 -0.65355165783E+00 -0.49133124106E+02  0.49757108184E+02  0.00000000000E+00 0.  1.
         14    1    6    6    0    0 -0.36355404409E+02 -0.35791151682E+02  0.99708612125E+01  0.51982112710E+02  0.00000000000E+00 0. -1.
         -5    1    3    3    0  503  0.25953100774E+02 -0.13967950595E+02  0.35677977578E+02  0.46515321860E+02  0.47000000000E+01 0.  1.
         13    1    4    4    0    0 -0.11533051741E+02  0.13469635018E+02 -0.98458237144E+02  0.10004232510E+03  0.00000000000E+00 0. -1.
        -14    1    4    4    0    0  0.25192260544E+02 -0.39396938154E+02 -0.37623343300E+02  0.60019036050E+02  0.00000000000E+00 0.  1.
</event>
<event>
12    1  0.8271773E-002  0.2115947E+03  0.7818608E-02  0.1140377E+00
         21   -1    0    0  501  502  0.00000000000E+00  0.00000000000E+00  0.34201130223E+02  0.34201130223E+02  0.00000000000E+00 0. -1.
         21   -1    0    0  502  503 -0.00000000000E+00 -0.00000000000E+00 -0.15780895806E+04  0.15780895806E+04  0.00000000000E+00 0.  1.
         -6    2    1    2    0  503 -0.11326721928E+03  0.47511076056E+02 -0.11055670570E+04  0.11255690518E+04  0.17187323123E+03 0.  0.
        -24    2    3    3    0    0 -0.28659466193E+02  0.80890773874E+02 -0.71424881907E+03  0.72379208704E+03  0.79742883120E+02 0.  0.
          6    2    1    2  501    0  0.11326721928E+03 -0.47511076056E+02 -0.43832139340E+03  0.48672165901E+03  0.17229499158E+03 0.  0.
         24    2    5    5    0    0  0.13289065910E+03 -0.34097224537E+02 -0.43401120340E+03  0.46211112182E+03  0.79739677936E+02 0.  0.
          5    1    5    5  501    0 -0.19623439819E+02 -0.13413851519E+02 -0.43101900019E+01  0.24610537190E+02  0.47000000000E+01 0. -1.
        -13    1    6    6    0    0  0.13076064950E+02 -0.35253380984E+02 -0.13036379112E+03  0.13567793623E+03  0.00000000000E+00 0.  1.
         14    1    6    6    0    0  0.11981459415E+03  0.11561564468E+01 -0.30364741228E+03  0.32643318559E+03  0.00000000000E+00 0. -1.
         -5    1    3    3    0  503 -0.84607753087E+02 -0.33379697818E+02 -0.39131823788E+03  0.40177696476E+03  0.47000000000E+01 0.  1.
         11    1    4    4    0    0 -0.14178981870E+01  0.16947128149E+01  0.18074516006E+01  0.28547098070E+01  0.00000000000E+00 0. -1.
        -12    1    4    4    0    0 -0.27241568006E+02  0.79196061059E+02 -0.71605627068E+03  0.72093737723E+03  0.00000000000E+00 0.  1.
</event>
<event>
12    1  0.8271773E-002  0.1883511E+03  0.7818608E-02  0.1160385E+00
         21   -1    0    0  503  502  0.00000000000E+00  0.00000000000E+00  0.40174976207E+02  0.40174976207E+02  0.00000000000E+00 0.  1.
         21   -1    0    0  501  503 -0.00000000000E+00 -0.00000000000E+00 -0.12923260470E+04  0.12923260470E+04  0.00000000000E+00 0.  1.
          6    2    1    2  501    0 -0.62623160226E+02 -0.36632485586E+02 -0.10028844645E+04  0.10200750553E+04  0.17179135597E+03 0.  0.
         24    2    3    3    0    0 -0.81529665310E+01 -0.19022449218E+02 -0.24655385501E+03  0.26156652119E+03  0.84852325517E+02 0.  0.
         -6    2    1    2    0  502  0.62623160226E+02  0.36632485586E+02 -0.24926660629E+03  0.31242596797E+03  0.17381756313E+03 0.  0.
        -24    2    5    5    0    0  0.51128730667E+02  0.84449297206E+02 -0.22165620460E+03  0.25583097114E+03  0.81068994436E+02 0.  0.
          5    1    3    3  501    0 -0.54470193695E+02 -0.17610036368E+02 -0.75633060951E+03  0.75850853407E+03  0.47000000000E+01 0. -1.
        -13    1    4    4    0    0 -0.19049713835E+02  0.26449095750E+02 -0.15902299775E+03  0.16232917198E+03  0.00000000000E+00 0.  1.
         14    1    4    4    0    0  0.10896747304E+02 -0.45471544968E+02 -0.87530857264E+02  0.99237349203E+02  0.00000000000E+00 0. -1.
         -5    1    5    5    0  502  0.11494429560E+02 -0.47816811620E+02 -0.27610401688E+02  0.56594996826E+02  0.47000000000E+01 0.  1.
         11    1    6    6    0    0  0.48908315019E+02  0.56804427256E+02 -0.21445456612E+03  0.22717730337E+03  0.00000000000E+00 0. -1.
        -12    1    6    6    0    0  0.22204156478E+01  0.27644869950E+02 -0.72016384785E+01  0.28653667775E+02  0.00000000000E+00 0.  1.
</event>
<event>
12    1  0.8271773E-002  0.1923782E+03  0.7818608E-02  0.1156416E+00
         21   -1    0    0  501  502  0.00000000000E+00  0.00000000000E+00  0.30970709687E+03  0.30970709687E+03  0.00000000000E+00 0.  1.
         21   -1    0    0  502  503 -0.00000000000E+00 -0.00000000000E+00 -0.19400834043E+03  0.19400834043E+03  0.00000000000E+00 0.  1.
         -6    2    1    2    0  503  0.67072647519E+02 -0.54016151136E+02 -0.98439030613E+02  0.21610097143E+03  0.17202587735E+03 0.  0.
        -24    2    3    3    0    0  0.48645219146E+02  0.27695885873E+02 -0.16218222263E+02  0.98632769631E+02  0.79573695852E+02 0.  0.
          6    2    1    2  501    0 -0.67072647519E+02  0.54016151136E+02  0.21413778705E+03  0.28761446586E+03  0.17161178428E+03 0.  0.
         24    2    5    5    0    0 -0.68392172773E+02  0.55900021330E+02  0.23571686036E+03  0.26541004021E+03  0.84129361713E+02 0.  0.
          5    1    5    5  501    0  0.13195252542E+01 -0.18838701939E+01 -0.21579073312E+02  0.22204425658E+02  0.47000000000E+01 0. -1.
        -11    1    6    6    0    0 -0.77126300869E+02  0.59331294573E+02  0.14756428239E+03  0.17675940212E+03  0.00000000000E+00 0.  1.
         12    1    6    6    0    0  0.87341280958E+01 -0.34312732427E+01  0.88152577971E+02  0.88650638083E+02  0.00000000000E+00 0. -1.
         -5    1    3    3    0  503  0.18427428372E+02 -0.81712037009E+02 -0.82220808350E+02  0.11746820180E+03  0.47000000000E+01 0.  1.
         13    1    4    4    0    0 -0.14489624032E+02  0.29829345751E+02 -0.12196390592E+02  0.35333992358E+02  0.00000000000E+00 0. -1.
        -14    1    4    4    0    0  0.63134843178E+02 -0.21334598776E+01 -0.40218316715E+01  0.63298777273E+02  0.00000000000E+00 0.  1.
</event>
<event>
12    1  0.8271773E-002  0.1746629E+03  0.7818608E-02  0.1173177E+00
         21   -1    0    0  503  502  0.00000000000E+00  0.00000000000E+00  0.21566372900E+02  0.21566372900E+02  0.00000000000E+00 0. -1.
         21   -1    0    0  501  503 -0.00000000000E+00 -0.00000000000E+00 -0.20175588831E+04  0.20175588831E+04  0.00000000000E+00 0. -1.
          6    2    1    2  501    0 -0.21769908687E+02  0.18367051081E+02 -0.15561115898E+04  0.15658363740E+04  0.17189820405E+03 0.  0.
         24    2    3    3    0    0  0.23516267463E+01  0.75107740618E+02 -0.82292700936E+03  0.83004899071E+03  0.78267243480E+02 0.  0.
         -6    2    1    2    0  502  0.21769908687E+02 -0.18367051081E+02 -0.43988092038E+03  0.47328888204E+03  0.17232487997E+03 0.  0.
        -24    2    5    5    0    0  0.46081018861E+02  0.72749264258E+01 -0.12023243114E+03  0.15165898952E+03  0.79801170108E+02 0.  0.
          5    1    3    3  501    0 -0.24121535433E+02 -0.56740689537E+02 -0.73318458047E+03  0.73578738326E+03  0.47000000000E+01 0. -1.
        -13    1    4    4    0    0 -0.27758422597E+02  0.63924314136E+02 -0.41055622198E+03  0.41642917689E+03  0.00000000000E+00 0.  1.
         14    1    4    4    0    0  0.30110049344E+02  0.11183426482E+02 -0.41237078738E+03  0.41361981382E+03  0.00000000000E+00 0. -1.
         -5    1    5    5    0  502 -0.24311110175E+02 -0.25641977507E+02 -0.31964848924E+03  0.32162989252E+03  0.47000000000E+01 0.  1.
         13    1    6    6    0    0 -0.16716460030E+02 -0.14455378237E+01 -0.66401016905E+02  0.68488135188E+02  0.00000000000E+00 0. -1.
        -14    1    6    6    0    0  0.62797478891E+02  0.87204642496E+01 -0.53831414236E+02  0.83170854332E+02  0.00000000000E+00 0.  1.
</event>
<event>
12    1  0.8271773E-002  0.2311970E+03  0.7818608E-02  0.1127547E+00
         21   -1    0    0  501  502  0.00000000000E+00  0.00000000000E+00  0.55266091661E+03  0.55266091661E+03  0.00000000000E+00 0. -1.
         21   -1    0    0  502  503 -0.00000000000E+00 -0.00000000000E+00 -0.43403794873E+03  0.43403794873E+03  0.00000000000E+00 0. -1.
         -6    2    1    2    0  503  0.12945431309E+03 -0.82713938759E+02 -0.37791443077E+03  0.44302525628E+03  0.17277744608E+03 0.  0.
        -24    2    3    3    0    0  0.10618845142E+03 -0.68127290635E+02 -0.38588321897E+03  0.41404833083E+03  0.81319411187E+02 0.  0.
          6    2    1    2  501    0 -0.12945431309E+03  0.82713938759E+02  0.49653739865E+03  0.54367360906E+03  0.15947285062E+03 0.  0.
         24    2    5    5    0    0 -0.58480983297E+02 -0.12619689147E+02  0.18488867591E+03  0.21009793468E+03  0.79862617756E+02 0.  0.
          5    1    5    5  501    0 -0.70973329797E+02  0.95333627906E+02  0.31164872274E+03  0.33357567438E+03  0.47000000000E+01 0. -1.
        -13    1    6    6    0    0  0.67272657635E+01  0.22073358816E+02  0.25288060824E+02  0.34234124705E+02  0.00000000000E+00 0.  1.
         14    1    6    6    0    0 -0.65208249061E+02 -0.34693047963E+02  0.15960061508E+03  0.17586380997E+03  0.00000000000E+00 0. -1.
         -5    1    3    3    0  503  0.23265861671E+02 -0.14586648125E+02  0.79687882064E+01  0.28976925446E+02  0.47000000000E+01 0.  1.
         11    1    4    4    0    0  0.51515907999E+02 -0.26854804432E+02 -0.29261777801E+03  0.29832906882E+03  0.00000000000E+00 0. -1.
        -12    1    4    4    0    0  0.54672543425E+02 -0.41272486202E+02 -0.93265440964E+02  0.11571926201E+03  0.00000000000E+00 0.  1.
</event>
<event>
12    1  0.8271773E-002  0.2229321E+03  0.7818608E-02  0.1131918E+00
         21   -1    0    0  501  502  0.00000000000E+00  0.00000000000E+00  0.52215538838E+03  0.52215538838E+03  0.00000000000E+00 0.  1.
         21   -1    0    0  502  503 -0.00000000000E+00 -0.00000000000E+00 -0.31755469533E+03  0.31755469533E+03  0.00000000000E+00 0.  1.
         -6    2    1    2    0  503  0.12637535995E+03 -0.61490089647E+02 -0.24933813909E+03  0.33446710835E+03  0.17305194664E+03 0.  0.
        -24    2    3    3    0    0  0.18382778858E+02  0.13012706455E+02 -0.15211481913E+03  0.17110392969E+03  0.75035854555E+02 0.  0.
          6    2    1    2  501    0 -0.12637535995E+03  0.61490089647E+02  0.45393883214E+03  0.50524297536E+03  0.17163402371E+03 0.  0.
         24    2    5    5    0    0 -0.14957535491E+02 -0.95676130402E+01  0.11450819635E+03  0.14096509347E+03  0.80273055622E+02 0.  0.
          5    1    5    5  501    0 -0.11141782446E+03  0.71057702687E+02  0.33943063579E+03  0.36427788189E+03  0.47000000000E+01 0. -1.
        -13    1    6    6    0    0 -0.40953965268E+02 -0.25374053237E+02  0.89246847563E+02  0.10142026252E+03  0.00000000000E+00 0.  1.
         14    1    6    6    0    0  0.25996429776E+02  0.15806440196E+02  0.25261348787E+02  0.39544830956E+02  0.00000000000E+00 0. -1.
         -5    1    3    3    0  503  0.10799258110E+03 -0.74502796102E+02 -0.97223319961E+02  0.16336317866E+03  0.47000000000E+01 0.  1.
         11    1    4    4    0    0 -0.16771515097E+02 -0.20506189905E+02 -0.32019020910E+02  0.41557252594E+02  0.00000000000E+00 0. -1.
        -12    1    4    4    0    0  0.35154293955E+02  0.33518896360E+02 -0.12009579822E+03  0.12954667710E+03  0.00000000000E+00 0.  1.
</event>
<event>
12    1  0.8271773E-002  0.2226186E+03  0.7818608E-02  0.1133072E+00
         21   -1    0    0  501  502  0.00000000000E+00  0.00000000000E+00  0.74501240563E+03  0.74501240563E+03  0.00000000000E+00 0. -1.
         21   -1    0    0  502  503 -0.00000000000E+00 -0.00000000000E+00 -0.12560675877E+03  0.12560675877E+03  0.00000000000E+00 0. -1.
         -6    2    1    2    0  503 -0.13178200332E+03  0.13515725094E+01  0.88544889021E+01  0.22279464619E+03  0.17941775066E+03 0.  0.
        -24    2    3    3    0    0 -0.60204473970E+02 -0.60241676526E+02 -0.34419112365E+02  0.11881500587E+03  0.75357096868E+02 0.  0.
          6    2    1    2  501    0  0.13178200332E+03 -0.13515725094E+01  0.61055115795E+03  0.64782451821E+03  0.17185914805E+03 0.  0.
         24    2    5    5    0    0  0.89351032901E+02 -0.41171139986E+02  0.23178275157E+03  0.26458362676E+03  0.81256272230E+02 0.  0.
          5    1    5    5  501    0  0.42430970417E+02  0.39819567476E+02  0.37876840638E+03  0.38324089144E+03  0.47000000000E+01 0. -1.
        -13    1    6    6    0    0  0.29944048639E+02  0.24397069469E+02  0.81506134758E+02  0.90194861554E+02  0.00000000000E+00 0.  1.
         14    1    6    6    0    0  0.59406984262E+02 -0.65568209454E+02  0.15027661682E+03  0.17438876521E+03  0.00000000000E+00 0. -1.
         -5    1    3    3    0  503 -0.71577529348E+02  0.61593249035E+02  0.43273601267E+02  0.10397964032E+03  0.47000000000E+01 0.  1.
         11    1    4    4    0    0 -0.35318150586E+02 -0.62197791579E+02 -0.51872580016E+02  0.88355540831E+02  0.00000000000E+00 0. -1.
        -12    1    4    4    0    0 -0.24886323384E+02  0.19561150530E+01  0.17453467651E+02  0.30459465043E+02  0.00000000000E+00 0.  1.
</event>
<event>
12    1  0.8271773E-002  0.2819779E+03  0.7818608E-02  0.1094792E+00
         21   -1    0    0  503  502  0.00000000000E+00  0.00000000000E+00  0.15866170260E+04  0.15866170260E+04  0.00000000000E+00 0. -1.
         21   -1    0    0  501  503 -0.00000000000E+00 -0.00000000000E+00 -0.90374797741E+02  0.90374797741E+02  0.00000000000E+00 0.  1.
          6    2    1    2  501    0 -0.22222386266E+03 -0.20926826607E+02  0.18587588794E+03  0.33662938520E+03  0.17014147072E+03 0.  0.
         24    2    3    3    0    0 -0.89731624044E+02 -0.67584251011E+02  0.11244116563E+03  0.17805493270E+03  0.80256762917E+02 0.  0.
         -6    2    1    2    0  502  0.22222386266E+03  0.20926826607E+02  0.13103663403E+04  0.13403624386E+04  0.17230828069E+03 0.  0.
        -24    2    5    5    0    0  0.52131877968E+02  0.52465491658E+02  0.44457822473E+03  0.45744844400E+03  0.78351263558E+02 0.  0.
          5    1    3    3  501    0 -0.13249223861E+03  0.46657424404E+02  0.73434722305E+02  0.15857445250E+03  0.47000000000E+01 0. -1.
        -13    1    4    4    0    0 -0.32108691037E+02 -0.58953506491E+01  0.82100460227E+02  0.88352751903E+02  0.00000000000E+00 0.  1.
         14    1    4    4    0    0 -0.57622933007E+02 -0.61688900362E+02  0.30340705404E+02  0.89702180802E+02  0.00000000000E+00 0. -1.
         -5    1    5    5    0  502  0.17009198469E+03 -0.31538665051E+02  0.86578811561E+03  0.88291399455E+03  0.47000000000E+01 0.  1.
         11    1    6    6    0    0  0.72157673406E+02  0.35008081980E+02  0.30527033695E+03  0.31562996413E+03  0.00000000000E+00 0. -1.
        -12    1    6    6    0    0 -0.20025795439E+02  0.17457409678E+02  0.13930788778E+03  0.14181847988E+03  0.00000000000E+00 0.  1.
</event>
<event>
12    1  0.8271773E-002  0.1935298E+03  0.7818608E-02  0.1155565E+00
         21   -1    0    0  503  502  0.00000000000E+00  0.00000000000E+00  0.91263539190E+03  0.91263539190E+03  0.00000000000E+00 0. -1.
         21   -1    0    0  501  503 -0.00000000000E+00 -0.00000000000E+00 -0.49921184871E+02  0.49921184871E+02  0.00000000000E+00 0.  1.
          6    2    1    2  501    0 -0.69339080776E+02 -0.45532469328E+02  0.22666861619E+03  0.29804773397E+03  0.17485043972E+03 0.  0.
         24    2    3    3    0    0 -0.86780311676E+02 -0.82673705864E+02  0.13431920140E+03  0.19688364746E+03  0.79723011961E+02 0.  0.
         -6    2    1    2    0  502  0.69339080776E+02  0.45532469328E+02  0.63604559084E+03  0.66450884281E+03  0.17359981180E+03 0.  0.
        -24    2    5    5    0    0  0.25492078974E+02  0.88642680511E+02  0.50726568160E+03  0.52172437272E+03  0.79815277104E+02 0.  0.
          5    1    3    3  501    0  0.17441230900E+02  0.37141236536E+02  0.92349414787E+02  0.10116408650E+03  0.47000000000E+01 0. -1.
        -13    1    4    4    0    0 -0.48205036419E+01 -0.47237292782E+02  0.19257704773E+02  0.51239225969E+02  0.00000000000E+00 0.  1.
         14    1    4    4    0    0 -0.81959808034E+02 -0.35436413082E+02  0.11506149663E+03  0.14564442149E+03  0.00000000000E+00 0. -1.
         -5    1    5    5    0  502  0.43847001801E+02 -0.43110211183E+02  0.12877990924E+03  0.14278447009E+03  0.47000000000E+01 0.  1.
         11    1    6    6    0    0  0.39216353425E+02  0.95869072921E+01  0.13487677953E+03  0.14078912182E+03  0.00000000000E+00 0. -1.
        -12    1    6    6    0    0 -0.13724274451E+02  0.79055773219E+02  0.37238890207E+03  0.38093525089E+03  0.00000000000E+00 0.  1.
</event>
<event>
12    1  0.8271773E-002  0.1809922E+03  0.7818608E-02  0.1167844E+00
         21   -1    0    0  503  502  0.00000000000E+00  0.00000000000E+00  0.15429670591E+03  0.15429670591E+03  0.00000000000E+00 0. -1.
         21   -1    0    0  501  503 -0.00000000000E+00 -0.00000000000E+00 -0.21264516791E+03  0.21264516791E+03  0.00000000000E+00 0. -1.
          6    2    1    2  501    0  0.44297994922E+02  0.29872355999E+02 -0.57979514755E+02  0.19005209842E+03  0.17292630215E+03 0.  0.
         24    2    3    3    0    0  0.53658947282E+02 -0.53672179560E+00 -0.98360307387E+02  0.13842809378E+03  0.81289706509E+02 0.  0.
         -6    2    1    2    0  502 -0.44297994922E+02 -0.29872355999E+02 -0.36894724894E+00  0.17688977541E+03  0.16862735992E+03 0.  0.
        -24    2    5    5    0    0 -0.56024089440E+02  0.38066521707E+02 -0.15922414966E+01  0.10777553053E+03  0.83816890151E+02 0.  0.
          5    1    3    3  501    0 -0.93609523605E+01  0.30409077795E+02  0.40380792632E+02  0.51624004639E+02  0.47000000000E+01 0. -1.
        -11    1    4    4    0    0  0.86152851825E+01 -0.14181227437E+02  0.10632714734E+02  0.19707485203E+02  0.00000000000E+00 0.  1.
         12    1    4    4    0    0  0.45043662100E+02  0.13644505642E+02 -0.10899302212E+03  0.11872060858E+03  0.00000000000E+00 0. -1.
         -5    1    5    5    0  502  0.11726094518E+02 -0.67938877706E+02  0.12232942477E+01  0.69114244881E+02  0.47000000000E+01 0.  1.
         11    1    6    6    0    0 -0.45158194534E+02 -0.86624537895E+01 -0.27168544542E+02  0.53408149675E+02  0.00000000000E+00 0. -1.
        -12    1    6    6    0    0 -0.10865894906E+02  0.46728975496E+02  0.25576303045E+02  0.54367380850E+02  0.00000000000E+00 0.  1.
</event>
<event>
12    1  0.8271773E-002  0.2340283E+03  0.7818608E-02  0.1123919E+00
         21   -1    0    0  503  502  0.00000000000E+00  0.00000000000E+00  0.23612468523E+04  0.23612468523E+04  0.00000000000E+00 0. -1.
         21   -1    0    0  501  503 -0.00000000000E+00 -0.00000000000E+00 -0.50413188976E+02  0.50413188976E+02  0.00000000000E+00 0.  1.
          6    2    1    2  501    0 -0.12054416615E+03  0.10340561986E+03  0.26916945108E+03  0.35668114063E+03  0.17188840704E+03 0.  0.
         24    2    3    3    0    0 -0.42154654758E+02  0.10258687479E+03  0.99289498984E+02  0.16952646138E+03  0.81115563874E+02 0.  0.
         -6    2    1    2    0  502  0.12054416615E+03 -0.10340561986E+03  0.20416642122E+04  0.20549789006E+04  0.17123641065E+03 0.  0.
        -24    2    5    5    0    0  0.94086285743E+02 -0.30158106517E+02  0.72946125670E+03  0.74045849222E+03  0.80020704272E+02 0.  0.
          5    1    3    3  501    0 -0.78389511392E+02  0.81874506266E+00  0.16987995209E+03  0.18715467924E+03  0.47000000000E+01 0. -1.
        -13    1    4    4    0    0  0.24157968525E+02  0.25388804997E+02  0.18765648395E+02  0.39753596342E+02  0.00000000000E+00 0.  1.
         14    1    4    4    0    0 -0.66312623283E+02  0.77198069796E+02  0.80523850589E+02  0.12977286504E+03  0.00000000000E+00 0. -1.
         -5    1    5    5    0  502  0.26457880407E+02 -0.73247513339E+02  0.13122029555E+04  0.13145204084E+04  0.47000000000E+01 0.  1.
         11    1    6    6    0    0  0.67285459843E+02  0.98435922435E+01  0.56548372421E+03  0.56955778615E+03  0.00000000000E+00 0. -1.
        -12    1    6    6    0    0  0.26800825900E+02 -0.40001698761E+02  0.16397753249E+03  0.17090070607E+03  0.00000000000E+00 0.  1.
</event>
<event>
12    1  0.8271773E-002  0.1897510E+03  0.7818608E-02  0.1159319E+00
         21   -1    0    0  501  502  0.00000000000E+00  0.00000000000E+00  0.22567634904E+03  0.22567634904E+03  0.00000000000E+00 0.  1.
         21   -1    0    0  502  503 -0.00000000000E+00 -0.00000000000E+00 -0.21336793402E+03  0.21336793402E+03  0.00000000000E+00 0.  1.
         -6    2    1    2    0  503  0.64665572304E+02 -0.37886747849E+02 -0.10642503312E+03  0.21755860728E+03  0.17432274098E+03 0.  0.
        -24    2    3    3    0    0 -0.75995475701E+01  0.16787878878E+02 -0.79321965987E+01  0.83638888033E+02  0.81197031030E+02 0.  0.
          6    2    1    2  501    0 -0.64665572304E+02  0.37886747849E+02  0.11873344814E+03  0.22148567578E+03  0.17129282227E+03 0.  0.
         24    2    5    5    0    0 -0.42128285852E+02  0.38348718022E+02 -0.10216879503E+00  0.10043966572E+03  0.82720610304E+02 0.  0.
          5    1    5    5  501    0 -0.22537286452E+02 -0.46197017230E+00  0.11883561694E+03  0.12104601006E+03  0.47000000000E+01 0. -1.
        -13    1    6    6    0    0 -0.29064039032E+02 -0.26525757833E+01  0.34523410951E+02  0.45206420195E+02  0.00000000000E+00 0.  1.
         14    1    6    6    0    0 -0.13064246820E+02  0.41001293805E+02 -0.34625579746E+02  0.55233245527E+02  0.00000000000E+00 0. -1.
         -5    1    3    3    0  503  0.72265119874E+02 -0.54674626728E+02 -0.98492836518E+02  0.13391971925E+03  0.47000000000E+01 0.  1.
         13    1    4    4    0    0 -0.25322063067E+02 -0.12241296644E+02  0.24009576075E+02  0.36979940032E+02  0.00000000000E+00 0. -1.
        -14    1    4    4    0    0  0.17722515497E+02  0.29029175522E+02 -0.31941772674E+02  0.46658948001E+02  0.00000000000E+00 0.  1.
</event>
<event>
12    1  0.8271773E-002  0.2131762E+03  0.7818608E-02  0.1139117E+00
         21   -1    0    0  501  502  0.00000000000E+00  0.00000000000E+00  0.40456407387E+03  0.40456407387E+03  0.00000000000E+00 0. -1.
         21   -1    0    0  502  503 -0.00000000000E+00 -0.00000000000E+00 -0.33655317734E+03  0.33655317734E+03  0.00000000000E+00 0.  1.
         -6    2    1    2    0  503 -0.34942397514E+02 -0.12029086077E+03 -0.26852845574E+03  0.34285800095E+03  0.17249120253E+03 0.  0.
        -24    2    3    3    0    0 -0.20074908206E+02 -0.10873687689E+03 -0.28529231702E+03  0.31721323878E+03  0.83700790759E+02 0.  0.
          6    2    1    2  501    0  0.34942397514E+02  0.12029086077E+03  0.33653935226E+03  0.39825925025E+03  0.17222320535E+03 0.  0.
         24    2    5    5    0    0 -0.38948091084E+02  0.68912755797E+02  0.18422935154E+03  0.22128484449E+03  0.93598112805E+02 0.  0.
          5    1    5    5  501    0  0.73890488598E+02  0.51378104973E+02  0.15231000072E+03  0.17697440576E+03  0.47000000000E+01 0. -1.
        -13    1    6    6    0    0  0.17670396747E+02 -0.36346991465E+01  0.81029204301E+02  0.83013167080E+02  0.00000000000E+00 0.  1.
         14    1    6    6    0    0 -0.56618487831E+02  0.72547454944E+02  0.10320014724E+03  0.13827167741E+03  0.00000000000E+00 0. -1.
         -5    1    3    3    0  503 -0.14867489308E+02 -0.11553983881E+02  0.16763861282E+02  0.25644762174E+02  0.47000000000E+01 0.  1.
         13    1    4    4    0    0 -0.22542843951E+02  0.26607630503E+01 -0.23390752139E+02  0.32594274943E+02  0.00000000000E+00 0. -1.
        -14    1    4    4    0    0  0.24679357445E+01 -0.11139763994E+03 -0.26190156488E+03  0.28461896384E+03  0.00000000000E+00 0.  1.
</event>
<event>
12    1  0.8271773E-002  0.2135216E+03  0.7818608E-02  0.1138907E+00
         21   -1    0    0  501  502  0.00000000000E+00  0.00000000000E+00  0.13895645376E+03  0.13895645376E+03  0.00000000000E+00 0.  1.
         21   -1    0    0  502  503 -0.00000000000E+00 -0.00000000000E+00 -0.34406504569E+03  0.34406504569E+03  0.00000000000E+00 0. -1.
         -6    2    1    2    0  503  0.62612543337E+01  0.12563245713E+03 -0.15573882680E+03  0.26386668003E+03  0.17189626251E+03 0.  0.
        -24    2    3    3    0    0 -0.57843829709E+02  0.10330108347E+03 -0.88919331674E+02  0.16849851459E+03  0.80424370635E+02 0.  0.
          6    2    1    2  501    0 -0.62612543337E+01 -0.12563245713E+03 -0.49369765129E+02  0.21915481942E+03  0.17253620947E+03 0.  0.
         24    2    5    5    0    0  0.15707988167E+02 -0.15543283489E+03 -0.36321652608E+02  0.17961934964E+03  0.80856300079E+02 0.  0.
          5    1    5    5  501    0 -0.21969242501E+02  0.29800377762E+02 -0.13048112521E+02  0.39535469785E+02  0.47000000000E+01 0. -1.
        -11    1    6    6    0    0  0.14234963430E+02 -0.34675003241E+01  0.13262595495E+02  0.19762443716E+02  0.00000000000E+00 0.  1.
         12    1    6    6    0    0  0.14730247368E+01 -0.15196533456E+03 -0.49584248103E+02  0.15985690592E+03  0.00000000000E+00 0. -1.
         -5    1    3    3    0  503  0.64105084043E+02  0.22331373655E+02 -0.66819495129E+02  0.95368165437E+02  0.47000000000E+01 0.  1.
         13    1    4    4    0    0 -0.43262512353E+01 -0.97078267364E+01 -0.26897378887E+02  0.28921053589E+02  0.00000000000E+00 0. -1.
        -14    1    4    4    0    0 -0.53517578474E+02  0.11300891021E+03 -0.62021952787E+02  0.13957746100E+03  0.00000000000E+00 0.  1.
</event>
<event>
12    1  0.8271773E-002  0.1754837E+03  0.7818608E-02  0.1172444E+00
         21   -1    0    0  503  502  0.00000000000E+00  0.00000000000E+00  0.13241317412E+03  0.13241317412E+03  0.00000000000E+00 0.  1.
         21   -1    0    0  501  503 -0.00000000000E+00 -0.00000000000E+00 -0.42320334642E+03  0.42320334642E+03  0.00000000000E+00 0.  1.
          6    2    1    2  501    0 -0.40357898256E+02 -0.12130050758E+02 -0.33253725405E+03  0.37599941258E+03  0.17034856866E+03 0.  0.
         24    2    3    3    0    0 -0.69924678277E+02 -0.38115613474E+02 -0.11929358922E+03  0.15910221448E+03  0.68849790139E+02 0.  0.
         -6    2    1    2    0  502  0.40357898256E+02  0.12130050758E+02  0.41747081757E+02  0.17961710796E+03  0.16953934220E+03 0.  0.
        -24    2    5    5    0    0  0.29092718259E+02  0.65619484178E+02  0.54755063402E+02  0.12323163683E+03  0.83878581229E+02 0.  0.
          5    1    3    3  501    0  0.29566780021E+02  0.25985562716E+02 -0.21324366484E+03  0.21689719810E+03  0.47000000000E+01 0. -1.
        -13    1    4    4    0    0 -0.11923614796E+02 -0.15559471187E+02 -0.86626511150E+02  0.88816789896E+02  0.00000000000E+00 0.  1.
         14    1    4    4    0    0 -0.58001063481E+02 -0.22556142287E+02 -0.32667078067E+02  0.70285424586E+02  0.00000000000E+00 0. -1.
         -5    1    5    5    0  502  0.11265179997E+02 -0.53489433420E+02 -0.13007981645E+02  0.56385471129E+02  0.47000000000E+01 0.  1.
         11    1    6    6    0    0  0.14828054768E+02  0.76387129598E+02  0.66069720985E+02  0.10207875787E+03  0.00000000000E+00 0. -1.
        -12    1    6    6    0    0  0.14264663491E+02 -0.10767645420E+02 -0.11314657583E+02  0.21152878967E+02  0.00000000000E+00 0.  1.
</event>
<event>
12    1  0.8271773E-002  0.2015706E+03  0.7818608E-02  0.1149261E+00
         21   -1    0    0  501  502  0.00000000000E+00  0.00000000000E+00  0.48454895624E+03  0.48454895624E+03  0.00000000000E+00 0.  1.
         21   -1    0    0  502  503 -0.00000000000E+00 -0.00000000000E+00 -0.10697195450E+03  0.10697195450E+03  0.00000000000E+00 0.  1.
         -6    2    1    2    0  503  0.91935066575E+02  0.27800044499E+02  0.47926359127E+02  0.20718987035E+03  0.17721683762E+03 0.  0.
        -24    2    3    3    0    0  0.95403321443E+01  0.62861328116E+01  0.85267143513E+02  0.11408689061E+03  0.74931965434E+02 0.  0.
          6    2    1    2  501    0 -0.91935066575E+02 -0.27800044499E+02  0.32965064261E+03  0.38433104038E+03  0.17267282209E+03 0.  0.
         24    2    5    5    0    0  0.15847930108E+01  0.29587792086E+02  0.11210061229E+03  0.14063156640E+03  0.79578522132E+02 0.  0.
          5    1    5    5  501    0 -0.93519859585E+02 -0.57387836585E+02  0.21755003032E+03  0.24369947398E+03  0.47000000000E+01 0. -1.
        -11    1    6    6    0    0 -0.13881140290E+02  0.13359476113E+02  0.11624786397E+03  0.11783347375E+03  0.00000000000E+00 0.  1.
         12    1    6    6    0    0  0.15465933301E+02  0.16228315973E+02 -0.41472516845E+01  0.22798092655E+02  0.00000000000E+00 0. -1.
         -5    1    3    3    0  503  0.82394734430E+02  0.21513911687E+02 -0.37340784386E+02  0.93102979740E+02  0.47000000000E+01 0.  1.
         13    1    4    4    0    0  0.28943910419E+02  0.32063298796E+02  0.54087627006E+02  0.69219047054E+02  0.00000000000E+00 0. -1.
        -14    1    4    4    0    0 -0.19403578275E+02 -0.25777165984E+02  0.31179516507E+02  0.44867843559E+02  0.00000000000E+00 0.  1.
</event>
<event>
12    1  0.8271773E-002  0.1748097E+03  0.7818608E-02  0.1173073E+00
         21   -1    0    0  501  502  0.00000000000E+00  0.00000000000E+00  0.22730547096E+04  0.22730547096E+04  0.00000000000E+00 0.  1.
         21   -1    0    0  502  503 -0.00000000000E+00 -0.00000000000E+00 -0.16157750351E+02  0.16157750351E+02  0.00000000000E+00 0.  1.
         -6    2    1    2    0  503 -0.28210577628E+02 -0.47349834528E+01  0.65699845422E+03  0.67985690655E+03  0.17245343658E+03 0.  0.
        -24    2    3    3    0    0 -0.52805086979E+01  0.62122180206E+02  0.33573514846E+03  0.35087686153E+03  0.80681057283E+02 0.  0.
          6    2    1    2  501    0  0.28210577628E+02  0.47349834528E+01  0.15998985051E+04  0.16093555534E+04  0.17184822982E+03 0.  0.
         24    2    5    5    0    0  0.27055798455E+02  0.64518460340E+02  0.12280738714E+04  0.12327243733E+04  0.80927739575E+02 0.  0.
          5    1    5    5  501    0  0.11547791733E+01 -0.59783476887E+02  0.37182463367E+03  0.37663118010E+03  0.47000000000E+01 0. -1.
        -13    1    6    6    0    0 -0.23452806312E+02  0.11453352151E+02  0.56762909237E+03  0.56822882707E+03  0.00000000000E+00 0.  1.
         14    1    6    6    0    0  0.50508604767E+02  0.53065108189E+02  0.66044477904E+03  0.66449554627E+03  0.00000000000E+00 0. -1.
         -5    1    3    3    0  503 -0.22930068930E+02 -0.66857163659E+02  0.32126330576E+03  0.32898004502E+03  0.47000000000E+01 0.  1.
         11    1    4    4    0    0 -0.21484837955E+02 -0.55372860552E+01  0.29926213324E+02  0.37253698377E+02  0.00000000000E+00 0. -1.
        -12    1    4    4    0    0  0.16204329257E+02  0.67659466262E+02  0.30580893513E+03  0.31362316316E+03  0.00000000000E+00 0.  1.
</event>
<event>
12    1  0.8271773E-002  0.1981857E+03  0.7818608E-02  0.1151386E+00
         21   -1    0    0  501  502  0.00000000000E+00  0.00000000000E+00  0.76086475253E+03  0.76086475253E+03  0.00000000000E+00 0.  1.
         21   -1    0    0  502  503 -0.00000000000E+00 -0.00000000000E+00 -0.13270047730E+03  0.13270047730E+03  0.00000000000E+00 0.  1.
         -6    2    1    2    0  503  0.53099875587E+02  0.81018324846E+02 -0.35274678317E+02  0.20130047756E+03  0.17289885363E+03 0.  0.
        -24    2    3    3    0    0  0.23566142941E+02  0.77700855532E+02  0.39973267775E+02  0.12025980655E+03  0.79194525639E+02 0.  0.
          6    2    1    2  501    0 -0.53099875587E+02 -0.81018324846E+02  0.66343895355E+03  0.69226475227E+03  0.17232433490E+03 0.  0.
         24    2    5    5    0    0  0.25924994103E+02 -0.74019638970E+02  0.47074370839E+03  0.48382421125E+03  0.79594070944E+02 0.  0.
          5    1    5    5  501    0 -0.79024869690E+02 -0.69986858755E+01  0.19269524516E+03  0.20844054102E+03  0.47000000000E+01 0. -1.
        -13    1    6    6    0    0  0.43021030319E+02 -0.82908106660E+01  0.18095164616E+03  0.18618014083E+03  0.00000000000E+00 0.  1.
         14    1    6    6    0    0 -0.17096036216E+02 -0.65728828304E+02  0.28979206223E+03  0.29764407042E+03  0.00000000000E+00 0. -1.
         -5    1    3    3    0  503  0.29533732646E+02  0.33174693138E+01 -0.75247946092E+02  0.81040671010E+02  0.47000000000E+01 0.  1.
         13    1    4    4    0    0 -0.98767913220E+01 -0.11604919905E+02  0.15651681094E+02  0.21844914600E+02  0.00000000000E+00 0. -1.
        -14    1    4    4    0    0  0.33442934263E+02  0.89305775437E+02  0.24321586681E+02  0.98414891949E+02  0.00000000000E+00 0.  1.
</event>
<event>
12    1  0.8271773E-002  0.1970616E+03  0.7818608E-02  0.1152527E+00
         21   -1    0    0  501  502  0.00000000000E+00  0.00000000000E+00  0.56480830287E+02  0.56480830287E+02  0.00000000000E+00 0. -1.
         21   -1    0    0  502  503 -0.00000000000E+00 -0.00000000000E+00 -0.11052197359E+04  0.11052197359E+04  0.00000000000E+00 0. -1.
         -6    2    1    2    0  503 -0.37847932805E+02 -0.88030425634E+02 -0.88231235723E+03  0.90376441861E+03  0.17068452408E+03 0.  0.
        -24    2    3    3    0    0 -0.39092423206E+02 -0.12205508204E+03 -0.55561476574E+03  0.57526383674E+03  0.76125247760E+02 0.  0.
          6    2    1    2  501    0  0.37847932805E+02  0.88030425634E+02 -0.16642654835E+03  0.25793614755E+03  0.17219593016E+03 0.  0.
         24    2    5    5    0    0  0.43060096718E+02  0.73726397363E+02 -0.19584253061E+03  0.22448227051E+03  0.68907469692E+02 0.  0.
          5    1    5    5  501    0 -0.52121639137E+01  0.14304028271E+02  0.29415982255E+02  0.33453877047E+02  0.47000000000E+01 0. -1.
        -11    1    6    6    0    0 -0.15769806686E+02  0.15916943928E+02 -0.74233791089E+02  0.77541547872E+02  0.00000000000E+00 0.  1.
         12    1    6    6    0    0  0.58829903404E+02  0.57809453435E+02 -0.12160873952E+03  0.14694072264E+03  0.00000000000E+00 0. -1.
         -5    1    3    3    0  503  0.12444904011E+01  0.34024656410E+02 -0.32669759149E+03  0.32850058187E+03  0.47000000000E+01 0.  1.
         13    1    4    4    0    0 -0.45502697624E+02 -0.82020253101E+02 -0.48367055394E+03  0.49268146115E+03  0.00000000000E+00 0. -1.
        -14    1    4    4    0    0  0.64102744188E+01 -0.40034828944E+02 -0.71944211793E+02  0.82582375585E+02  0.00000000000E+00 0.  1.
</event>
<event>
12    1  0.8271773E-002  0.2020040E+03  0.7818608E-02  0.1148261E+00
         21   -1    0    0  501  502  0.00000000000E+00  0.00000000000E+00  0.52753783717E+03  0.52753783717E+03  0.00000000000E+00 0.  1.
         21   -1    0    0  502  503 -0.00000000000E+00 -0.00000000000E+00 -0.29622901440E+03  0.29622901440E+03  0.00000000000E+00 0. -1.
         -6    2    1    2    0  503 -0.10394343869E+03  0.44577276266E+01 -0.23861965301E+03  0.31264188293E+03  0.17315166293E+03 0.  0.
        -24    2    3    3    0    0 -0.11024755236E+03  0.48027726694E+02 -0.12495543218E+03  0.19065937695E+03  0.79220910452E+02 0.  0.
          6    2    1    2  501    0  0.10394343869E+03 -0.44577276266E+01  0.46992847578E+03  0.51112496863E+03  0.17202282240E+03 0.  0.
         24    2    5    5    0    0  0.13250363081E+03 -0.69897273196E+01  0.29800614022E+03  0.33676478092E+03  0.83646814584E+02 0.  0.
          5    1    5    5  501    0 -0.28560192120E+02  0.25319996930E+01  0.17192233556E+03  0.17436018772E+03  0.47000000000E+01 0. -1.
        -11    1    6    6    0    0  0.84400352640E+01 -0.60012242918E+01  0.11619515891E+03  0.11665574929E+03  0.00000000000E+00 0.  1.
         12    1    6    6    0    0  0.12406359554E+03 -0.98850302776E+00  0.18181098131E+03  0.22010903162E+03  0.00000000000E+00 0. -1.
         -5    1    3    3    0  503  0.63041136775E+01 -0.43569999068E+02 -0.11366422083E+03  0.12198250598E+03  0.47000000000E+01 0.  1.
         11    1    4    4    0    0 -0.17194482382E+01  0.10666518384E+02 -0.55413516434E+02  0.56456965206E+02  0.00000000000E+00 0. -1.
        -12    1    4    4    0    0 -0.10852810413E+03  0.37361208310E+02 -0.69541915748E+02  0.13420241174E+03  0.00000000000E+00 0.  1.
</event>
<event>
12    1  0.8271773E-002  0.2459657E+03  0.7818608E-02  0.1116380E+00
         21   -1    0    0  503  502  0.00000000000E+00  0.00000000000E+00  0.82889186510E+03  0.82889186510E+03  0.00000000000E+00 0.  1.
         21   -1    0    0  501  503 -0.00000000000E+00 -0.00000000000E+00 -0.51805682540E+03  0.51805682540E+03  0.00000000000E+00 0.  1.
          6    2    1    2  501    0 -0.11308423755E+03 -0.12757176378E+03 -0.46958441363E+03  0.52868612354E+03  0.17302281931E+03 0.  0.
         24    2    3    3    0    0 -0.81356906977E+02 -0.32422208787E+02 -0.36180815505E+03  0.38138414380E+03  0.82937194001E+02 0.  0.
         -6    2    1    2    0  502  0.11308423755E+03  0.12757176378E+03  0.78041945333E+03  0.81826256696E+03  0.17730342822E+03 0.  0.
        -24    2    5    5    0    0 -0.11533111210E+02  0.52795162291E+02  0.36328563323E+03  0.37651180282E+03  0.82851340008E+02 0.  0.
          5    1    3    3  501    0 -0.31727330568E+02 -0.95149554994E+02 -0.10777625858E+03  0.14730197974E+03  0.47000000000E+01 0. -1.
        -13    1    4    4    0    0 -0.77927968263E+02 -0.18914300236E+02 -0.35809176415E+03  0.36696080246E+03  0.00000000000E+00 0.  1.
         14    1    4    4    0    0 -0.34289387145E+01 -0.13507908552E+02 -0.37163908994E+01  0.14423341342E+02  0.00000000000E+00 0. -1.
         -5    1    5    5    0  502  0.12461734876E+03  0.74776601490E+02  0.41713382010E+03  0.44175076414E+03  0.47000000000E+01 0.  1.
         11    1    6    6    0    0 -0.56629100114E+01  0.59069206745E+01 -0.18017994615E+01  0.83789464106E+01  0.00000000000E+00 0. -1.
        -12    1    6    6    0    0 -0.58702011981E+01  0.46888241617E+02  0.36508743269E+03  0.36813285641E+03  0.00000000000E+00 0.  1.
</event>
<event>
12    1  0.8271773E-002  0.1770404E+03  0.7818608E-02  0.1171277E+00
         21   -1    0    0  501  502  0.00000000000E+00  0.00000000000E+00  0.90080402597E+02  0.90080402597E+02  0.00000000000E+00 0.  1.
         21   -1    0    0  502  503 -0.00000000000E+00 -0.00000000000E+00 -0.41887971844E+03  0.41887971844E+03  0.00000000000E+00 0.  1.
         -6    2    1    2    0  503  0.15795903240E+02 -0.39754621043E+02 -0.27153383534E+03  0.32288856483E+03  0.16940029844E+03 0.  0.
        -24    2    3    3    0    0  0.72963593198E+02 -0.28530993839E+02 -0.14500733485E+03  0.18351439252E+03  0.80701310761E+02 0.  0.
          6    2    1    2  501    0 -0.15795903240E+02  0.39754621043E+02 -0.57265480506E+02  0.18607155621E+03  0.17179449443E+03 0.  0.
         24    2    5    5    0    0  0.45598217440E+02  0.33253867176E+02  0.51323062380E+01  0.98167792660E+02  0.80159577298E+02 0.  0.
          5    1    5    5  501    0 -0.61394120680E+02  0.65007538669E+01 -0.62397786744E+02  0.87903763546E+02  0.47000000000E+01 0. -1.
        -11    1    6    6    0    0  0.10614683273E+01 -0.12699727838E+02  0.27554749505E+02  0.30359084677E+02  0.00000000000E+00 0.  1.
         12    1    6    6    0    0  0.44536749113E+02  0.45953595014E+02 -0.22422443267E+02  0.67808707983E+02  0.00000000000E+00 0. -1.
         -5    1    3    3    0  503 -0.57167689958E+02 -0.11223627204E+02 -0.12652650049E+03  0.13937417232E+03  0.47000000000E+01 0.  1.
         11    1    4    4    0    0  0.25518222473E+02 -0.49722449245E+02 -0.48909931265E+02  0.74267644459E+02  0.00000000000E+00 0. -1.
        -12    1    4    4    0    0  0.47445370725E+02  0.21191455406E+02 -0.96097403583E+02  0.10924674806E+03  0.00000000000E+00 0.  1.
</event>
<event>
12    1  0.8271773E-002  0.1931575E+03  0.7818608E-02  0.1157049E+00
         21   -1    0    0  501  502  0.00000000000E+00  0.00000000000E+00  0.63215297284E+03  0.63215297284E+03  0.00000000000E+00 0. -1.
         21   -1    0    0  502  503 -0.00000000000E+00 -0.00000000000E+00 -0.73110974239E+02  0.73110974239E+02  0.00000000000E+00 0.  1.
         -6    2    1    2    0  503  0.35563386789E+02  0.65222179314E+02  0.11823676722E+03  0.22647244999E+03  0.17830073003E+03 0.  0.
        -24    2    3    3    0    0 -0.43270013675E+02  0.35185593743E+02  0.10181401885E+03  0.14039865511E+03  0.78964345325E+02 0.  0.
          6    2    1    2  501    0 -0.35563386789E+02 -0.65222179314E+02  0.44080523138E+03  0.47879149708E+03  0.17150323178E+03 0.  0.
         24    2    5    5    0    0  0.42962979963E+02 -0.55068713718E+02  0.25025830303E+03  0.27239453722E+03  0.81799662536E+02 0.  0.
          5    1    5    5  501    0 -0.78526366752E+02 -0.10153465596E+02  0.19054692835E+03  0.20639695987E+03  0.47000000000E+01 0. -1.
        -11    1    6    6    0    0  0.30815159197E+02 -0.60948328627E+02  0.97493114204E+02  0.11903436527E+03  0.00000000000E+00 0.  1.
         12    1    6    6    0    0  0.12147820766E+02  0.58796149094E+01  0.15276518883E+03  0.15336017194E+03  0.00000000000E+00 0. -1.
         -5    1    3    3    0  503  0.78833400464E+02  0.30036585572E+02  0.16422748371E+02  0.86073794883E+02  0.47000000000E+01 0.  1.
         11    1    4    4    0    0 -0.20759281048E+02  0.40433563748E+02  0.10739771327E+03  0.11661942224E+03  0.00000000000E+00 0. -1.
        -12    1    4    4    0    0 -0.22510732627E+02 -0.52479700054E+01 -0.55836944249E+01  0.23779232873E+02  0.00000000000E+00 0.  1.
</event>
<event>
12    1  0.8271773E-002  0.1983646E+03  0.7818608E-02  0.1151188E+00
         21   -1    0    0  501  502  0.00000000000E+00  0.00000000000E+00  0.15364436832E+03  0.15364436832E+03  0.00000000000E+00 0.  1.
         21   -1    0    0  502  503 -0.00000000000E+00 -0.00000000000E+00 -0.38077706829E+03  0.38077706829E+03  0.00000000000E+00 0.  1.
         -6    2    1    2    0  503 -0.56473149612E+02  0.79691494334E+02 -0.26675374973E+03  0.33242451994E+03  0.17265152059E+03 0.  0.
        -24    2    3    3    0    0 -0.33979417827E+02 -0.18927239739E+02 -0.17331132040E+03  0.19463772710E+03  0.79587623364E+02 0.  0.
          6    2    1    2  501    0  0.56473149612E+02 -0.79691494334E+02  0.39621049758E+02  0.20199691667E+03  0.17231649911E+03 0.  0.
         24    2    5    5    0    0  0.91551094356E+01  0.12258363024E+02  0.55143339667E+02  0.97322160031E+02  0.78719320568E+02 0.  0.
          5    1    5    5  501    0  0.47318040177E+02 -0.91949857358E+02 -0.15522289910E+02  0.10467475664E+03  0.47000000000E+01 0. -1.
        -13    1    6    6    0    0  0.16035037276E+02 -0.16331015563E+02  0.62880100468E+02  0.66915854060E+02  0.00000000000E+00 0.  1.
         14    1    6    6    0    0 -0.68799278407E+01  0.28589378587E+02 -0.77367608004E+01  0.30406305971E+02  0.00000000000E+00 0. -1.
         -5    1    3    3    0  503 -0.22493731786E+02  0.98618734073E+02 -0.93442429333E+02  0.13778679283E+03  0.47000000000E+01 0.  1.
         11    1    4    4    0    0 -0.49458073624E+02 -0.14844218570E+02 -0.55744991053E+02  0.75986550777E+02  0.00000000000E+00 0. -1.
        -12    1    4    4    0    0  0.15478655797E+02 -0.40830211691E+01 -0.11756632935E+03  0.11865117633E+03  0.00000000000E+00 0.  1.
</event>
<event>
12    1  0.8271773E-002  0.2355830E+03  0.7818608E-02  0.1122838E+00
         21   -1    0    0  503  502  0.00000000000E+00  0.00000000000E+00  0.91660306090E+03  0.91660306090E+03  0.00000000000E+00 0. -1.
         21   -1    0    0  501  503 -0.00000000000E+00 -0.00000000000E+00 -0.68150844474E+02  0.68150844474E+02  0.00000000000E+00 0. -1.
          6    2    1    2  501    0  0.94961366448E+02  0.13005275165E+03  0.25838107500E+03  0.34939315568E+03  0.17141592104E+03 0.  0.
         24    2    3    3    0    0  0.45240901457E+02  0.14331159555E+03  0.24022258948E+03  0.29462325357E+03  0.80690869774E+02 0.  0.
         -6    2    1    2    0  502 -0.94961366448E+02 -0.13005275165E+03  0.59007114142E+03  0.63536074969E+03  0.17195333955E+03 0.  0.
        -24    2    5    5    0    0 -0.83919606946E+02 -0.36461858814E+02  0.45477613304E+03  0.47041225783E+03  0.78066596930E+02 0.  0.
          5    1    3    3  501    0  0.49720464991E+02 -0.13258843894E+02  0.18158485521E+02  0.54769902107E+02  0.47000000000E+01 0. -1.
        -13    1    4    4    0    0 -0.63238269457E+01  0.97970187706E+02  0.17064036669E+03  0.19686615557E+03  0.00000000000E+00 0.  1.
         14    1    4    4    0    0  0.51564728403E+02  0.45341407841E+02  0.69582222793E+02  0.97757097998E+02  0.00000000000E+00 0. -1.
         -5    1    5    5    0  502 -0.11041759503E+02 -0.93590892839E+02  0.13529500838E+03  0.16494849187E+03  0.47000000000E+01 0.  1.
         13    1    6    6    0    0 -0.68253228317E+02 -0.23125936073E+02  0.43793454737E+03  0.44382426688E+03  0.00000000000E+00 0. -1.
        -14    1    6    6    0    0 -0.15666378629E+02 -0.13335922741E+02  0.16841585670E+02  0.26587990947E+02  0.00000000000E+00 0.  1.
</event>
<event>
12    1  0.8271773E-002  0.1899256E+03  0.7818608E-02  0.1161860E+00
         21   -1    0    0  501  502  0.00000000000E+00  0.00000000000E+00  0.34546561021E+03  0.34546561021E+03  0.00000000000E+00 0. -1.
         21   -1    0    0  502  503 -0.00000000000E+00 -0.00000000000E+00 -0.43790699779E+03  0.43790699779E+03  0.00000000000E+00 0. -1.
         -6    2    1    2    0  503  0.29932559117E+02  0.22385939167E+01 -0.39226879723E+03  0.43582856037E+03  0.18753867696E+03 0.  0.
        -24    2    3    3    0    0 -0.32854328077E+02  0.62416211940E+02 -0.19661375989E+03  0.22166385144E+03  0.74180199991E+02 0.  0.
          6    2    1    2  501    0 -0.29932559117E+02 -0.22385939167E+01  0.29982740965E+03  0.34754404762E+03  0.17317453641E+03 0.  0.
         24    2    5    5    0    0 -0.72712175139E+02 -0.50457587056E+01  0.11351201512E+03  0.15630207535E+03  0.78948344417E+02 0.  0.
          5    1    5    5  501    0  0.42779616022E+02  0.28071647889E+01  0.18631539453E+03  0.19124197227E+03  0.47000000000E+01 0. -1.
        -11    1    6    6    0    0 -0.17657354650E+02 -0.21719108129E+02  0.89836564671E+02  0.94096281451E+02  0.00000000000E+00 0.  1.
         12    1    6    6    0    0 -0.55054820489E+02  0.16673349423E+02  0.23675450452E+02  0.62205793895E+02  0.00000000000E+00 0. -1.
         -5    1    3    3    0  503  0.62786887194E+02 -0.60177618023E+02 -0.19565503734E+03  0.21416470893E+03  0.47000000000E+01 0.  1.
         13    1    4    4    0    0  0.18633025214E+02  0.13583334783E+01 -0.65748822023E+02  0.68351607852E+02  0.00000000000E+00 0. -1.
        -14    1    4    4    0    0 -0.51487353291E+02  0.61057878462E+02 -0.13086493787E+03  0.15331224359E+03  0.00000000000E+00 0.  1.
</event>
<event>
12    1  0.8271773E-002  0.2450404E+03  0.7818608E-02  0.1116739E+00
         21   -1    0    0  503  502  0.00000000000E+00  0.00000000000E+00  0.12204190457E+04  0.12204190457E+04  0.00000000000E+00 0.  1.
         21   -1    0    0  501  503 -0.00000000000E+00 -0.00000000000E+00 -0.95254561710E+02  0.95254561710E+02  0.00000000000E+00 0.  1.
          6    2    1    2  501    0  0.17301878397E+03  0.10064423866E+02  0.10264059618E+03  0.26419849158E+03  0.17096478799E+03 0.  0.
         24    2    3    3    0    0  0.15698272879E+03  0.59932449536E+02  0.63355823981E+02  0.19855278816E+03  0.84698132264E+02 0.  0.
         -6    2    1    2    0  502 -0.17301878397E+03 -0.10064423866E+02  0.10225238878E+04  0.10514751158E+04  0.17322824784E+03 0.  0.
        -24    2    5    5    0    0 -0.13015471292E+03 -0.23833144573E+02  0.41852683931E+03  0.44578424514E+03  0.77785666494E+02 0.  0.
          5    1    3    3  501    0  0.16036055178E+02 -0.49868025670E+02  0.39284772203E+02  0.65645703415E+02  0.47000000000E+01 0. -1.
        -11    1    4    4    0    0  0.39602504406E+02  0.94970502101E+01 -0.20639921985E+02  0.45656967677E+02  0.00000000000E+00 0.  1.
         12    1    4    4    0    0  0.11738022438E+03  0.50435399326E+02  0.83995745966E+02  0.15289582048E+03  0.00000000000E+00 0. -1.
         -5    1    5    5    0  502 -0.42864071045E+02  0.13768720707E+02  0.60399704847E+03  0.60569087068E+03  0.47000000000E+01 0.  1.
         11    1    6    6    0    0 -0.79040235805E+02  0.22043430939E+02  0.18532995156E+03  0.20268315833E+03  0.00000000000E+00 0. -1.
        -12    1    6    6    0    0 -0.51114477117E+02 -0.45876575512E+02  0.23319688775E+03  0.24310108681E+03  0.00000000000E+00 0.  1.
</event>
<event>
12    1  0.8271773E-002  0.2379904E+03  0.7818608E-02  0.1121296E+00
         21   -1    0    0  503  502  0.00000000000E+00  0.00000000000E+00  0.73346077670E+03  0.73346077670E+03  0.00000000000E+00 0.  1.
         21   -1    0    0  501  503 -0.00000000000E+00 -0.00000000000E+00 -0.97398116292E+02  0.97398116292E+02  0.00000000000E+00 0.  1.
          6    2    1    2  501    0  0.14132863735E+03 -0.82817448566E+02  0.12803965653E+03  0.27024722616E+03  0.17264673782E+03 0.  0.
         24    2    3    3    0    0  0.73357706126E+01 -0.16867938155E+02  0.35081252631E+02  0.94273418120E+02  0.85547894245E+02 0.  0.
         -6    2    1    2    0  502 -0.14132863735E+03  0.82817448566E+02  0.50802300388E+03  0.56061166683E+03  0.17136380890E+03 0.  0.
        -24    2    5    5    0    0 -0.75901815876E+02  0.13452382551E+02  0.40956943715E+03  0.42347167940E+03  0.75093855667E+02 0.  0.
          5    1    3    3  501    0  0.13399286674E+03 -0.65949510411E+02  0.92958403901E+02  0.17597380804E+03  0.47000000000E+01 0. -1.
        -11    1    4    4    0    0  0.44176639461E+02  0.14671097936E+01  0.28517389253E+02  0.52601990219E+02  0.00000000000E+00 0.  1.
         12    1    4    4    0    0 -0.36840868849E+02 -0.18335047949E+02  0.65638633784E+01  0.41671427901E+02  0.00000000000E+00 0. -1.
         -5    1    5    5    0  502 -0.65426821473E+02  0.69365066015E+02  0.98453566723E+02  0.13713998743E+03  0.47000000000E+01 0.  1.
         11    1    6    6    0    0 -0.91309050208E+02  0.10308448572E+02  0.34883546643E+03  0.36073506816E+03  0.00000000000E+00 0. -1.
        -12    1    6    6    0    0  0.15407234332E+02  0.31439339793E+01  0.60733970723E+02  0.62736611245E+02  0.00000000000E+00 0.  1.
</event>
<event>
12    1  0.8271773E-002  0.1924515E+03  0.7818608E-02  0.1157125E+00
         21   -1    0    0  503  502  0.00000000000E+00  0.00000000000E+00  0.20946244180E+03  0.20946244180E+03  0.00000000000E+00 0.  1.
         21   -1    0    0  501  503 -0.00000000000E+00 -0.00000000000E+00 -0.26959577238E+03  0.26959577238E+03  0.00000000000E+00 0. -1.
          6    2    1    2  501    0 -0.37951111389E+02  0.70106570039E+02 -0.17300117223E+03  0.25595119548E+03  0.17095727786E+03 0.  0.
         24    2    3    3    0    0 -0.13422346178E+02 -0.16008308287E+02 -0.13460625853E+03  0.15841303889E+03  0.80866685013E+02 0.  0.
         -6    2    1    2    0  502  0.37951111389E+02 -0.70106570039E+02  0.11286784165E+03  0.22310701871E+03  0.17516384930E+03 0.  0.
        -24    2    5    5    0    0  0.92576388675E+02 -0.45696386381E+02  0.60140493748E+02  0.14321934005E+03  0.78970582549E+02 0.  0.
          5    1    3    3  501    0 -0.24528765210E+02  0.86114878326E+02 -0.38394913705E+02  0.97538156586E+02  0.47000000000E+01 0. -1.
        -11    1    4    4    0    0 -0.38455684088E+01  0.44163378356E+01  0.10253194730E+02  0.11807643221E+02  0.00000000000E+00 0.  1.
         12    1    4    4    0    0 -0.95767777695E+01 -0.20424646122E+02 -0.14485945326E+03  0.14660539567E+03  0.00000000000E+00 0. -1.
         -5    1    5    5    0  502 -0.54625277287E+02 -0.24410183658E+02  0.52727347901E+02  0.79887678659E+02  0.47000000000E+01 0.  1.
         11    1    6    6    0    0  0.23660586744E+02  0.23213116462E+01 -0.16960011412E+02  0.29203661413E+02  0.00000000000E+00 0. -1.
        -12    1    6    6    0    0  0.68915801931E+02 -0.48017698028E+02  0.77100505160E+02  0.11401567864E+03  0.00000000000E+00 0.  1.
</event>
<event>
12    1  0.8271773E-002  0.1845294E+03  0.7818608E-02  0.1163801E+00
         21   -1    0    0  501  502  0.00000000000E+00  0.00000000000E+00  0.29131997034E+03  0.29131997034E+03  0.00000000000E+00 0.  1.
         21   -1    0    0  502  503 -0.00000000000E+00 -0.00000000000E+00 -0.11606663030E+03  0.11606663030E+03  0.00000000000E+00 0.  1.
         -6    2    1    2    0  503  0.39286142770E+02 -0.47533384797E+02  0.90369784015E+02  0.20546971402E+03  0.17392033185E+03 0.  0.
        -24    2    3    3    0    0  0.60471072784E+02 -0.30736191921E+02  0.12439810548E+03  0.16175514425E+03  0.78028032826E+02 0.  0.
          6    2    1    2  501    0 -0.39286142770E+02  0.47533384797E+02  0.84883556027E+02  0.20191688662E+03  0.17251778846E+03 0.  0.
         24    2    5    5    0    0 -0.22589591910E+02 -0.38384162306E+02  0.63688914130E+02  0.11173982437E+03  0.80286219172E+02 0.  0.
          5    1    5    5  501    0 -0.16696550860E+02  0.85917547104E+02  0.21194641898E+02  0.90177062250E+02  0.47000000000E+01 0. -1.
        -11    1    6    6    0    0 -0.42887587006E+01 -0.83129489624E+01  0.74367551201E+02  0.74953527224E+02  0.00000000000E+00 0.  1.
         12    1    6    6    0    0 -0.18300833210E+02 -0.30071213344E+02 -0.10678637071E+02  0.36786297148E+02  0.00000000000E+00 0. -1.
         -5    1    3    3    0  503 -0.21184930014E+02 -0.16797192876E+02 -0.34028321465E+02  0.43714569767E+02  0.47000000000E+01 0.  1.
         11    1    4    4    0    0 -0.17421001470E+02 -0.14573082274E+02  0.38329275120E+02  0.44553331530E+02  0.00000000000E+00 0. -1.
        -12    1    4    4    0    0  0.77892074255E+02 -0.16163109647E+02  0.86068830360E+02  0.11720181272E+03  0.00000000000E+00 0.  1.
</event>
<event>
12    1  0.8271773E-002  0.1922836E+03  0.7818608E-02  0.1156493E+00
         21   -1    0    0  503  502  0.00000000000E+00  0.00000000000E+00  0.56653436067E+02  0.56653436067E+02  0.00000000000E+00 0.  1.
         21   -1    0    0  501  503 -0.00000000000E+00 -0.00000000000E+00 -0.72737601034E+03  0.72737601034E+03  0.00000000000E+00 0.  1.
          6    2    1    2  501    0  0.85844212723E+02  0.29255818675E+01 -0.46173680522E+03  0.50004345211E+03  0.17165310605E+03 0.  0.
         24    2    3    3    0    0  0.12512539122E+02  0.44142857305E+02 -0.14072656338E+03  0.16816084709E+03  0.79805697588E+02 0.  0.
         -6    2    1    2    0  502 -0.85844212723E+02 -0.29255818675E+01 -0.20898576905E+03  0.28398599429E+03  0.17203257076E+03 0.  0.
        -24    2    5    5    0    0 -0.10724924034E+03  0.29624680767E+02 -0.20207016362E+03  0.24414116523E+03  0.79953338066E+02 0.  0.
          5    1    3    3  501    0  0.73331673601E+02 -0.41217275437E+02 -0.32101024184E+03  0.33188260502E+03  0.47000000000E+01 0. -1.
        -11    1    4    4    0    0  0.37069764442E+02  0.46969863482E+02 -0.12574558315E+03  0.13925619266E+03  0.00000000000E+00 0.  1.
         12    1    4    4    0    0 -0.24557225319E+02 -0.28270061772E+01 -0.14980980226E+02  0.28904654432E+02  0.00000000000E+00 0. -1.
         -5    1    5    5    0  502  0.21405027617E+02 -0.32550262634E+02 -0.69156054264E+01  0.39844829066E+02  0.47000000000E+01 0.  1.
         13    1    6    6    0    0 -0.22370211852E+02  0.45326680705E+02 -0.69219025713E+02  0.85710022067E+02  0.00000000000E+00 0. -1.
        -14    1    6    6    0    0 -0.84879028488E+02 -0.15701999938E+02 -0.13285113791E+03  0.15843114316E+03  0.00000000000E+00 0.  1.
</event>
<event>
12    1  0.8271773E-002  0.2765206E+03  0.7818608E-02  0.1097635E+00
         21   -1    0    0  501  502  0.00000000000E+00  0.00000000000E+00  0.14718821623E+04  0.14718821623E+04  0.00000000000E+00 0.  1.
         21   -1    0    0  502  503 -0.00000000000E+00 -0.00000000000E+00 -0.19607594226E+03  0.19607594226E+03  0.00000000000E+00 0.  1.
         -6    2    1    2    0  503 -0.68386854776E+02  0.20519751302E+03 -0.77281265006E+02  0.28690437275E+03  0.17192714715E+03 0.  0.
        -24    2    3    3    0    0 -0.74613702513E+02  0.12155020383E+03  0.12430670225E+02  0.16399803731E+03  0.79994862499E+02 0.  0.
          6    2    1    2  501    0  0.68386854776E+02 -0.20519751302E+03  0.13530874851E+04  0.13810537318E+04  0.17228141721E+03 0.  0.
         24    2    5    5    0    0  0.85740532601E+02 -0.10106437130E+03  0.10182510227E+04  0.10299377853E+04  0.79820112789E+02 0.  0.
          5    1    5    5  501    0 -0.17353677825E+02 -0.10413314172E+03  0.33483646237E+03  0.35111594648E+03  0.47000000000E+01 0. -1.
        -11    1    6    6    0    0  0.33744951546E+01 -0.52389571598E+02  0.51534903823E+03  0.51801610557E+03  0.00000000000E+00 0.  1.
         12    1    6    6    0    0  0.82366037447E+02 -0.48674799697E+02  0.50290198446E+03  0.51192167977E+03  0.00000000000E+00 0. -1.
         -5    1    3    3    0  503  0.62268477371E+01  0.83647309189E+02 -0.89711935231E+02  0.12290633544E+03  0.47000000000E+01 0.  1.
         13    1    4    4    0    0  0.67992760623E+00  0.74669772706E+02  0.92711164696E+01  0.75246201619E+02  0.00000000000E+00 0. -1.
        -14    1    4    4    0    0 -0.75293630119E+02  0.46880431121E+02  0.31595537557E+01  0.88751835691E+02  0.00000000000E+00 0.  1.
</event>
<event>
12    1  0.8271773E-002  0.2520776E+03  0.7818608E-02  0.1112053E+00
         21   -1    0    0  503  502  0.00000000000E+00  0.00000000000E+00  0.22568222995E+04  0.22568222995E+04  0.00000000000E+00 0.  1.
         21   -1    0    0  501  503 -0.00000000000E+00 -0.00000000000E+00 -0.37987696741E+02  0.37987696741E+02  0.00000000000E+00 0.  1.
          6    2    1    2  501    0 -0.18257019963E+03  0.23969518634E+02  0.16937278658E+04  0.17123323734E+04  0.17164398674E+03 0.  0.
         24    2    3    3    0    0 -0.39627171628E+02  0.21386431196E+02  0.27804712409E+03  0.28944325829E+03  0.66629605937E+02 0.  0.
         -6    2    1    2    0  502  0.18257019963E+03 -0.23969518634E+02  0.52510673699E+03  0.58247762281E+03  0.17215307210E+03 0.  0.
        -24    2    5    5    0    0  0.17977697309E+03 -0.16346252624E+02  0.31519398567E+03  0.37235535016E+03  0.81940821092E+02 0.  0.
          5    1    3    3  501    0 -0.14294302800E+03  0.25830874382E+01  0.14156807417E+04  0.14228891152E+04  0.47000000000E+01 0. -1.
        -13    1    4    4    0    0 -0.56226628857E+02  0.21257656222E+02  0.24730583576E+03  0.25450638134E+03  0.00000000000E+00 0.  1.
         14    1    4    4    0    0  0.16599457230E+02  0.12877497353E+00  0.30741288323E+02  0.34936876951E+02  0.00000000000E+00 0. -1.
         -5    1    5    5    0  502  0.27932265330E+01 -0.76232660095E+01  0.20991275132E+03  0.21012227265E+03  0.47000000000E+01 0.  1.
         13    1    6    6    0    0  0.41645418970E+02 -0.74261818385E+01  0.15487679467E+03  0.16055002531E+03  0.00000000000E+00 0. -1.
        -14    1    6    6    0    0  0.13813155412E+03 -0.89200707859E+01  0.16031719100E+03  0.21180532486E+03  0.00000000000E+00 0.  1.
</event>
<event>
12    1  0.8271773E-002  0.1991548E+03  0.7818608E-02  0.1150922E+00
         21   -1    0    0  501  502  0.00000000000E+00  0.00000000000E+00  0.10205168044E+03  0.10205168044E+03  0.00000000000E+00 0. -1.
         21   -1    0    0  502  503 -0.00000000000E+00 -0.00000000000E+00 -0.39880818614E+03  0.39880818614E+03  0.00000000000E+00 0. -1.
         -6    2    1    2    0  503  0.31297381742E+00 -0.97791958484E+02 -0.99952942987E+02  0.22087007908E+03  0.17096676848E+03 0.  0.
        -24    2    3    3    0    0  0.16707652848E+02  0.14055904749E+02 -0.38393018856E+02  0.92066180580E+02  0.80780217799E+02 0.  0.
          6    2    1    2  501    0 -0.31297381742E+00  0.97791958484E+02 -0.19680356271E+03  0.27998978750E+03  0.17349142259E+03 0.  0.
         24    2    5    5    0    0 -0.19281734809E+02  0.10249197904E+03 -0.65455828540E+02  0.14711307261E+03  0.80507139927E+02 0.  0.
          5    1    5    5  501    0  0.18968760992E+02 -0.47000205555E+01 -0.13134773417E+03  0.13287671489E+03  0.47000000000E+01 0. -1.
        -11    1    6    6    0    0  0.14682418129E+02  0.86086712452E+02 -0.65879615032E+02  0.10939204331E+03  0.00000000000E+00 0.  1.
         12    1    6    6    0    0 -0.33964152939E+02  0.16405266588E+02  0.42378649234E+00  0.37721029303E+02  0.00000000000E+00 0. -1.
         -5    1    3    3    0  503 -0.16394679031E+02 -0.11184786323E+03 -0.61559924130E+02  0.12880389850E+03  0.47000000000E+01 0.  1.
         13    1    4    4    0    0  0.41208990415E+02  0.12880649714E+02 -0.49029533970E+02  0.65329834145E+02  0.00000000000E+00 0. -1.
        -14    1    4    4    0    0 -0.24501337566E+02  0.11752550350E+01  0.10636515114E+02  0.26736346435E+02  0.00000000000E+00 0.  1.
</event>
<event>
12    1  0.8271773E-002  0.2396926E+03  0.7818608E-02  0.1120542E+00
         21   -1    0    0  501  502  0.00000000000E+00  0.00000000000E+00  0.75137553339E+02  0.75137553339E+02  0.00000000000E+00 0. -1.
         21   -1    0    0  502  503 -0.00000000000E+00 -0.00000000000E+00 -0.78275341944E+03  0.78275341944E+03  0.00000000000E+00 0.  1.
         -6    2    1    2    0  503 -0.39679213301E+02  0.15620762251E+03 -0.26975090809E+03  0.35871340335E+03  0.17301587218E+03 0.  0.
        -24    2    3    3    0    0  0.34582250829E+02  0.72693322016E+02 -0.76593087635E+02  0.13550624162E+03  0.77557651506E+02 0.  0.
          6    2    1    2  501    0  0.39679213301E+02 -0.15620762251E+03 -0.43786495801E+03  0.49917756943E+03  0.17741832789E+03 0.  0.
         24    2    5    5    0    0 -0.32831297837E+02 -0.89463845101E+02 -0.15134836610E+03  0.19614893466E+03  0.80538208020E+02 0.  0.
          5    1    5    5  501    0  0.72510511139E+02 -0.66743777410E+02 -0.28651659191E+03  0.30302863477E+03  0.47000000000E+01 0. -1.
        -13    1    6    6    0    0  0.28507252274E+01 -0.22403763524E+02 -0.10447636670E+03  0.10688950581E+03  0.00000000000E+00 0.  1.
         14    1    6    6    0    0 -0.35682023064E+02 -0.67060081578E+02 -0.46871999400E+02  0.89259428851E+02  0.00000000000E+00 0. -1.
         -5    1    3    3    0  503 -0.74261464131E+02  0.83514300495E+02 -0.19315782046E+03  0.22320716173E+03  0.47000000000E+01 0.  1.
         13    1    4    4    0    0 -0.22983946504E+02  0.33518166621E+02 -0.17780013492E+02  0.44360547453E+02  0.00000000000E+00 0. -1.
        -14    1    4    4    0    0  0.57566197333E+02  0.39175155395E+02 -0.58813074143E+02  0.91145694170E+02  0.00000000000E+00 0.  1.
</event>
<event>
12    1  0.8271773E-002  0.1833045E+03  0.7818608E-02  0.1164857E+00
         21   -1    0    0  501  502  0.00000000000E+00  0.00000000000E+00  0.43521871347E+03  0.43521871347E+03  0.00000000000E+00 0.  1.
         21   -1    0    0  502  503 -0.00000000000E+00 -0.00000000000E+00 -0.81239639971E+02  0.81239639971E+02  0.00000000000E+00 0.  1.
         -6    2    1    2    0  503 -0.16730042373E+02  0.61604261847E+02  0.11636291741E+03  0.21635509457E+03  0.17086315871E+03 0.  0.
        -24    2    3    3    0    0  0.56974257624E+01  0.97923892545E+02  0.11775738068E+03  0.17338834663E+03  0.81087413628E+02 0.  0.
          6    2    1    2  501    0  0.16730042373E+02 -0.61604261847E+02  0.23761615609E+03  0.30010325887E+03  0.17183000015E+03 0.  0.
         24    2    5    5    0    0  0.52974040588E+02 -0.75380932582E+02  0.23003928043E+03  0.26031729265E+03  0.79740130048E+02 0.  0.
          5    1    5    5  501    0 -0.36243998215E+02  0.13776670734E+02  0.75768756642E+01  0.39785966219E+02  0.47000000000E+01 0. -1.
        -11    1    6    6    0    0  0.34905568770E+02 -0.78088689426E+02  0.22594568192E+03  0.24159406724E+03  0.00000000000E+00 0.  1.
         12    1    6    6    0    0  0.18068471818E+02  0.27077568440E+01  0.40935985055E+01  0.18723225408E+02  0.00000000000E+00 0. -1.
         -5    1    3    3    0  503 -0.22427468135E+02 -0.36319630698E+02 -0.13944632785E+01  0.42966747944E+02  0.47000000000E+01 0.  1.
         11    1    4    4    0    0  0.42251031363E+02  0.37710941197E+02  0.57255109611E+02  0.80532057678E+02  0.00000000000E+00 0. -1.
        -12    1    4    4    0    0 -0.36553605601E+02  0.60212951348E+02  0.60502271073E+02  0.92856288949E+02  0.00000000000E+00 0.  1.
</event>
<event>
12    1  0.8271773E-002  0.1916179E+03  0.7818608E-02  0.1157112E+00
         21   -1    0    0  503  502  0.00000000000E+00  0.00000000000E+00  0.13119919456E+04  0.13119919456E+04  0.00000000000E+00 0. -1.
         21   -1    0    0  501  503 -0.00000000000E+00 -0.00000000000E+00 -0.36523793910E+02  0.36523793910E+02  0.00000000000E+00 0. -1.
          6    2    1    2  501    0  0.17042732833E+02  0.82452932239E+02  0.96557430679E+03  0.98440395477E+03  0.17212920569E+03 0.  0.
         24    2    3    3    0    0 -0.85350541717E+01  0.10513048053E+03  0.91381123102E+03  0.92219462751E+03  0.65319981523E+02 0.  0.
         -6    2    1    2    0  502 -0.17042732833E+02 -0.82452932239E+02  0.30989384488E+03  0.36411178472E+03  0.17162242249E+03 0.  0.
        -24    2    5    5    0    0 -0.46072755354E+02  0.10632379620E+02  0.17411737546E+03  0.19688452277E+03  0.78809317898E+02 0.  0.
          5    1    3    3  501    0  0.25577787005E+02 -0.22677548291E+02  0.51763075771E+02  0.62209327257E+02  0.47000000000E+01 0. -1.
        -13    1    4    4    0    0  0.16089028925E+02  0.35543742785E+02  0.15631900842E+03  0.16111439072E+03  0.00000000000E+00 0.  1.
         14    1    4    4    0    0 -0.24624083097E+02  0.69586737745E+02  0.75749222260E+03  0.76108023679E+03  0.00000000000E+00 0. -1.
         -5    1    5    5    0  502  0.29030022521E+02 -0.93085311859E+02  0.13577646943E+03  0.16722726196E+03  0.47000000000E+01 0.  1.
         13    1    6    6    0    0 -0.14737463801E+02  0.12858149067E+02 -0.39997312571E+00  0.19562331539E+02  0.00000000000E+00 0. -1.
        -14    1    6    6    0    0 -0.31335291552E+02 -0.22257694469E+01  0.17451734858E+03  0.17732219123E+03  0.00000000000E+00 0.  1.
</event>
<event>
12    1  0.8271773E-002  0.2156567E+03  0.7818608E-02  0.1137322E+00
         21   -1    0    0  501  502  0.00000000000E+00  0.00000000000E+00  0.24498183429E+03  0.24498183429E+03  0.00000000000E+00 0.  1.
         21   -1    0    0  502  503 -0.00000000000E+00 -0.00000000000E+00 -0.51061178999E+03  0.51061178999E+03  0.00000000000E+00 0. -1.
         -6    2    1    2    0  503  0.38152225268E+02  0.12412206813E+03 -0.43268805212E+03  0.48345296467E+03  0.17217995965E+03 0.  0.
        -24    2    3    3    0    0  0.88396404177E+02  0.10130135326E+03 -0.35778013912E+03  0.39029424005E+03  0.79038455359E+02 0.  0.
          6    2    1    2  501    0 -0.38152225268E+02 -0.12412206813E+03  0.16705809642E+03  0.27214065962E+03  0.17114394803E+03 0.  0.
         24    2    5    5    0    0 -0.47468480382E+02 -0.12815506587E+03  0.18968618614E+03  0.24689827217E+03  0.79378397882E+02 0.  0.
          5    1    5    5  501    0  0.93162551140E+01  0.40329977358E+01 -0.22628089718E+02  0.25242387454E+02  0.47000000000E+01 0. -1.
        -11    1    6    6    0    0  0.15261195892E+01 -0.98676236083E+02  0.99708604159E+02  0.14028946629E+03  0.00000000000E+00 0.  1.
         12    1    6    6    0    0 -0.48994599971E+02 -0.29478829783E+02  0.89977581978E+02  0.10660880588E+03  0.00000000000E+00 0. -1.
         -5    1    3    3    0  503 -0.50244178909E+02  0.22820714873E+02 -0.74907913002E+02  0.93158724615E+02  0.47000000000E+01 0.  1.
         13    1    4    4    0    0  0.10776761003E+02  0.70667128189E+02 -0.18756196641E+03  0.20072237749E+03  0.00000000000E+00 0. -1.
        -14    1    4    4    0    0  0.77619643175E+02  0.30634225069E+02 -0.17021817271E+03  0.18957186256E+03  0.00000000000E+00 0.  1.
</event>
<event>
12    1  0.8271773E-002  0.1878653E+03  0.7818608E-02  0.1163197E+00
         21   -1    0    0  503  502  0.00000000000E+00  0.00000000000E+00  0.21582023521E+03  0.21582023521E+03  0.00000000000E+00 0. -1.
         21   -1    0    0  501  503 -0.00000000000E+00 -0.00000000000E+00 -0.39217693253E+03  0.39217693253E+03  0.00000000000E+00 0. -1.
          6    2    1    2  501    0 -0.42847710665E+02  0.63267575609E+02 -0.32420815528E+03  0.36892932455E+03  0.15861653800E+03 0.  0.
         24    2    3    3    0    0  0.55966336107E+01  0.51954412625E+02 -0.96521047051E+02  0.13582344430E+03  0.80006950948E+02 0.  0.
         -6    2    1    2    0  502  0.42847710665E+02 -0.63267575609E+02  0.14785145796E+03  0.23906784320E+03  0.17162362191E+03 0.  0.
        -24    2    5    5    0    0 -0.26315835925E+02 -0.86154896068E+02  0.72448541661E+02  0.13411492327E+03  0.67991412088E+02 0.  0.
          5    1    3    3  501    0 -0.48444344276E+02  0.11313162984E+02 -0.22768710823E+03  0.23310588024E+03  0.47000000000E+01 0. -1.
        -11    1    4    4    0    0  0.68625388522E+01 -0.17967756259E+02 -0.45069357106E+02  0.49001853581E+02  0.00000000000E+00 0.  1.
         12    1    4    4    0    0 -0.12659052415E+01  0.69922168884E+02 -0.51451689945E+02  0.86821590723E+02  0.00000000000E+00 0. -1.
         -5    1    5    5    0  502  0.69163546590E+02  0.22887320459E+02  0.75402916301E+02  0.10495291993E+03  0.47000000000E+01 0.  1.
         13    1    6    6    0    0 -0.33376239065E+02 -0.77749334378E+02  0.29219293888E+02  0.89513683119E+02  0.00000000000E+00 0. -1.
        -14    1    6    6    0    0  0.70604031397E+01 -0.84055616903E+01  0.43229247773E+02  0.44601240149E+02  0.00000000000E+00 0.  1.
</event>
<event>
12    1  0.8271773E-002  0.2206820E+03  0.7818608E-02  0.1133508E+00
         21   -1    0    0  501  502  0.00000000000E+00  0.00000000000E+00  0.26821693538E+02  0.26821693538E+02  0.00000000000E+00 0. -1.
         21   -1    0    0  502  503 -0.00000000000E+00 -0.00000000000E+00 -0.26479802305E+04  0.26479802305E+04  0.00000000000E+00 0. -1.
         -6    2    1    2    0  503 -0.12668904592E+03  0.51415448901E+02 -0.20644378490E+04  0.20761994507E+04  0.17322489398E+03 0.  0.
        -24    2    3    3    0    0 -0.11902675405E+03  0.34898215002E+02 -0.94963380230E+03  0.96123681352E+03  0.82380820617E+02 0.  0.
          6    2    1    2  501    0  0.12668904592E+03 -0.51415448901E+02 -0.55672068795E+03  0.59860247334E+03  0.17231753816E+03 0.  0.
         24    2    5    5    0    0  0.10176860801E+03 -0.79176898238E+02 -0.53265079517E+03  0.55395747325E+03  0.80784786852E+02 0.  0.
          5    1    5    5  501    0  0.24920437902E+02  0.27761449337E+02 -0.24069892782E+02  0.44645000090E+02  0.47000000000E+01 0. -1.
        -13    1    6    6    0    0  0.87943140084E+02 -0.23000145780E+02 -0.26600928061E+03  0.28111197051E+03  0.00000000000E+00 0.  1.
         14    1    6    6    0    0  0.13825467930E+02 -0.56176752458E+02 -0.26664151457E+03  0.27284550275E+03  0.00000000000E+00 0. -1.
         -5    1    3    3    0  503 -0.76622918669E+01  0.16517233898E+02 -0.11148040467E+04  0.11149626372E+04  0.47000000000E+01 0.  1.
         11    1    4    4    0    0 -0.36781264745E+02  0.51241673031E+02 -0.48664926495E+03  0.49071995839E+03  0.00000000000E+00 0. -1.
        -12    1    4    4    0    0 -0.82245489304E+02 -0.16343458029E+02 -0.46298453736E+03  0.47051685513E+03  0.00000000000E+00 0.  1.
</event>
<event>
12    1  0.8271773E-002  0.3336000E+03  0.7818608E-02  0.1069573E+00
         21   -1    0    0  501  502  0.00000000000E+00  0.00000000000E+00  0.95354665166E+03  0.95354665166E+03  0.00000000000E+00 0. -1.
         21   -1    0    0  502  503 -0.00000000000E+00 -0.00000000000E+00 -0.16315249621E+03  0.16315249621E+03  0.00000000000E+00 0. -1.
         -6    2    1    2    0  503  0.92991659681E+01  0.28580245348E+03  0.97183383663E+02  0.34746738398E+03  0.17181226955E+03 0.  0.
        -24    2    3    3    0    0 -0.91368998412E+01  0.29023054831E+03  0.63140779575E+02  0.30821836566E+03  0.81820222255E+02 0.  0.
          6    2    1    2  501    0 -0.92991659681E+01 -0.28580245348E+03  0.69321077178E+03  0.76923176389E+03  0.17148415543E+03 0.  0.
         24    2    5    5    0    0 -0.82658398987E+01 -0.14435780393E+03  0.51974416912E+03  0.54535588558E+03  0.79821932709E+02 0.  0.
          5    1    5    5  501    0 -0.10333260694E+01 -0.14144464955E+03  0.17346660266E+03  0.22387587831E+03  0.47000000000E+01 0. -1.
        -11    1    6    6    0    0  0.34367635889E+01  0.98861233743E+01  0.34427039198E+02  0.35982882143E+02  0.00000000000E+00 0.  1.
         12    1    6    6    0    0 -0.11702603488E+02 -0.15424392730E+03  0.48531712992E+03  0.50937300344E+03  0.00000000000E+00 0. -1.
         -5    1    3    3    0  503  0.18436065809E+02 -0.44280948306E+01  0.34042604089E+02  0.39249018325E+02  0.47000000000E+01 0.  1.
         11    1    4    4    0    0  0.12658725188E+02  0.19835636197E+03  0.76259463403E+02  0.21288728336E+03  0.00000000000E+00 0. -1.
        -12    1    4    4    0    0 -0.21795625029E+02  0.91874186344E+02 -0.13118683829E+02  0.95331082299E+02  0.00000000000E+00 0.  1.
</event>
<event>
12    1  0.8271773E-002  0.1900354E+03  0.7818608E-02  0.1160011E+00
         21   -1    0    0  503  502  0.00000000000E+00  0.00000000000E+00  0.29954490335E+03  0.29954490335E+03  0.00000000000E+00 0.  1.
         21   -1    0    0  501  503 -0.00000000000E+00 -0.00000000000E+00 -0.21403241915E+03  0.21403241915E+03  0.00000000000E+00 0.  1.
          6    2    1    2  501    0  0.25042909340E+02  0.69600211999E+02 -0.13037913009E+03  0.23046075964E+03  0.17504887132E+03 0.  0.
         24    2    3    3    0    0  0.38798815637E+02  0.46995421076E+02 -0.78142670778E+00  0.98105721000E+02  0.76877852262E+02 0.  0.
         -6    2    1    2    0  502 -0.25042909340E+02 -0.69600211999E+02  0.21589161430E+03  0.28311656286E+03  0.16755435603E+03 0.  0.
        -24    2    5    5    0    0  0.11785098056E+01  0.47805779746E+01  0.67687374057E+02  0.11516820305E+03  0.93047791893E+02 0.  0.
          5    1    3    3  501    0 -0.13755906296E+02  0.22604790922E+02 -0.12959770338E+03  0.13235503864E+03  0.47000000000E+01 0. -1.
        -13    1    4    4    0    0  0.14937965426E+02  0.54777697262E+02 -0.26069814380E+02  0.62476988965E+02  0.00000000000E+00 0.  1.
         14    1    4    4    0    0  0.23860850210E+02 -0.77822761855E+01  0.25288387672E+02  0.35628732035E+02  0.00000000000E+00 0. -1.
         -5    1    5    5    0  502 -0.26221419146E+02 -0.74380789973E+02  0.14820424024E+03  0.16794835981E+03  0.47000000000E+01 0.  1.
         13    1    6    6    0    0  0.10517461853E+02  0.33508686374E+02  0.76097847783E+02  0.83811285060E+02  0.00000000000E+00 0. -1.
        -14    1    6    6    0    0 -0.93389520478E+01 -0.28728108399E+02 -0.84104737260E+01  0.31356917990E+02  0.00000000000E+00 0.  1.
</event>
<event>
12    1  0.8271773E-002  0.2048463E+03  0.7818608E-02  0.1146191E+00
         21   -1    0    0  501  502  0.00000000000E+00  0.00000000000E+00  0.49909331014E+03  0.49909331014E+03  0.00000000000E+00 0.  1.
         21   -1    0    0  502  503 -0.00000000000E+00 -0.00000000000E+00 -0.92947768815E+02  0.92947768815E+02  0.00000000000E+00 0.  1.
         -6    2    1    2    0  503  0.59024409880E+02  0.90887245362E+02  0.10788241482E+03  0.23151807823E+03  0.17383219721E+03 0.  0.
        -24    2    3    3    0    0  0.23268239341E+01 -0.12394351086E+02  0.68037219485E+02  0.10705348885E+03  0.81684467263E+02 0.  0.
          6    2    1    2  501    0 -0.59024409880E+02 -0.90887245362E+02  0.29826312650E+03  0.36052300072E+03  0.17108935995E+03 0.  0.
         24    2    5    5    0    0 -0.55574750423E+02 -0.33240622088E+02  0.28164111070E+03  0.30024518777E+03  0.81436881708E+02 0.  0.
          5    1    5    5  501    0 -0.34496594563E+01 -0.57646623274E+02  0.16622015805E+02  0.60277812956E+02  0.47000000000E+01 0. -1.
        -13    1    6    6    0    0 -0.63796179269E+02 -0.25559806645E+02  0.12057134391E+03  0.13878294267E+03  0.00000000000E+00 0.  1.
         14    1    6    6    0    0  0.82214288460E+01 -0.76808154429E+01  0.16106976679E+03  0.16146224509E+03  0.00000000000E+00 0. -1.
         -5    1    3    3    0  503  0.56697585946E+02  0.10328159645E+03  0.39845195336E+02  0.12446458938E+03  0.47000000000E+01 0.  1.
         11    1    4    4    0    0  0.12914575025E+02 -0.15094746371E+02 -0.13992826540E+02  0.24298905545E+02  0.00000000000E+00 0. -1.
        -12    1    4    4    0    0 -0.10587751091E+02  0.27003952854E+01  0.82030046025E+02  0.82754583309E+02  0.00000000000E+00 0.  1.
</event>
<event>
12    1  0.8271773E-002  0.1811148E+03  0.7818608E-02  0.1166949E+00
         21   -1    0    0  503  502  0.00000000000E+00  0.00000000000E+00  0.36526403704E+02  0.36526403704E+02  0.00000000000E+00 0.  1.
         21   -1    0    0  501  503 -0.00000000000E+00 -0.00000000000E+00 -0.16468195672E+04  0.16468195672E+04  0.00000000000E+00 0.  1.
          6    2    1    2  501    0  0.50729691195E+02 -0.19817189762E+02 -0.13732913401E+04  0.13850634823E+04  0.17177171654E+03 0.  0.
         24    2    3    3    0    0  0.48990477515E+02 -0.68062063144E+02 -0.64877986423E+03  0.65893018783E+03  0.79001068754E+02 0.  0.
         -6    2    1    2    0  502 -0.50729691195E+02  0.19817189762E+02 -0.23700182337E+03  0.29828248859E+03  0.17273203565E+03 0.  0.
        -24    2    5    5    0    0 -0.11337128785E+02 -0.52453520255E+02 -0.12005207833E+03  0.15519453534E+03  0.82419293931E+02 0.  0.
          5    1    3    3  501    0  0.17392136806E+01  0.48244873382E+02 -0.72451147585E+03  0.72613329445E+03  0.47000000000E+01 0. -1.
        -11    1    4    4    0    0  0.82233856189E+00 -0.53545028080E+02 -0.47517216411E+03  0.47818022943E+03  0.00000000000E+00 0.  1.
         12    1    4    4    0    0  0.48168138953E+02 -0.14517035064E+02 -0.17360770013E+03  0.18074995840E+03  0.00000000000E+00 0. -1.
         -5    1    5    5    0  502 -0.39392562410E+02  0.72270710017E+02 -0.11694974505E+03  0.14308795325E+03  0.47000000000E+01 0.  1.
         13    1    6    6    0    0 -0.26220059435E+02  0.12915712368E+02 -0.52089721220E+02  0.59729776490E+02  0.00000000000E+00 0. -1.
        -14    1    6    6    0    0  0.14882930650E+02 -0.65369232623E+02 -0.67962357108E+02  0.95464758849E+02  0.00000000000E+00 0.  1.
</event>
<event>
12    1  0.8271773E-002  0.1829421E+03  0.7818608E-02  0.1166667E+00
         21   -1    0    0  501  502  0.00000000000E+00  0.00000000000E+00  0.58458451106E+03  0.58458451106E+03  0.00000000000E+00 0. -1.
         21   -1    0    0  502  503 -0.00000000000E+00 -0.00000000000E+00 -0.85791669247E+02  0.85791669247E+02  0.00000000000E+00 0.  1.
         -6    2    1    2    0  503  0.29261830401E+02 -0.52093122517E+02  0.45820628588E+02  0.18185635340E+03  0.16553626532E+03 0.  0.
        -24    2    3    3    0    0 -0.34760839178E+02 -0.50981582929E+02  0.59171998753E+02  0.11627825625E+03  0.78815415389E+02 0.  0.
          6    2    1    2  501    0 -0.29261830401E+02  0.52093122517E+02  0.45297221323E+03  0.48851982690E+03  0.17290993954E+03 0.  0.
         24    2    5    5    0    0 -0.54929011269E+02  0.62293294922E+02  0.17805755394E+03  0.21218125273E+03  0.80117043260E+02 0.  0.
          5    1    5    5  501    0  0.25667180868E+02 -0.10200172405E+02  0.27491465928E+03  0.27633857418E+03  0.47000000000E+01 0. -1.
        -11    1    6    6    0    0  0.19039258100E+02  0.13089733530E+02  0.18661114479E+02  0.29699691353E+02  0.00000000000E+00 0.  1.
         12    1    6    6    0    0 -0.73968269369E+02  0.49203561392E+02  0.15939643946E+03  0.18248156137E+03  0.00000000000E+00 0. -1.
         -5    1    3    3    0  503  0.64022669579E+02 -0.11115395888E+01 -0.13351370165E+02  0.65578097148E+02  0.47000000000E+01 0.  1.
         13    1    4    4    0    0  0.53881168163E+01 -0.36682345810E+02  0.63404785252E+02  0.73449255202E+02  0.00000000000E+00 0. -1.
        -14    1    4    4    0    0 -0.40148955994E+02 -0.14299237119E+02 -0.42327864987E+01  0.42829001052E+02  0.00000000000E+00 0.  1.
</event>
<event>
12    1  0.8271773E-002  0.4425657E+03  0.7818608E-02  0.1030002E+00
         21   -1    0    0  503  502  0.00000000000E+00  0.00000000000E+00  0.69643939622E+03  0.69643939622E+03  0.00000000000E+00 0.  1.
         21   -1    0    0  501  503 -0.00000000000E+00 -0.00000000000E+00 -0.28303918179E+03  0.28303918179E+03  0.00000000000E+00 0.  1.
          6    2    1    2  501    0  0.36132015092E+03 -0.18744814763E+03  0.16431656494E+03  0.47208505422E+03  0.17371040670E+03 0.  0.
         24    2    3    3    0    0  0.27751498035E+03 -0.18196314811E+03  0.75016031976E+02  0.34940633960E+03  0.79575332294E+02 0.  0.
         -6    2    1    2    0  502 -0.36132015092E+03  0.18744814763E+03  0.24908364949E+03  0.50739352379E+03  0.17238463979E+03 0.  0.
        -24    2    5    5    0    0 -0.14809933664E+03  0.39711720978E+02  0.48881695714E+02  0.17968621583E+03  0.79920470996E+02 0.  0.
          5    1    3    3  501    0  0.83805170562E+02 -0.54849995181E+01  0.89300532962E+02  0.12267871462E+03  0.47000000000E+01 0. -1.
        -13    1    4    4    0    0  0.13648445263E+03 -0.47348306088E+02  0.49861389517E+02  0.15282678451E+03  0.00000000000E+00 0.  1.
         14    1    4    4    0    0  0.14103052773E+03 -0.13461484203E+03  0.25154642459E+02  0.19657955510E+03  0.00000000000E+00 0. -1.
         -5    1    5    5    0  502 -0.21322081427E+03  0.14773642666E+03  0.20020195378E+03  0.32770730797E+03  0.47000000000E+01 0.  1.
         13    1    6    6    0    0  0.34733050551E+01  0.18614724027E+02  0.11494386675E+02  0.22151585127E+02  0.00000000000E+00 0. -1.
        -14    1    6    6    0    0 -0.15157264170E+03  0.21096996951E+02  0.37387309040E+02  0.15753463070E+03  0.00000000000E+00 0.  1.
</event>
<event>
12    1  0.8271773E-002  0.2190622E+03  0.7818608E-02  0.1134682E+00
         21   -1    0    0  503  502  0.00000000000E+00  0.00000000000E+00  0.85761211784E+02  0.85761211784E+02  0.00000000000E+00 0. -1.
         21   -1    0    0  501  503 -0.00000000000E+00 -0.00000000000E+00 -0.80541504593E+03  0.80541504593E+03  0.00000000000E+00 0.  1.
          6    2    1    2  501    0 -0.13366943001E+03  0.19165883863E+02 -0.11327218512E+03  0.24661474162E+03  0.17249172514E+03 0.  0.
         24    2    3    3    0    0 -0.81629428041E+02  0.18670619632E+02 -0.14531767832E+03  0.18531701959E+03  0.78823946608E+02 0.  0.
         -6    2    1    2    0  502  0.13366943001E+03 -0.19165883863E+02 -0.60638164902E+03  0.64456151609E+03  0.17183130137E+03 0.  0.
        -24    2    5    5    0    0  0.27739486701E+02  0.20848141083E+02 -0.14071261218E+03  0.16529956585E+03  0.79497063670E+02 0.  0.
          5    1    3    3  501    0 -0.52040001965E+02  0.49526423156E+00  0.32045493202E+02  0.61297722027E+02  0.47000000000E+01 0. -1.
        -13    1    4    4    0    0 -0.34616801511E+02  0.48220720264E+02 -0.79178151980E+02  0.98958276867E+02  0.00000000000E+00 0.  1.
         14    1    4    4    0    0 -0.47012626529E+02 -0.29550100632E+02 -0.66139526342E+02  0.86358742726E+02  0.00000000000E+00 0. -1.
         -5    1    5    5    0  502  0.10592994330E+03 -0.40014024947E+02 -0.46566903684E+03  0.47926195024E+03  0.47000000000E+01 0.  1.
         13    1    6    6    0    0  0.34914278963E+02  0.25634906660E+02 -0.14787512091E+03  0.15408830812E+03  0.00000000000E+00 0. -1.
        -14    1    6    6    0    0 -0.71747922619E+01 -0.47867655767E+01  0.71625087226E+01  0.11211257730E+02  0.00000000000E+00 0.  1.
</event>
<event>
12    1  0.8271773E-002  0.2228812E+03  0.7818608E-02  0.1131836E+00
         21   -1    0    0  501  502  0.00000000000E+00  0.00000000000E+00  0.73045036938E+03  0.73045036938E+03  0.00000000000E+00 0.  1.
         21   -1    0    0  502  503 -0.00000000000E+00 -0.00000000000E+00 -0.14626208204E+03  0.14626208204E+03  0.00000000000E+00 0.  1.
         -6    2    1    2    0  503  0.93601920150E+02  0.10580222350E+03 -0.28688977719E+02  0.22471997228E+03  0.17239657347E+03 0.  0.
        -24    2    3    3    0    0  0.13753058324E+02  0.35528101923E+02 -0.67358085424E+02  0.11144295436E+03  0.80193689055E+02 0.  0.
          6    2    1    2  501    0 -0.93601920150E+02 -0.10580222350E+03  0.61287726506E+03  0.65199247915E+03  0.17181449557E+03 0.  0.
         24    2    5    5    0    0 -0.25557190315E+02  0.20309577208E+02  0.29696269096E+03  0.30506542678E+03  0.61744845071E+02 0.  0.
          5    1    5    5  501    0 -0.68044729835E+02 -0.12611180071E+03  0.31591457410E+03  0.34692705237E+03  0.47000000000E+01 0. -1.
        -13    1    6    6    0    0 -0.17223630259E+02 -0.18985778110E+02  0.16937193843E+03  0.17130080775E+03  0.00000000000E+00 0.  1.
         14    1    6    6    0    0 -0.83335600564E+01  0.39295355317E+02  0.12759075253E+03  0.13376461903E+03  0.00000000000E+00 0. -1.
         -5    1    3    3    0  503  0.79848861826E+02  0.70274121577E+02  0.38669107705E+02  0.11327701792E+03  0.47000000000E+01 0.  1.
         11    1    4    4    0    0 -0.33408545289E+02  0.20615308534E+02 -0.31889592044E+02  0.50577345967E+02  0.00000000000E+00 0. -1.
        -12    1    4    4    0    0  0.47161603613E+02  0.14912793389E+02 -0.35468493379E+02  0.60865608390E+02  0.00000000000E+00 0.  1.
</event>
<event>
12    1  0.8271773E-002  0.3306100E+03  0.7818608E-02  0.1070921E+00
         21   -1    0    0  503  502  0.00000000000E+00  0.00000000000E+00  0.59714822215E+03  0.59714822215E+03  0.00000000000E+00 0.  1.
         21   -1    0    0  501  503 -0.00000000000E+00 -0.00000000000E+00 -0.28960325086E+03  0.28960325086E+03  0.00000000000E+00 0. -1.
          6    2    1    2  501    0 -0.25173176197E+03 -0.12726834065E+03 -0.11558566417E+03  0.34977617047E+03  0.17151446921E+03 0.  0.
         24    2    3    3    0    0 -0.17055935502E+03 -0.21339594317E+02 -0.10343066513E+03  0.21568779308E+03  0.79230358595E+02 0.  0.
         -6    2    1    2    0  502  0.25173176197E+03  0.12726834065E+03  0.42313063547E+03  0.53697530254E+03  0.17244370198E+03 0.  0.
        -24    2    5    5    0    0  0.18736675703E+03  0.36407768301E+02  0.20302563988E+03  0.29026333171E+03  0.81250009573E+02 0.  0.
          5    1    3    3  501    0 -0.81172406951E+02 -0.10592874633E+03 -0.12154999038E+02  0.13408837739E+03  0.47000000000E+01 0. -1.
        -11    1    4    4    0    0 -0.18092533836E+02 -0.14414011061E+01 -0.49535746655E+02  0.52756114475E+02  0.00000000000E+00 0.  1.
         12    1    4    4    0    0 -0.15246682119E+03 -0.19898193211E+02 -0.53894918476E+02  0.16293167861E+03  0.00000000000E+00 0. -1.
         -5    1    5    5    0  502  0.64365004945E+02  0.90860572344E+02  0.22010499558E+03  0.24671197083E+03  0.47000000000E+01 0.  1.
         11    1    6    6    0    0  0.10974536826E+03  0.67848670088E+01  0.16644600076E+03  0.19948521611E+03  0.00000000000E+00 0. -1.
        -12    1    6    6    0    0  0.77621388764E+02  0.29622901292E+02  0.36579639119E+02  0.90778115604E+02  0.00000000000E+00 0.  1.
</event>
<event>
12    1  0.8271773E-002  0.2349747E+03  0.7818608E-02  0.1123259E+00
         21   -1    0    0  503  502  0.00000000000E+00  0.00000000000E+00  0.33184103602E+03  0.33184103602E+03  0.00000000000E+00 0. -1.
         21   -1    0    0  501  503 -0.00000000000E+00 -0.00000000000E+00 -0.25386568165E+03  0.25386568165E+03  0.00000000000E+00 0.  1.
          6    2    1    2  501    0 -0.15501355990E+03 -0.37933917947E+02 -0.13323979236E+03  0.26975582321E+03  0.17189292016E+03 0.  0.
         24    2    3    3    0    0 -0.10739183261E+03  0.23897079708E+02 -0.44509062405E+02  0.15149283821E+03  0.94153848905E+02 0.  0.
         -6    2    1    2    0  502  0.15501355990E+03  0.37933917947E+02  0.21121514673E+03  0.31595089446E+03  0.17246722476E+03 0.  0.
        -24    2    5    5    0    0  0.75127511936E+02  0.67801214361E+02  0.18744108216E+03  0.22728786834E+03  0.79274637149E+02 0.  0.
          5    1    3    3  501    0 -0.47621727290E+02 -0.61830997654E+02 -0.88730729958E+02  0.11826298499E+03  0.47000000000E+01 0. -1.
        -13    1    4    4    0    0 -0.19412820662E+02  0.37597529770E+01 -0.57042542564E+02  0.60372551799E+02  0.00000000000E+00 0.  1.
         14    1    4    4    0    0 -0.87979011948E+02  0.20137326731E+02  0.12533480159E+02  0.91120286414E+02  0.00000000000E+00 0. -1.
         -5    1    5    5    0  502  0.79886047964E+02 -0.29867296414E+02  0.23774064577E+02  0.88663026121E+02  0.47000000000E+01 0.  1.
         11    1    6    6    0    0  0.70955767946E+02  0.30232869486E+02  0.16782965591E+03  0.18470392742E+03  0.00000000000E+00 0. -1.
        -12    1    6    6    0    0  0.41717439898E+01  0.37568344875E+02  0.19611426247E+02  0.42583940917E+02  0.00000000000E+00 0.  1.
</event>
<event>
12    1  0.8271773E-002  0.1841807E+03  0.7818608E-02  0.1164323E+00
         21   -1    0    0  501  502  0.00000000000E+00  0.00000000000E+00  0.22145589887E+03  0.22145589887E+03  0.00000000000E+00 0. -1.
         21   -1    0    0  502  503 -0.00000000000E+00 -0.00000000000E+00 -0.16350091067E+03  0.16350091067E+03  0.00000000000E+00 0. -1.
         -6    2    1    2    0  503  0.36988469919E+02  0.47696303121E+02 -0.23530903842E+02  0.18355553326E+03  0.17174354752E+03 0.  0.
        -24    2    3    3    0    0  0.29514560476E+02  0.98270442575E+02 -0.46527984058E+01  0.12885566334E+03  0.77807096584E+02 0.  0.
          6    2    1    2  501    0 -0.36988469919E+02 -0.47696303121E+02  0.81485892042E+02  0.20140127627E+03  0.17400988261E+03 0.  0.
         24    2    5    5    0    0  0.96357524268E+01  0.55948269957E+01  0.10008219662E+03  0.12804137440E+03  0.79082220920E+02 0.  0.
          5    1    5    5  501    0 -0.46624222346E+02 -0.53291130117E+02 -0.18596304575E+02  0.73359901870E+02  0.47000000000E+01 0. -1.
        -11    1    6    6    0    0  0.31832232917E+02 -0.11989636647E+02  0.12906347602E+02  0.36381537184E+02  0.00000000000E+00 0.  1.
         12    1    6    6    0    0 -0.22196480491E+02  0.17584463643E+02  0.87175849015E+02  0.91659837220E+02  0.00000000000E+00 0. -1.
         -5    1    3    3    0  503  0.74739094436E+01 -0.50574139454E+02 -0.18878105437E+02  0.54699869915E+02  0.47000000000E+01 0.  1.
         11    1    4    4    0    0  0.51513254588E+02  0.87118581098E+02 -0.14609239843E+02  0.10225797015E+03  0.00000000000E+00 0. -1.
        -12    1    4    4    0    0 -0.21998694112E+02  0.11151861477E+02  0.99564414375E+01  0.26597693192E+02  0.00000000000E+00 0.  1.
</event>
<event>
12    1  0.8271773E-002  0.3070856E+03  0.7818608E-02  0.1081795E+00
         21   -1    0    0  503  502  0.00000000000E+00  0.00000000000E+00  0.68319591371E+03  0.68319591371E+03  0.00000000000E+00 0.  1.
         21   -1    0    0  501  503 -0.00000000000E+00 -0.00000000000E+00 -0.15353098123E+03  0.15353098123E+03  0.00000000000E+00 0. -1.
          6    2    1    2  501    0 -0.25346395432E+03 -0.17907544366E+02  0.13135084418E+03  0.33399794370E+03  0.17244397886E+03 0.  0.
         24    2    3    3    0    0 -0.13150105052E+03  0.50862678736E+02  0.10360143259E+03  0.19118193153E+03  0.77056704663E+02 0.  0.
         -6    2    1    2    0  502  0.25346395432E+03  0.17907544366E+02  0.39831408831E+03  0.50272895124E+03  0.17180695327E+03 0.  0.
        -24    2    5    5    0    0  0.22611934773E+03 -0.26962652815E+02  0.25713375394E+03  0.35201385938E+03  0.77065204305E+02 0.  0.
          5    1    3    3  501    0 -0.12196290379E+03 -0.68770223102E+02  0.27749411592E+02  0.14281601217E+03  0.47000000000E+01 0. -1.
        -11    1    4    4    0    0  0.41712804346E+01 -0.10800340470E+01 -0.72571313170E+01  0.84399057435E+01  0.00000000000E+00 0.  1.
         12    1    4    4    0    0 -0.13567233096E+03  0.51942712783E+02  0.11085856390E+03  0.18274202579E+03  0.00000000000E+00 0. -1.
         -5    1    5    5    0  502  0.27344606589E+02  0.44870197181E+02  0.14118033436E+03  0.15071509187E+03  0.47000000000E+01 0.  1.
         13    1    6    6    0    0  0.25430454340E+02  0.18062029260E+02  0.15931022767E+02  0.35024882517E+02  0.00000000000E+00 0. -1.
        -14    1    6    6    0    0  0.20068889339E+03 -0.45024682075E+02  0.24120273118E+03  0.31698897686E+03  0.00000000000E+00 0.  1.
</event>
<event>
12    1  0.8271773E-002  0.2710745E+03  0.7818608E-02  0.1100781E+00
         21   -1    0    0  503  502  0.00000000000E+00  0.00000000000E+00  0.96346456824E+03  0.96346456824E+03  0.00000000000E+00 0. -1.
         21   -1    0    0  501  503 -0.00000000000E+00 -0.00000000000E+00 -0.51552498205E+03  0.51552498205E+03  0.00000000000E+00 0. -1.
          6    2    1    2  501    0  0.20815391848E+03 -0.19401090864E+02 -0.45876162560E+03  0.53286359081E+03  0.17255990606E+03 0.  0.
         24    2    3    3    0    0  0.10983153912E+03  0.23274801011E+02 -0.13729391351E+03  0.19396522559E+03  0.78537931628E+02 0.  0.
         -6    2    1    2    0  502 -0.20815391848E+03  0.19401090864E+02  0.90670121179E+03  0.94612595948E+03  0.17129736613E+03 0.  0.
        -24    2    5    5    0    0 -0.20106092342E+03 -0.37237825092E+01  0.89199660944E+03  0.91743126175E+03  0.74718185910E+02 0.  0.
          5    1    3    3  501    0  0.98322379362E+02 -0.42675891875E+02 -0.32146771209E+03  0.33889836522E+03  0.47000000000E+01 0. -1.
        -11    1    4    4    0    0  0.86551074406E+01  0.33092613845E+02 -0.46087127405E+02  0.57393861069E+02  0.00000000000E+00 0.  1.
         12    1    4    4    0    0  0.10117643168E+03 -0.98178128347E+01 -0.91206786109E+02  0.13657136452E+03  0.00000000000E+00 0. -1.
         -5    1    5    5    0  502 -0.70929950641E+01  0.23124873374E+02  0.14704602345E+02  0.28694697727E+02  0.47000000000E+01 0.  1.
         13    1    6    6    0    0 -0.11176196833E+03 -0.18654995638E+02  0.34884825483E+03  0.36678856487E+03  0.00000000000E+00 0. -1.
        -14    1    6    6    0    0 -0.89298955088E+02  0.14931213129E+02  0.54314835462E+03  0.55064269688E+03  0.00000000000E+00 0.  1.
</event>
<event>
12    1  0.8271773E-002  0.1927692E+03  0.7818608E-02  0.1156444E+00
         21   -1    0    0  503  502  0.00000000000E+00  0.00000000000E+00  0.23449463474E+04  0.23449463474E+04  0.00000000000E+00 0. -1.
         21   -1    0    0  501  503 -0.00000000000E+00 -0.00000000000E+00 -0.15743000317E+02  0.15743000317E+02  0.00000000000E+00 0. -1.
          6    2    1    2  501    0  0.39164656714E+02  0.77210926170E+02  0.10827960250E+04  0.10994632796E+04  0.16993196894E+03 0.  0.
         24    2    3    3    0    0 -0.14780900595E+02  0.59953549943E+02  0.34235420193E+03  0.35684350914E+03  0.79485767676E+02 0.  0.
         -6    2    1    2    0  502 -0.39164656714E+02 -0.77210926170E+02  0.12464073221E+04  0.12612260681E+04  0.17223409882E+03 0.  0.
        -24    2    5    5    0    0 -0.31445655677E+02 -0.11459611816E+03  0.11225793304E+04  0.11315622833E+04  0.78279936129E+02 0.  0.
          5    1    3    3  501    0  0.53945557309E+02  0.17257376227E+02  0.74044182307E+03  0.74261977050E+03  0.47000000000E+01 0. -1.
        -13    1    4    4    0    0  0.27072601342E+02 -0.34812065386E+00  0.10184586851E+03  0.10538324281E+03  0.00000000000E+00 0.  1.
         14    1    4    4    0    0 -0.41853501937E+02  0.60301670597E+02  0.24050833341E+03  0.25146026633E+03  0.00000000000E+00 0. -1.
         -5    1    5    5    0  502 -0.77190010367E+01  0.37385191990E+02  0.12382799173E+03  0.12966378481E+03  0.47000000000E+01 0.  1.
         11    1    6    6    0    0 -0.75751095364E+00 -0.10782310952E+03  0.95442397849E+03  0.96049545938E+03  0.00000000000E+00 0. -1.
        -12    1    6    6    0    0 -0.30688144723E+02 -0.67730086381E+01  0.16815535190E+03  0.17106682392E+03  0.00000000000E+00 0.  1.
</event>
<event>
12    1  0.8271773E-002  0.2557825E+03  0.7818608E-02  0.1110200E+00
         21   -1    0    0  501  502  0.00000000000E+00  0.00000000000E+00  0.19967437279E+03  0.19967437279E+03  0.00000000000E+00 0.  1.
         21   -1    0    0  502  503 -0.00000000000E+00 -0.00000000000E+00 -0.37396277951E+03  0.37396277951E+03  0.00000000000E+00 0. -1.
         -6    2    1    2    0  503  0.15112310238E+03  0.10736253424E+03 -0.19196676390E+03  0.31724444596E+03  0.17154560390E+03 0.  0.
        -24    2    3    3    0    0  0.12884773792E+03  0.14412926270E+03 -0.15329576114E+03  0.25923133850E+03  0.79538120051E+02 0.  0.
          6    2    1    2  501    0 -0.15112310238E+03 -0.10736253424E+03  0.17678357173E+02  0.25639270634E+03  0.17623787821E+03 0.  0.
         24    2    5    5    0    0 -0.17737001373E+03 -0.75251889858E+02  0.33975473070E+02  0.21158556601E+03  0.80567675132E+02 0.  0.
          5    1    5    5  501    0  0.26246911343E+02 -0.32110644384E+02 -0.16297115898E+02  0.44807140328E+02  0.47000000000E+01 0. -1.
        -11    1    6    6    0    0 -0.12607001420E+01 -0.25908699241E+02  0.35645700212E+01  0.26183128549E+02  0.00000000000E+00 0.  1.
         12    1    6    6    0    0 -0.17610931359E+03 -0.49343190617E+02  0.30410903049E+02  0.18540243746E+03  0.00000000000E+00 0. -1.
         -5    1    3    3    0  503  0.22275364461E+02 -0.36766728454E+02 -0.38671002757E+02  0.58013107461E+02  0.47000000000E+01 0.  1.
         11    1    4    4    0    0  0.79881002031E+02  0.13356803983E+03 -0.13460042304E+03  0.20576362563E+03  0.00000000000E+00 0. -1.
        -12    1    4    4    0    0  0.48966735893E+02  0.10561222867E+02 -0.18695338097E+02  0.53467712865E+02  0.00000000000E+00 0.  1.
</event>
<event>
12    1  0.8271773E-002  0.1944687E+03  0.7818608E-02  0.1154778E+00
         21   -1    0    0  503  502  0.00000000000E+00  0.00000000000E+00  0.26401696104E+03  0.26401696104E+03  0.00000000000E+00 0. -1.
         21   -1    0    0  501  503 -0.00000000000E+00 -0.00000000000E+00 -0.32580586457E+03  0.32580586457E+03  0.00000000000E+00 0. -1.
          6    2    1    2  501    0 -0.49162578771E+02 -0.72962863433E+02 -0.25227794857E+03  0.31853137697E+03  0.17342876401E+03 0.  0.
         24    2    3    3    0    0 -0.43856281431E+02 -0.31779004332E+02 -0.25876998366E+03  0.27624067395E+03  0.80085747589E+02 0.  0.
         -6    2    1    2    0  502  0.49162578771E+02  0.72962863433E+02  0.19048904504E+03  0.27129144864E+03  0.17196637819E+03 0.  0.
        -24    2    5    5    0    0  0.60270006756E+02  0.60690649406E+02  0.45618292664E+02  0.12540242544E+03  0.79554453308E+02 0.  0.
          5    1    3    3  501    0 -0.53062973403E+01 -0.41183859101E+02  0.64920350869E+01  0.42290703015E+02  0.47000000000E+01 0. -1.
        -11    1    4    4    0    0 -0.36638768253E+02  0.13116252419E+02 -0.54481815011E+02  0.66952995329E+02  0.00000000000E+00 0.  1.
         12    1    4    4    0    0 -0.72175131780E+01 -0.44895256751E+02 -0.20428816865E+03  0.20928767863E+03  0.00000000000E+00 0. -1.
         -5    1    5    5    0  502 -0.11107427984E+02  0.12272214027E+02  0.14487075238E+03  0.14588902320E+03  0.47000000000E+01 0.  1.
         11    1    6    6    0    0  0.22703323795E+02 -0.12703344750E+02  0.32954620364E+02  0.41985984357E+02  0.00000000000E+00 0. -1.
        -12    1    6    6    0    0  0.37566682961E+02  0.73393994156E+02  0.12663672300E+02  0.83416441083E+02  0.00000000000E+00 0.  1.
</event>
<event>
12    1  0.8271773E-002  0.1776031E+03  0.7818608E-02  0.1170211E+00
         21   -1    0    0  501  502  0.00000000000E+00  0.00000000000E+00  0.93041910485E+02  0.93041910485E+02  0.00000000000E+00 0. -1.
         21   -1    0    0  502  503 -0.00000000000E+00 -0.00000000000E+00 -0.57103943791E+03  0.57103943791E+03  0.00000000000E+00 0. -1.
         -6    2    1    2    0  503  0.32866350763E+00  0.42439506078E+02 -0.45099941534E+03  0.48470954687E+03  0.17245768318E+03 0.  0.
        -24    2    3    3    0    0 -0.24731897604E+02  0.90645924062E+02 -0.36191366299E+03  0.38025739643E+03  0.69179749742E+02 0.  0.
          6    2    1    2  501    0 -0.32866350763E+00 -0.42439506078E+02 -0.26998112083E+02  0.17937180153E+03  0.17217469452E+03 0.  0.
         24    2    5    5    0    0 -0.30270445140E+02  0.16283949904E+02 -0.60293659724E+02  0.10537424709E+03  0.79290224328E+02 0.  0.
          5    1    5    5  501    0  0.29941781633E+02 -0.58723455982E+02  0.33295547641E+02  0.73997554436E+02  0.47000000000E+01 0. -1.
        -11    1    6    6    0    0  0.24114166187E+02 -0.16543794485E+01 -0.29802288432E+01  0.24353885649E+02  0.00000000000E+00 0.  1.
         12    1    6    6    0    0 -0.54384611327E+02  0.17938329353E+02 -0.57313430881E+02  0.81020361444E+02  0.00000000000E+00 0. -1.
         -5    1    3    3    0  503  0.25060561112E+02 -0.48206417984E+02 -0.89085752357E+02  0.10445215044E+03  0.47000000000E+01 0.  1.
         11    1    4    4    0    0 -0.46874949896E+02  0.71193495701E+02 -0.23545321597E+03  0.25040765098E+03  0.00000000000E+00 0. -1.
        -12    1    4    4    0    0  0.22143052292E+02  0.19452428361E+02 -0.12646044702E+03  0.12984974545E+03  0.00000000000E+00 0.  1.
</event>
<event>
12    1  0.8271773E-002  0.2160668E+03  0.7818608E-02  0.1136852E+00
         21   -1    0    0  501  502  0.00000000000E+00  0.00000000000E+00  0.50909137957E+03  0.50909137957E+03  0.00000000000E+00 0.  1.
         21   -1    0    0  502  503 -0.00000000000E+00 -0.00000000000E+00 -0.96838916934E+02  0.96838916934E+02  0.00000000000E+00 0.  1.
         -6    2    1    2    0  503  0.13196268184E+03  0.13854550402E+01  0.13631914777E+03  0.25547558892E+03  0.17108126022E+03 0.  0.
        -24    2    3    3    0    0  0.17333082079E+01  0.22870363218E+02  0.50467892223E+02  0.97951561811E+02  0.80755448391E+02 0.  0.
          6    2    1    2  501    0 -0.13196268184E+03 -0.13854550402E+01  0.27593331487E+03  0.35045470759E+03  0.17106501376E+03 0.  0.
         24    2    5    5    0    0 -0.15879654996E+03 -0.19313588987E+02  0.25644218693E+03  0.31246170122E+03  0.79248725496E+02 0.  0.
          5    1    5    5  501    0  0.26833868117E+02  0.17928133946E+02  0.19491127942E+02  0.37993006375E+02  0.47000000000E+01 0. -1.
        -11    1    6    6    0    0 -0.93819042374E+02  0.81357264050E+01  0.20360834617E+03  0.22433136514E+03  0.00000000000E+00 0.  1.
         12    1    6    6    0    0 -0.64977507585E+02 -0.27449315392E+02  0.52833840755E+02  0.88130336073E+02  0.00000000000E+00 0. -1.
         -5    1    3    3    0  503  0.13022937363E+03 -0.21484908178E+02  0.85851255548E+02  0.15752402711E+03  0.47000000000E+01 0.  1.
         11    1    4    4    0    0  0.96046683194E+01  0.39753462292E+02  0.63278209723E+02  0.75344006022E+02  0.00000000000E+00 0. -1.
        -12    1    4    4    0    0 -0.78713601115E+01 -0.16883099074E+02 -0.12810317500E+02  0.22607555790E+02  0.00000000000E+00 0.  1.
</event>
<event>
12    1  0.8271773E-002  0.1986623E+03  0.7818608E-02  0.1152209E+00
         21   -1    0    0  501  502  0.00000000000E+00  0.00000000000E+00  0.43170551771E+03  0.43170551771E+03  0.00000000000E+00 0.  1.
         21   -1    0    0  502  503 -0.00000000000E+00 -0.00000000000E+00 -0.11120921187E+03  0.11120921187E+03  0.00000000000E+00 0.  1.
         -6    2    1    2    0  503 -0.18247788695E+02 -0.80755531439E+02  0.28465125186E+03  0.34712109979E+03  0.18058871804E+03 0.  0.
        -24    2    3    3    0    0 -0.51322001339E+02 -0.60749872807E+02  0.78426317940E+02  0.13725222813E+03  0.79768364121E+02 0.  0.
          6    2    1    2  501    0  0.18247788695E+02  0.80755531439E+02  0.35845053987E+02  0.19579362980E+03  0.17376950229E+03 0.  0.
         24    2    5    5    0    0 -0.21000049544E+02  0.65044496633E+02  0.81532769570E+02  0.13337018247E+03  0.80425272368E+02 0.  0.
          5    1    5    5  501    0  0.39247838239E+02  0.15711034805E+02 -0.45687715584E+02  0.62423447328E+02  0.47000000000E+01 0. -1.
        -13    1    6    6    0    0  0.24487658474E+02  0.52462259745E+02  0.51031865891E+02  0.77176327014E+02  0.00000000000E+00 0.  1.
         14    1    6    6    0    0 -0.45487708018E+02  0.12582236889E+02  0.30500903680E+02  0.56193855457E+02  0.00000000000E+00 0. -1.
         -5    1    3    3    0  503  0.33074212644E+02 -0.20005658632E+02  0.20622493392E+03  0.20986887165E+03  0.47000000000E+01 0.  1.
         13    1    4    4    0    0 -0.18323162344E+02  0.18820003867E+02  0.14689959012E+02  0.30095277364E+02  0.00000000000E+00 0. -1.
        -14    1    4    4    0    0 -0.32998838995E+02 -0.79569876674E+02  0.63736358927E+02  0.10715695077E+03  0.00000000000E+00 0.  1.
</event>
<event>
12    1  0.8271773E-002  0.1872591E+03  0.7818608E-02  0.1161290E+00
         21   -1    0    0  501  502  0.00000000000E+00  0.00000000000E+00  0.13157242421E+03  0.13157242421E+03  0.00000000000E+00 0.  1.
         21   -1    0    0  502  503 -0.00000000000E+00 -0.00000000000E+00 -0.26446578523E+03  0.26446578523E+03  0.00000000000E+00 0. -1.
         -6    2    1    2    0  503  0.35054138404E+01  0.72985523708E+02 -0.67099163786E+02  0.19891769745E+03  0.17241455270E+03 0.  0.
        -24    2    3    3    0    0  0.42860135151E+02  0.64952891114E+02 -0.95771397564E+02  0.14934447620E+03  0.84117434167E+02 0.  0.
          6    2    1    2  501    0 -0.35054138404E+01 -0.72985523708E+02 -0.65794197231E+02  0.19712051199E+03  0.17084626207E+03 0.  0.
         24    2    5    5    0    0  0.40988587832E+02 -0.44208393289E+02  0.13288758563E+02  0.10181026429E+03  0.80958584727E+02 0.  0.
          5    1    5    5  501    0 -0.44494001672E+02 -0.28777130419E+02 -0.79082955794E+02  0.95310247703E+02  0.47000000000E+01 0. -1.
        -13    1    6    6    0    0 -0.19580931391E+01 -0.56286149238E+02  0.79853587428E+01  0.56883483359E+02  0.00000000000E+00 0.  1.
         14    1    6    6    0    0  0.42946680971E+02  0.12077755949E+02  0.53033998203E+01  0.44926780931E+02  0.00000000000E+00 0. -1.
         -5    1    3    3    0  503 -0.39354721310E+02  0.80326325936E+01  0.28672233778E+02  0.49573221255E+02  0.47000000000E+01 0.  1.
         13    1    4    4    0    0  0.38220050692E+02 -0.93914969443E+01 -0.41404102281E+02  0.57125057334E+02  0.00000000000E+00 0. -1.
        -14    1    4    4    0    0  0.46400844587E+01  0.74344388058E+02 -0.54367295283E+02  0.92219418866E+02  0.00000000000E+00 0.  1.
</event>
<event>
12    1  0.8271773E-002  0.1819814E+03  0.7818608E-02  0.1166250E+00
         21   -1    0    0  503  502  0.00000000000E+00  0.00000000000E+00  0.12320925459E+03  0.12320925459E+03  0.00000000000E+00 0.  1.
         21   -1    0    0  501  503 -0.00000000000E+00 -0.00000000000E+00 -0.27430260042E+03  0.27430260042E+03  0.00000000000E+00 0.  1.
          6    2    1    2  501    0 -0.45627747827E+02 -0.31861841441E+02 -0.42603415917E+02  0.18690178000E+03  0.17326325637E+03 0.  0.
         24    2    3    3    0    0 -0.85177413409E+02 -0.61947315347E+02 -0.22680038540E+02  0.13315847573E+03  0.78256845566E+02 0.  0.
         -6    2    1    2    0  502  0.45627747827E+02  0.31861841441E+02 -0.10848992991E+03  0.21061007501E+03  0.17172498505E+03 0.  0.
        -24    2    5    5    0    0  0.75451845311E+01 -0.47112747413E+02 -0.49209688057E+02  0.10466903298E+03  0.79104186285E+02 0.  0.
          5    1    3    3  501    0  0.39549665582E+02  0.30085473906E+02 -0.19923377378E+02  0.53743304271E+02  0.47000000000E+01 0. -1.
        -13    1    4    4    0    0 -0.71879543081E+02 -0.23555232353E+02  0.15716307137E+02  0.77256197129E+02  0.00000000000E+00 0.  1.
         14    1    4    4    0    0 -0.13297870328E+02 -0.38392082994E+02 -0.38396345677E+02  0.55902278605E+02  0.00000000000E+00 0. -1.
         -5    1    5    5    0  502  0.38082563296E+02  0.78974588853E+02 -0.59280241852E+02  0.10594104203E+03  0.47000000000E+01 0.  1.
         11    1    6    6    0    0 -0.32124391699E+02 -0.22626526433E+02 -0.36120207368E+01  0.39458623066E+02  0.00000000000E+00 0. -1.
        -12    1    6    6    0    0  0.39669576230E+02 -0.24486220980E+02 -0.45597667320E+02  0.65210409914E+02  0.00000000000E+00 0.  1.
</event>
<event>
12    1  0.8271773E-002  0.2339329E+03  0.7818608E-02  0.1124883E+00
         21   -1    0    0  503  502  0.00000000000E+00  0.00000000000E+00  0.28645187373E+03  0.28645187373E+03  0.00000000000E+00 0. -1.
         21   -1    0    0  501  503 -0.00000000000E+00 -0.00000000000E+00 -0.22648439417E+03  0.22648439417E+03  0.00000000000E+00 0.  1.
          6    2    1    2  501    0 -0.92116700711E+02  0.12701625708E+03 -0.77501311653E+02  0.24643671892E+03  0.17351076915E+03 0.  0.
         24    2    3    3    0    0 -0.13031106573E+02  0.59132616171E+01 -0.42204110338E+02  0.97478841886E+02  0.86695797387E+02 0.  0.
         -6    2    1    2    0  502  0.92116700711E+02 -0.12701625708E+03  0.13746879121E+03  0.26649954898E+03  0.16584849996E+03 0.  0.
        -24    2    5    5    0    0  0.63647313797E+02 -0.84806034331E+02  0.16129470444E+03  0.21009056887E+03  0.82939866367E+02 0.  0.
          5    1    3    3  501    0 -0.79085594138E+02  0.12110299546E+03 -0.35297201314E+02  0.14895787704E+03  0.47000000000E+01 0. -1.
        -13    1    4    4    0    0 -0.37819331033E+02 -0.82599458694E+01  0.81803446084E+01  0.39565724351E+02  0.00000000000E+00 0.  1.
         14    1    4    4    0    0  0.24788224460E+02  0.14173207487E+02 -0.50384454947E+02  0.57913117535E+02  0.00000000000E+00 0. -1.
         -5    1    5    5    0  502  0.28469386914E+02 -0.42210222750E+02 -0.23825913236E+02  0.56408980113E+02  0.47000000000E+01 0.  1.
         11    1    6    6    0    0  0.37876178568E+02 -0.87897162061E+02  0.15686652696E+03  0.18375968895E+03  0.00000000000E+00 0. -1.
        -12    1    6    6    0    0  0.25771135230E+02  0.30911277298E+01  0.44281774857E+01  0.26330879923E+02  0.00000000000E+00 0.  1.
</event>
<event>
12    1  0.8271773E-002  0.2233784E+03  0.7818608E-02  0.1131586E+00
         21   -1    0    0  501  502  0.00000000000E+00  0.00000000000E+00  0.23712214814E+03  0.23712214814E+03  0.00000000000E+00 0. -1.
         21   -1    0    0  502  503 -0.00000000000E+00 -0.00000000000E+00 -0.31921600215E+03  0.31921600215E+03  0.00000000000E+00 0. -1.
         -6    2    1    2    0  503 -0.11265487945E+03 -0.86428191905E+02 -0.20425305830E+03  0.30268338083E+03  0.17244408655E+03 0.  0.
        -24    2    3    3    0    0 -0.85128492830E+02 -0.45697427153E+02 -0.46674050420E+02  0.13754728277E+03  0.86056219264E+02 0.  0.
          6    2    1    2  501    0  0.11265487945E+03  0.86428191905E+02  0.12215920430E+03  0.25365476946E+03  0.17104653359E+03 0.  0.
         24    2    5    5    0    0  0.12455197964E+03  0.98182151479E+02  0.53441598604E+02  0.18277532327E+03  0.73470292200E+02 0.  0.
          5    1    5    5  501    0 -0.11897100186E+02 -0.11753959574E+02  0.68717605697E+02  0.70879446184E+02  0.47000000000E+01 0. -1.
        -11    1    6    6    0    0  0.11660549126E+02 -0.64037857898E+01 -0.96685277863E+01  0.16445586275E+02  0.00000000000E+00 0.  1.
         12    1    6    6    0    0  0.11289143051E+03  0.10458593727E+03  0.63110126390E+02  0.16632973700E+03  0.00000000000E+00 0. -1.
         -5    1    3    3    0  503 -0.27526386620E+02 -0.40730764752E+02 -0.15757900788E+03  0.16513609806E+03  0.47000000000E+01 0.  1.
         13    1    4    4    0    0 -0.26557442485E+02 -0.52688711411E+02 -0.51561846152E+02  0.78358292734E+02  0.00000000000E+00 0. -1.
        -14    1    4    4    0    0 -0.58571050345E+02  0.69912842580E+01  0.48877957326E+01  0.59188990034E+02  0.00000000000E+00 0.  1.
</event>
<event>
12    1  0.8271773E-002  0.2294640E+03  0.7818608E-02  0.1127192E+00
         21   -1    0    0  503  502  0.00000000000E+00  0.00000000000E+00  0.35026331065E+03  0.35026331065E+03  0.00000000000E+00 0.  1.
         21   -1    0    0  501  503 -0.00000000000E+00 -0.00000000000E+00 -0.36854151996E+03  0.36854151996E+03  0.00000000000E+00 0.  1.
          6    2    1    2  501    0 -0.13693628159E+03  0.63749262388E+02 -0.28609399098E+03  0.36613070261E+03  0.17142463664E+03 0.  0.
         24    2    3    3    0    0 -0.16147641864E+03  0.76720607430E+02 -0.27220105177E+03  0.33473678794E+03  0.77424926428E+02 0.  0.
         -6    2    1    2    0  502  0.13693628159E+03 -0.63749262388E+02  0.26781578167E+03  0.35267412800E+03  0.17273747126E+03 0.  0.
        -24    2    5    5    0    0  0.56021483197E+01 -0.49391158917E+02  0.12907693161E+03  0.16103548833E+03  0.82466378504E+02 0.  0.
          5    1    3    3  501    0  0.24540137049E+02 -0.12971345042E+02 -0.13892939206E+02  0.31393914671E+02  0.47000000000E+01 0. -1.
        -11    1    4    4    0    0 -0.82915479206E+02  0.23404982497E+02 -0.19203097053E+03  0.21047247692E+03  0.00000000000E+00 0.  1.
         12    1    4    4    0    0 -0.78560939430E+02  0.53315624933E+02 -0.80170081239E+02  0.12426431101E+03  0.00000000000E+00 0. -1.
         -5    1    5    5    0  502  0.13133413327E+03 -0.14358103471E+02  0.13873885006E+03  0.19163863967E+03  0.47000000000E+01 0.  1.
         11    1    6    6    0    0  0.54179432301E+01 -0.32878628296E+02  0.25325100328E+01  0.33418137509E+02  0.00000000000E+00 0. -1.
        -12    1    6    6    0    0  0.18420508955E+00 -0.16512530621E+02  0.12654442157E+03  0.12761735082E+03  0.00000000000E+00 0.  1.
</event>
<event>
12    1  0.8271773E-002  0.4139134E+03  0.7818608E-02  0.1039123E+00
         21   -1    0    0  501  502  0.00000000000E+00  0.00000000000E+00  0.11322970796E+04  0.11322970796E+04  0.00000000000E+00 0.  1.
         21   -1    0    0  502  503 -0.00000000000E+00 -0.00000000000E+00 -0.39203895118E+03  0.39203895118E+03  0.00000000000E+00 0. -1.
         -6    2    1    2    0  503  0.51887856619E+02 -0.37228823600E+03 -0.22731224638E+03  0.47222360618E+03  0.17330146146E+03 0.  0.
        -24    2    3    3    0    0  0.19329149940E+02 -0.15575199499E+03 -0.32784569418E+02  0.17928825468E+03  0.80231853351E+02 0.  0.
          6    2    1    2  501    0 -0.51887856619E+02  0.37228823600E+03  0.96757037480E+03  0.10521124246E+04  0.17163112616E+03 0.  0.
         24    2    5    5    0    0 -0.87257875094E+02  0.35287691967E+03  0.86794870807E+03  0.94452802103E+03  0.81622089340E+02 0.  0.
          5    1    5    5  501    0  0.35370018475E+02  0.19411316335E+02  0.99621666728E+02  0.10758440357E+03  0.47000000000E+01 0. -1.
        -11    1    6    6    0    0  0.58586620734E+01  0.50170736769E+02  0.18408582629E+03  0.19089006834E+03  0.00000000000E+00 0.  1.
         12    1    6    6    0    0 -0.93116537167E+02  0.30270618290E+03  0.68386288178E+03  0.75363795269E+03  0.00000000000E+00 0. -1.
         -5    1    3    3    0  503  0.32558706679E+02 -0.21653624101E+03 -0.19452767697E+03  0.29293535150E+03  0.47000000000E+01 0.  1.
         11    1    4    4    0    0  0.58501014456E+00 -0.14883611246E+03 -0.45462823811E+02  0.15562582999E+03  0.00000000000E+00 0. -1.
        -12    1    4    4    0    0  0.18744139795E+02 -0.69158825280E+01  0.12678254393E+02  0.23662424691E+02  0.00000000000E+00 0.  1.
</event>
<event>
12    1  0.8271773E-002  0.1945354E+03  0.7818608E-02  0.1154533E+00
         21   -1    0    0  503  502  0.00000000000E+00  0.00000000000E+00  0.40274803839E+03  0.40274803839E+03  0.00000000000E+00 0. -1.
         21   -1    0    0  501  503 -0.00000000000E+00 -0.00000000000E+00 -0.14316629902E+03  0.14316629902E+03  0.00000000000E+00 0. -1.
          6    2    1    2  501    0  0.84888833256E+02 -0.25992312162E+02 -0.30483687717E+02  0.19690933537E+03  0.17309626465E+03 0.  0.
         24    2    3    3    0    0  0.80891641251E+02  0.22808809682E+02  0.30988737219E+02  0.11817893422E+03  0.77086050855E+02 0.  0.
         -6    2    1    2    0  502 -0.84888833256E+02  0.25992312162E+02  0.29006542709E+03  0.34900500204E+03  0.17258280665E+03 0.  0.
        -24    2    5    5    0    0 -0.92296285252E+02  0.90523655689E+01  0.99931969518E+02  0.15791692333E+03  0.79691947830E+02 0.  0.
          5    1    3    3  501    0  0.39971920050E+01 -0.48801121844E+02 -0.61472424935E+02  0.78730401146E+02  0.47000000000E+01 0. -1.
        -11    1    4    4    0    0 -0.93666679343E+01  0.74903021532E+01 -0.12064712253E+02  0.17011654131E+02  0.00000000000E+00 0.  1.
         12    1    4    4    0    0  0.90258309185E+02  0.15318507529E+02  0.43053449471E+02  0.10116728009E+03  0.00000000000E+00 0. -1.
         -5    1    5    5    0  502  0.74074519961E+01  0.16939946593E+02  0.19013345757E+03  0.19108807871E+03  0.47000000000E+01 0.  1.
         13    1    6    6    0    0 -0.23294874994E+02 -0.32305565846E+02  0.20222585843E+02  0.44668263497E+02  0.00000000000E+00 0. -1.
        -14    1    6    6    0    0 -0.69001410257E+02  0.41357931415E+02  0.79709383675E+02  0.11324865983E+03  0.00000000000E+00 0.  1.
</event>
<event>
12    1  0.8271773E-002  0.1793901E+03  0.7818608E-02  0.1168562E+00
         21   -1    0    0  501  502  0.00000000000E+00  0.00000000000E+00  0.12251879043E+03  0.12251879043E+03  0.00000000000E+00 0. -1.
         21   -1    0    0  502  503 -0.00000000000E+00 -0.00000000000E+00 -0.47112740435E+03  0.47112740435E+03  0.00000000000E+00 0. -1.
         -6    2    1    2    0  503  0.40449793034E+02 -0.29937256245E+02 -0.37203947207E+03  0.41273239904E+03  0.17147081202E+03 0.  0.
        -24    2    3    3    0    0  0.70452137597E+02  0.29354675122E+02 -0.20463637222E+03  0.23256147563E+03  0.79897399635E+02 0.  0.
          6    2    1    2  501    0 -0.40449793034E+02  0.29937256245E+02  0.23430858151E+02  0.18091379574E+03  0.17218702421E+03 0.  0.
         24    2    5    5    0    0 -0.93406597535E+02  0.29896498626E+02  0.84113550431E+01  0.12566797890E+03  0.78122320337E+02 0.  0.
          5    1    5    5  501    0  0.52956804501E+02  0.40757618135E-01  0.15019503108E+02  0.55245816834E+02  0.47000000000E+01 0. -1.
        -13    1    6    6    0    0 -0.43907403933E+02 -0.14155811061E+02 -0.23889516435E+02  0.51951478347E+02  0.00000000000E+00 0.  1.
         14    1    6    6    0    0 -0.49499193601E+02  0.44052309687E+02  0.32300871478E+02  0.73716500556E+02  0.00000000000E+00 0. -1.
         -5    1    3    3    0  503 -0.30002344562E+02 -0.59291931367E+02 -0.16740309985E+03  0.18017092341E+03  0.47000000000E+01 0.  1.
         13    1    4    4    0    0 -0.15062712947E+02 -0.65227866510E+01 -0.19432776514E+02  0.25437469804E+02  0.00000000000E+00 0. -1.
        -14    1    4    4    0    0  0.85514850544E+02  0.35877461773E+02 -0.18520359571E+03  0.20712400583E+03  0.00000000000E+00 0.  1.
</event>
<event>
12    1  0.8271773E-002  0.1725135E+03  0.7818608E-02  0.1178023E+00
         21   -1    0    0  503  502  0.00000000000E+00  0.00000000000E+00  0.12244079911E+03  0.12244079911E+03  0.00000000000E+00 0. -1.
         21   -1    0    0  501  503 -0.00000000000E+00 -0.00000000000E+00 -0.33277584685E+03  0.33277584685E+03  0.00000000000E+00 0. -1.
          6    2    1    2  501    0  0.13966656693E+02 -0.18986715292E+01 -0.23025712198E+03  0.28155661425E+03  0.16142215571E+03 0.  0.
         24    2    3    3    0    0  0.54833673908E+01  0.32054502712E+02 -0.50672311596E+02  0.98533177616E+02  0.77997086270E+02 0.  0.
         -6    2    1    2    0  502 -0.13966656693E+02  0.18986715292E+01  0.19922074239E+02  0.17366003171E+03  0.17193674744E+03 0.  0.
        -24    2    5    5    0    0 -0.52495614261E+02  0.38837377818E+02  0.47776444783E+02  0.11327042539E+03  0.79268336418E+02 0.  0.
          5    1    3    3  501    0  0.84832893025E+01 -0.33953174241E+02 -0.17958481038E+03  0.18302343664E+03  0.47000000000E+01 0. -1.
        -13    1    4    4    0    0 -0.30541733780E+02 -0.56187123875E+01 -0.10701477295E+02  0.32846446497E+02  0.00000000000E+00 0.  1.
         14    1    4    4    0    0  0.36025101171E+02  0.37673215100E+02 -0.39970834301E+02  0.65686731119E+02  0.00000000000E+00 0. -1.
         -5    1    5    5    0  502  0.38528957568E+02 -0.36938706289E+02 -0.27854370544E+02  0.60389606324E+02  0.47000000000E+01 0.  1.
         11    1    6    6    0    0 -0.26572099344E+02 -0.22131642998E+02  0.26885965835E+02  0.43803438725E+02  0.00000000000E+00 0. -1.
        -12    1    6    6    0    0 -0.25923514918E+02  0.60969020816E+02  0.20890478948E+02  0.69466986660E+02  0.00000000000E+00 0.  1.
</event>
<event>
12    1  0.8271773E-002  0.2183387E+03  0.7818608E-02  0.1135316E+00
         21   -1    0    0  501  502  0.00000000000E+00  0.00000000000E+00  0.18688257994E+03  0.18688257994E+03  0.00000000000E+00 0. -1.
         21   -1    0    0  502  503 -0.00000000000E+00 -0.00000000000E+00 -0.25516668385E+03  0.25516668385E+03  0.00000000000E+00 0. -1.
         -6    2    1    2    0  503 -0.12658398047E+03 -0.40509349760E+02 -0.18648205229E+02  0.21813961878E+03  0.17196693344E+03 0.  0.
        -24    2    3    3    0    0 -0.22015946453E+02  0.22834070839E+02  0.12333353130E+02  0.91930230742E+02  0.85398823385E+02 0.  0.
          6    2    1    2  501    0  0.12658398047E+03  0.40509349760E+02 -0.49635898680E+02  0.22390964500E+03  0.17322613878E+03 0.  0.
         24    2    5    5    0    0  0.19459595674E+02 -0.12915302220E+02  0.16900379461E+02  0.86873176987E+02  0.81950260273E+02 0.  0.
          5    1    5    5  501    0  0.10712438480E+03  0.53424651980E+02 -0.66536278140E+02  0.13703646801E+03  0.47000000000E+01 0. -1.
        -13    1    6    6    0    0  0.12447759625E+02 -0.27609325135E+02 -0.26673368183E+02  0.40357033145E+02  0.00000000000E+00 0.  1.
         14    1    6    6    0    0  0.70118360493E+01  0.14694022915E+02  0.43573747644E+02  0.46516143842E+02  0.00000000000E+00 0. -1.
         -5    1    3    3    0  503 -0.10456803402E+03 -0.63343420599E+02 -0.30981558359E+02  0.12620938804E+03  0.47000000000E+01 0.  1.
         13    1    4    4    0    0  0.45395164410E+01 -0.23285491499E+02 -0.18803710914E+02  0.30272113702E+02  0.00000000000E+00 0. -1.
        -14    1    4    4    0    0 -0.26555462894E+02  0.46119562337E+02  0.31137064044E+02  0.61658117040E+02  0.00000000000E+00 0.  1.
</event>
<event>
12    1  0.8271773E-002  0.1809837E+03  0.7818608E-02  0.1167781E+00
         21   -1    0    0  501  502  0.00000000000E+00  0.00000000000E+00  0.40796472309E+03  0.40796472309E+03  0.00000000000E+00 0. -1.
         21   -1    0    0  502  503 -0.00000000000E+00 -0.00000000000E+00 -0.12596708296E+03  0.12596708296E+03  0.00000000000E+00 0. -1.
         -6    2    1    2    0  503  0.40937196553E+01  0.53588169700E+02 -0.23627375683E+02  0.17873926275E+03  0.16882245317E+03 0.  0.
        -24    2    3    3    0    0 -0.47146409160E+02  0.50209042790E+01  0.21788370421E+02  0.94661857551E+02  0.78981901806E+02 0.  0.
          6    2    1    2  501    0 -0.40937196553E+01 -0.53588169700E+02  0.30562501582E+03  0.35519254329E+03  0.17281968072E+03 0.  0.
         24    2    5    5    0    0  0.60807187250E+02 -0.41326464099E+02  0.13999785515E+03  0.17681955349E+03  0.79122464522E+02 0.  0.
          5    1    5    5  501    0 -0.64900906905E+02 -0.12261705602E+02  0.16562716067E+03  0.17837298981E+03  0.47000000000E+01 0. -1.
        -13    1    6    6    0    0  0.36006988780E+02 -0.64392713939E+02  0.10250577722E+03  0.12629473154E+03  0.00000000000E+00 0.  1.
         14    1    6    6    0    0  0.24800198470E+02  0.23066249840E+02  0.37492077928E+02  0.50524821951E+02  0.00000000000E+00 0. -1.
         -5    1    3    3    0  503  0.51240128816E+02  0.48567265421E+02 -0.45415746105E+02  0.84077405204E+02  0.47000000000E+01 0.  1.
         11    1    4    4    0    0 -0.46231943779E+02  0.33705776397E+01 -0.21664945148E+02  0.51167599782E+02  0.00000000000E+00 0. -1.
        -12    1    4    4    0    0 -0.91446538154E+00  0.16503266394E+01  0.43453315569E+02  0.43494257769E+02  0.00000000000E+00 0.  1.
</event>
<event>
12    1  0.8271773E-002  0.2400129E+03  0.7818608E-02  0.1120236E+00
         21   -1    0    0  501  502  0.00000000000E+00  0.00000000000E+00  0.38873645066E+02  0.38873645066E+02  0.00000000000E+00 0. -1.
         21   -1    0    0  502  503 -0.00000000000E+00 -0.00000000000E+00 -0.15238739225E+04  0.15238739225E+04  0.00000000000E+00 0.  1.
         -6    2    1    2    0  503 -0.96589683451E+02 -0.13114550589E+03 -0.89169182898E+03  0.92273106283E+03  0.17259659843E+03 0.  0.
        -24    2    3    3    0    0 -0.19169796056E+02 -0.13273471493E+03 -0.49712773340E+03  0.52061257275E+03  0.76912170422E+02 0.  0.
          6    2    1    2  501    0  0.96589683451E+02  0.13114550589E+03 -0.59330844846E+03  0.64001650474E+03  0.17628811831E+03 0.  0.
         24    2    5    5    0    0 -0.17852406170E+02  0.33645058873E+02 -0.28202652614E+03  0.29429717608E+03  0.74974449037E+02 0.  0.
          5    1    5    5  501    0  0.11444208962E+03  0.97500447015E+02 -0.31128192232E+03  0.34571932866E+03  0.47000000000E+01 0. -1.
        -11    1    6    6    0    0  0.14565813315E+02  0.29482843461E+02 -0.23341121827E+03  0.23571635028E+03  0.00000000000E+00 0.  1.
         12    1    6    6    0    0 -0.32418219485E+02  0.41622154117E+01 -0.48615307875E+02  0.58580825801E+02  0.00000000000E+00 0. -1.
         -5    1    3    3    0  503 -0.77419887395E+02  0.15892090441E+01 -0.39456409558E+03  0.40211849009E+03  0.47000000000E+01 0.  1.
         13    1    4    4    0    0 -0.50695617628E+01 -0.48991318367E+02 -0.72967864439E+02  0.88034987207E+02  0.00000000000E+00 0. -1.
        -14    1    4    4    0    0 -0.14100234293E+02 -0.83743396566E+02 -0.42415986896E+03  0.43257758554E+03  0.00000000000E+00 0.  1.
</event>
<event>
12    1  0.8271773E-002  0.1862391E+03  0.7818608E-02  0.1162574E+00
         21   -1    0    0  503  502  0.00000000000E+00  0.00000000000E+00  0.17057302533E+03  0.17057302533E+03  0.00000000000E+00 0. -1.
         21   -1    0    0  501  503 -0.00000000000E+00 -0.00000000000E+00 -0.42180349429E+03  0.42180349429E+03  0.00000000000E+00 0. -1.
          6    2    1    2  501    0  0.23884692781E+02  0.59076508662E+02 -0.34076779504E+03  0.38833966765E+03  0.17499855689E+03 0.  0.
         24    2    3    3    0    0 -0.51988499616E+02  0.21765139549E+02 -0.22178386054E+03  0.24229807680E+03  0.79647673122E+02 0.  0.
         -6    2    1    2    0  502 -0.23884692781E+02 -0.59076508662E+02  0.89537326079E+02  0.20403685196E+03  0.17191158126E+03 0.  0.
        -24    2    5    5    0    0  0.34015918919E+02  0.10655838723E+02  0.68981274913E+02  0.11097922279E+03  0.79292761103E+02 0.  0.
          5    1    3    3  501    0  0.75873192397E+02  0.37311369113E+02 -0.11898393450E+03  0.14604159085E+03  0.47000000000E+01 0. -1.
        -11    1    4    4    0    0 -0.10698713053E+02 -0.84919175089E+01  0.10125494886E+01  0.13696728822E+02  0.00000000000E+00 0.  1.
         12    1    4    4    0    0 -0.41289786563E+02  0.30257057058E+02 -0.22279641003E+03  0.22860134798E+03  0.00000000000E+00 0. -1.
         -5    1    5    5    0  502 -0.57900611700E+02 -0.69732347385E+02  0.20556051166E+02  0.93057629170E+02  0.47000000000E+01 0.  1.
         11    1    6    6    0    0 -0.43637627762E+01 -0.30390686910E+02  0.22777564051E+02  0.38228964157E+02  0.00000000000E+00 0. -1.
        -12    1    6    6    0    0  0.38379681695E+02  0.41046525633E+02  0.46203710862E+02  0.72750258631E+02  0.00000000000E+00 0.  1.
</event>
<event>
12    1  0.8271773E-002  0.2148239E+03  0.7818608E-02  0.1137891E+00
         21   -1    0    0  501  502  0.00000000000E+00  0.00000000000E+00  0.12477866641E+04  0.12477866641E+04  0.00000000000E+00 0.  1.
         21   -1    0    0  502  503 -0.00000000000E+00 -0.00000000000E+00 -0.96608815751E+02  0.96608815751E+02  0.00000000000E+00 0.  1.
         -6    2    1    2    0  503 -0.11701852754E+03 -0.54492293725E+02  0.46923171859E+02  0.21943872057E+03  0.17113977376E+03 0.  0.
        -24    2    3    3    0    0 -0.23800097897E+02  0.12596890797E+02  0.61383832530E+02  0.10358607704E+03  0.78974515782E+02 0.  0.
          6    2    1    2  501    0  0.11701852754E+03  0.54492293725E+02  0.11042546765E+04  0.11249567593E+04  0.17171655085E+03 0.  0.
         24    2    5    5    0    0  0.11666699690E+03 -0.14866006724E+02  0.64482358789E+03  0.66029590168E+03  0.79756077840E+02 0.  0.
          5    1    5    5  501    0  0.35153064025E+00  0.69358300449E+02  0.45943108859E+03  0.46466085759E+03  0.47000000000E+01 0. -1.
        -11    1    6    6    0    0  0.89959001040E+02 -0.41850149649E+02  0.53427395069E+03  0.54340842032E+03  0.00000000000E+00 0.  1.
         12    1    6    6    0    0  0.26707995863E+02  0.26984142924E+02  0.11054963721E+03  0.11688748136E+03  0.00000000000E+00 0. -1.
         -5    1    3    3    0  503 -0.93218429646E+02 -0.67089184522E+02 -0.14460660671E+02  0.11585264353E+03  0.47000000000E+01 0.  1.
         11    1    4    4    0    0  0.55075532811E+01 -0.23190251150E+02 -0.33021171101E+01  0.24062935584E+02  0.00000000000E+00 0. -1.
        -12    1    4    4    0    0 -0.29307651178E+02  0.35787141947E+02  0.64685949640E+02  0.79523141457E+02  0.00000000000E+00 0.  1.
</event>
<event>
12    1  0.8271773E-002  0.1795580E+03  0.7818608E-02  0.1168466E+00
         21   -1    0    0  501  502  0.00000000000E+00  0.00000000000E+00  0.14121846839E+04  0.14121846839E+04  0.00000000000E+00 0. -1.
         21   -1    0    0  502  503 -0.00000000000E+00 -0.00000000000E+00 -0.34027921533E+02  0.34027921533E+02  0.00000000000E+00 0. -1.
         -6    2    1    2    0  503  0.33298820908E+02 -0.38338461578E+02  0.27325564942E+03  0.32697053125E+03  0.17222784112E+03 0.  0.
        -24    2    3    3    0    0  0.59820021798E+02 -0.31218561076E+02  0.27966479876E+03  0.29838322156E+03  0.79165103926E+02 0.  0.
          6    2    1    2  501    0 -0.33298820908E+02  0.38338461578E+02  0.11049011129E+04  0.11192420742E+04  0.17122412832E+03 0.  0.
         24    2    5    5    0    0  0.38666864940E+02  0.49512264911E+02  0.51324675042E+03  0.52310376094E+03  0.79175293306E+02 0.  0.
          5    1    5    5  501    0 -0.71965685848E+02 -0.11173803333E+02  0.59165436250E+03  0.59613831322E+03  0.47000000000E+01 0. -1.
        -13    1    6    6    0    0 -0.84019956771E+00  0.31623157310E+02  0.40864916285E+03  0.40987177058E+03  0.00000000000E+00 0.  1.
         14    1    6    6    0    0  0.39507064508E+02  0.17889107601E+02  0.10459758756E+03  0.11323199036E+03  0.00000000000E+00 0. -1.
         -5    1    3    3    0  503 -0.26521200890E+02 -0.71199005018E+01 -0.64091493434E+01  0.28587309686E+02  0.47000000000E+01 0.  1.
         13    1    4    4    0    0  0.55663957479E+02 -0.15367901246E+02  0.83429373792E+02  0.10146481638E+03  0.00000000000E+00 0. -1.
        -14    1    4    4    0    0  0.41560643189E+01 -0.15850659830E+02  0.19623542497E+03  0.19691840519E+03  0.00000000000E+00 0.  1.
</event>
<event>
12    1  0.8271773E-002  0.2053769E+03  0.7818608E-02  0.1145326E+00
         21   -1    0    0  503  502  0.00000000000E+00  0.00000000000E+00  0.17386135821E+04  0.17386135821E+04  0.00000000000E+00 0. -1.
         21   -1    0    0  501  503 -0.00000000000E+00 -0.00000000000E+00 -0.10291318830E+03  0.10291318830E+03  0.00000000000E+00 0. -1.
          6    2    1    2  501    0  0.14539066889E+02 -0.11081277186E+03  0.12869185781E+02  0.20577970765E+03  0.17230443193E+03 0.  0.
         24    2    3    3    0    0 -0.94964772689E+01  0.31524753515E+01  0.39544197121E+02  0.86199478575E+02  0.75937378143E+02 0.  0.
         -6    2    1    2    0  502 -0.14539066889E+02  0.11081277186E+03  0.16228312080E+04  0.16357470628E+04  0.17203624250E+03 0.  0.
        -24    2    5    5    0    0 -0.19470566958E+02  0.96572877087E+02  0.61328463241E+03  0.62607708073E+03  0.78415859963E+02 0.  0.
          5    1    3    3  501    0  0.24035544157E+02 -0.11396524721E+03 -0.26675011340E+02  0.11958022907E+03  0.47000000000E+01 0. -1.
        -13    1    4    4    0    0 -0.82979073923E+01  0.17603843639E+02 -0.18210097351E+02  0.26652546286E+02  0.00000000000E+00 0.  1.
         14    1    4    4    0    0 -0.11985698766E+01 -0.14451368288E+02  0.57754294472E+02  0.59546932289E+02  0.00000000000E+00 0. -1.
         -5    1    5    5    0  502  0.49315000698E+01  0.14239894773E+02  0.10095465756E+04  0.10096699821E+04  0.47000000000E+01 0.  1.
         13    1    6    6    0    0  0.22826996397E+02  0.72866577464E+02  0.41362097649E+03  0.42061017827E+03  0.00000000000E+00 0. -1.
        -14    1    6    6    0    0 -0.42297563355E+02  0.23706299623E+02  0.19966365593E+03  0.20546690246E+03  0.00000000000E+00 0.  1.
</event>
<event>
12    1  0.8271773E-002  0.1874240E+03  0.7818608E-02  0.1160922E+00
         21   -1    0    0  503  502  0.00000000000E+00  0.00000000000E+00  0.35703670516E+03  0.35703670516E+03  0.00000000000E+00 0. -1.
         21   -1    0    0  501  503 -0.00000000000E+00 -0.00000000000E+00 -0.99344732419E+02  0.99344732419E+02  0.00000000000E+00 0.  1.
          6    2    1    2  501    0 -0.41018089540E+02 -0.61243590005E+02  0.15399930835E+03  0.24218540871E+03  0.17176939259E+03 0.  0.
         24    2    3    3    0    0 -0.72496236797E+01 -0.53124375591E+02  0.13160169286E+02  0.97051043303E+02  0.79818285030E+02 0.  0.
         -6    2    1    2    0  502  0.41018089540E+02  0.61243590005E+02  0.10369266440E+03  0.21419602887E+03  0.17232094809E+03 0.  0.
        -24    2    5    5    0    0 -0.73076062501E+00 -0.12392932065E+02  0.97320108317E+02  0.12917836398E+03  0.84034085122E+02 0.  0.
          5    1    3    3  501    0 -0.33768465861E+02 -0.81192144141E+01  0.14083913906E+03  0.14513436540E+03  0.47000000000E+01 0. -1.
        -13    1    4    4    0    0  0.15601486711E+02 -0.43174223732E+02  0.39664656691E+02  0.60668813841E+02  0.00000000000E+00 0.  1.
         14    1    4    4    0    0 -0.22851110391E+02 -0.99501518588E+01 -0.26504487404E+02  0.36382229463E+02  0.00000000000E+00 0. -1.
         -5    1    5    5    0  502  0.41748850165E+02  0.73636522069E+02  0.63725560787E+01  0.85017664891E+02  0.47000000000E+01 0.  1.
         13    1    6    6    0    0  0.65580130986E+01  0.26759070028E+00  0.10978103716E+03  0.10997706698E+03  0.00000000000E+00 0. -1.
        -14    1    6    6    0    0 -0.72887737236E+01 -0.12660522765E+02 -0.12460928844E+02  0.19201297007E+02  0.00000000000E+00 0.  1.
</event>
<event>
12    1  0.8271773E-002  0.3103193E+03  0.7818608E-02  0.1080231E+00
         21   -1    0    0  501  502  0.00000000000E+00  0.00000000000E+00  0.47274265368E+03  0.47274265368E+03  0.00000000000E+00 0. -1.
         21   -1    0    0  502  503 -0.00000000000E+00 -0.00000000000E+00 -0.29606978041E+03  0.29606978041E+03  0.00000000000E+00 0. -1.
         -6    2    1    2    0  503  0.25788544939E+03 -0.18693518977E+02 -0.12665262036E+03  0.33487183442E+03  0.17100849858E+03 0.  0.
        -24    2    3    3    0    0  0.24565675265E+03 -0.53253752906E+02 -0.80839524261E+02  0.27600859830E+03  0.80389771287E+02 0.  0.
          6    2    1    2  501    0 -0.25788544939E+03  0.18693518977E+02  0.30332549363E+03  0.43394059967E+03  0.17159177224E+03 0.  0.
         24    2    5    5    0    0 -0.71313259917E+02 -0.20781093255E+02  0.61695526134E+02  0.12608583182E+03  0.81079369539E+02 0.  0.
          5    1    5    5  501    0 -0.18657218947E+03  0.39474612232E+02  0.24162996749E+03  0.30785476785E+03  0.47000000000E+01 0. -1.
        -11    1    6    6    0    0 -0.77934164881E+02 -0.33173758482E+01  0.20195246813E+02  0.80576591092E+02  0.00000000000E+00 0.  1.
         12    1    6    6    0    0  0.66209049638E+01 -0.17463717407E+02  0.41500279321E+02  0.45509240731E+02  0.00000000000E+00 0. -1.
         -5    1    3    3    0  503  0.12228696735E+02  0.34560233929E+02 -0.45813096100E+02  0.58863236127E+02  0.47000000000E+01 0.  1.
         13    1    4    4    0    0  0.79711342679E+02 -0.27045633399E+02 -0.66727496721E+02  0.10741472551E+03  0.00000000000E+00 0. -1.
        -14    1    4    4    0    0  0.16594540998E+03 -0.26208119507E+02 -0.14112027540E+02  0.16859387279E+03  0.00000000000E+00 0.  1.
</event>
<event>
12    1  0.8271773E-002  0.2712925E+03  0.7818608E-02  0.1100737E+00
         21   -1    0    0  503  502  0.00000000000E+00  0.00000000000E+00  0.61700421081E+02  0.61700421081E+02  0.00000000000E+00 0.  1.
         21   -1    0    0  501  503 -0.00000000000E+00 -0.00000000000E+00 -0.16213572409E+04  0.16213572409E+04  0.00000000000E+00 0.  1.
          6    2    1    2  501    0 -0.77016593453E+02  0.19410528782E+03 -0.12168967935E+04  0.12467708103E+04  0.17317975879E+03 0.  0.
         24    2    3    3    0    0 -0.64228437844E+02  0.37649354174E+02 -0.62018219038E+03  0.62973563810E+03  0.79989115120E+02 0.  0.
         -6    2    1    2    0  502  0.77016593453E+02 -0.19410528782E+03 -0.34276002628E+03  0.43628685168E+03  0.17103614504E+03 0.  0.
        -24    2    5    5    0    0  0.87109166044E+02 -0.92282091831E+02 -0.27699710370E+03  0.31456308552E+03  0.78221148231E+02 0.  0.
          5    1    3    3  501    0 -0.12788155609E+02  0.15645593365E+03 -0.59671460314E+03  0.61703517217E+03  0.47000000000E+01 0. -1.
        -11    1    4    4    0    0 -0.65312539778E+02  0.53459943029E+02 -0.58613745947E+03  0.59218309226E+03  0.00000000000E+00 0.  1.
         12    1    4    4    0    0  0.10841019342E+01 -0.15810588855E+02 -0.34044730908E+02  0.37552545846E+02  0.00000000000E+00 0. -1.
         -5    1    5    5    0  502 -0.10092572590E+02 -0.10182319599E+03 -0.65762922581E+02  0.12172376617E+03  0.47000000000E+01 0.  1.
         11    1    6    6    0    0  0.25742067304E+02 -0.81284301008E+02 -0.18131216586E+03  0.20035940983E+03  0.00000000000E+00 0. -1.
        -12    1    6    6    0    0  0.61367098739E+02 -0.10997790823E+02 -0.95684937842E+02  0.11420367569E+03  0.00000000000E+00 0.  1.
</event>
<event>
12    1  0.8271773E-002  0.2956605E+03  0.7818608E-02  0.1087554E+00
         21   -1    0    0  503  502  0.00000000000E+00  0.00000000000E+00  0.89384465875E+03  0.89384465875E+03  0.00000000000E+00 0.  1.
         21   -1    0    0  501  503 -0.00000000000E+00 -0.00000000000E+00 -0.62637257517E+03  0.62637257517E+03  0.00000000000E+00 0. -1.
          6    2    1    2  501    0  0.71150199302E+02 -0.22826374284E+03 -0.56476229858E+03  0.63702462468E+03  0.17227080829E+03 0.  0.
         24    2    3    3    0    0  0.67773298756E+02 -0.86138104194E+02 -0.17561784457E+03  0.22269794595E+03  0.82096009525E+02 0.  0.
         -6    2    1    2    0  502 -0.71150199302E+02  0.22826374284E+03  0.83223438216E+03  0.88319260924E+03  0.17392076071E+03 0.  0.
        -24    2    5    5    0    0  0.22077612962E+02  0.15720510114E+03  0.52207742360E+03  0.55159015978E+03  0.80535726972E+02 0.  0.
          5    1    3    3  501    0  0.33769005457E+01 -0.14212563864E+03 -0.38914445401E+03  0.41432667873E+03  0.47000000000E+01 0. -1.
        -13    1    4    4    0    0 -0.74438449396E+01 -0.46336398075E+02 -0.35830114723E+02  0.59044641883E+02  0.00000000000E+00 0.  1.
         14    1    4    4    0    0  0.75217143696E+02 -0.39801706119E+02 -0.13978772985E+03  0.16365330407E+03  0.00000000000E+00 0. -1.
         -5    1    5    5    0  502 -0.93227812264E+02  0.71058641698E+02  0.31015695856E+03  0.33160244946E+03  0.47000000000E+01 0.  1.
         13    1    6    6    0    0  0.63576486724E+00  0.66362571972E+01 -0.10984170652E+01  0.67565247430E+01  0.00000000000E+00 0. -1.
        -14    1    6    6    0    0  0.21441848095E+02  0.15056884394E+03  0.52317584066E+03  0.54483363504E+03  0.00000000000E+00 0.  1.
</event>
<event>
12    1  0.8271773E-002  0.1815377E+03  0.7818608E-02  0.1166364E+00
         21   -1    0    0  503  502  0.00000000000E+00  0.00000000000E+00  0.58439889834E+02  0.58439889834E+02  0.00000000000E+00 0. -1.
         21   -1    0    0  501  503 -0.00000000000E+00 -0.00000000000E+00 -0.10366816434E+04  0.10366816434E+04  0.00000000000E+00 0. -1.
          6    2    1    2  501    0  0.53252322609E+02  0.24309446171E+02 -0.85921585451E+03  0.87818439411E+03  0.17184058421E+03 0.  0.
         24    2    3    3    0    0  0.89668620382E+02  0.48573682912E+02 -0.73827154414E+03  0.74948118459E+03  0.79229470683E+02 0.  0.
         -6    2    1    2    0  502 -0.53252322609E+02 -0.24309446171E+02 -0.11902589901E+03  0.21693713908E+03  0.17166187299E+03 0.  0.
        -24    2    5    5    0    0 -0.71917041689E+02 -0.57484621103E+02 -0.12825794653E+03  0.17748736504E+03  0.81087121991E+02 0.  0.
          5    1    3    3  501    0 -0.36416297773E+02 -0.24264236741E+02 -0.12094431037E+03  0.12870320952E+03  0.47000000000E+01 0. -1.
        -11    1    4    4    0    0  0.20985281424E+02  0.53231472968E+02 -0.41773677584E+03  0.42163726785E+03  0.00000000000E+00 0.  1.
         12    1    4    4    0    0  0.68683338959E+02 -0.46577900557E+01 -0.32053476830E+03  0.32784391674E+03  0.00000000000E+00 0. -1.
         -5    1    5    5    0  502  0.18664719079E+02  0.33175174931E+02  0.92320475205E+01  0.39449774036E+02  0.47000000000E+01 0.  1.
         11    1    6    6    0    0 -0.25726904655E+02 -0.32836062803E+02 -0.31107842865E+01  0.41830104260E+02  0.00000000000E+00 0. -1.
        -12    1    6    6    0    0 -0.46190137034E+02 -0.24648558300E+02 -0.12514716224E+03  0.13565726078E+03  0.00000000000E+00 0.  1.
</event>
<event>
12    1  0.8271773E-002  0.2373276E+03  0.7818608E-02  0.1121637E+00
         21   -1    0    0  501  502  0.00000000000E+00  0.00000000000E+00  0.69559843863E+03  0.69559843863E+03  0.00000000000E+00 0. -1.
         21   -1    0    0  502  503 -0.00000000000E+00 -0.00000000000E+00 -0.42696079442E+03  0.42696079442E+03  0.00000000000E+00 0. -1.
         -6    2    1    2    0  503 -0.38349193159E+02  0.15812125386E+03 -0.37100163941E+03  0.44041642065E+03  0.17277562210E+03 0.  0.
        -24    2    3    3    0    0 -0.60649713767E+02  0.16678331735E+03 -0.36731561912E+03  0.41575833254E+03  0.80244403550E+02 0.  0.
          6    2    1    2  501    0  0.38349193159E+02 -0.15812125386E+03  0.63963928363E+03  0.68214281241E+03  0.17235838193E+03 0.  0.
         24    2    5    5    0    0  0.68840665111E+02 -0.16136111399E+03  0.44191951505E+03  0.48200430177E+03  0.79112848863E+02 0.  0.
          5    1    5    5  501    0 -0.30491471952E+02  0.32398601386E+01  0.19771976857E+03  0.20013851064E+03  0.47000000000E+01 0. -1.
        -13    1    6    6    0    0  0.34658064351E+02 -0.95215549680E+01  0.10200272028E+03  0.10814987923E+03  0.00000000000E+00 0.  1.
         14    1    6    6    0    0  0.34182600760E+02 -0.15183955903E+03  0.33991679478E+03  0.37385442254E+03  0.00000000000E+00 0. -1.
         -5    1    3    3    0  503  0.22300520607E+02 -0.86620634957E+01 -0.36860202901E+01  0.24658088104E+02  0.47000000000E+01 0.  1.
         13    1    4    4    0    0  0.17673005357E+02  0.12356060308E+02 -0.37813727826E+02  0.43530280918E+02  0.00000000000E+00 0. -1.
        -14    1    4    4    0    0 -0.78322719124E+02  0.15442725704E+03 -0.32950189129E+03  0.37222805162E+03  0.00000000000E+00 0.  1.
</event>
<event>
12    1  0.8271773E-002  0.2611807E+03  0.7818608E-02  0.1106898E+00
         21   -1    0    0  503  502  0.00000000000E+00  0.00000000000E+00  0.12157239348E+04  0.12157239348E+04  0.00000000000E+00 0. -1.
         21   -1    0    0  501  503 -0.00000000000E+00 -0.00000000000E+00 -0.11693953106E+03  0.11693953106E+03  0.00000000000E+00 0. -1.
          6    2    1    2  501    0 -0.18958434034E+03 -0.36999976744E+02  0.10341034345E+04  0.10665764326E+04  0.17579577074E+03 0.  0.
         24    2    3    3    0    0 -0.96937928144E+02 -0.67088841718E+02  0.39255061872E+03  0.41765363065E+03  0.80253924162E+02 0.  0.
         -6    2    1    2    0  502  0.18958434034E+03  0.36999976744E+02  0.64680969213E+02  0.26608703320E+03  0.17119422035E+03 0.  0.
        -24    2    5    5    0    0  0.91555421196E+02 -0.44277215449E+02  0.22662454090E+02  0.13191066952E+03  0.80894814105E+02 0.  0.
          5    1    3    3  501    0 -0.92646412192E+02  0.30088864975E+02  0.64155281579E+03  0.64892280198E+03  0.47000000000E+01 0. -1.
        -11    1    4    4    0    0 -0.80299998785E+02 -0.44619268480E+02  0.16893266817E+03  0.19229460549E+03  0.00000000000E+00 0.  1.
         12    1    4    4    0    0 -0.16637929359E+02 -0.22469573239E+02  0.22361795055E+03  0.22535902516E+03  0.00000000000E+00 0. -1.
         -5    1    5    5    0  502  0.98028919141E+02  0.81277192192E+02  0.42018515123E+02  0.13417636368E+03  0.47000000000E+01 0.  1.
         11    1    6    6    0    0  0.43835257405E+02  0.21381740099E+02  0.92557544369E+01  0.49642497839E+02  0.00000000000E+00 0. -1.
        -12    1    6    6    0    0  0.47720163790E+02 -0.65658955548E+02  0.13406699653E+02  0.82268171679E+02  0.00000000000E+00 0.  1.
</event>
<event>
12    1  0.8271773E-002  0.2211347E+03  0.7818608E-02  0.1133080E+00
         21   -1    0    0  501  502  0.00000000000E+00  0.00000000000E+00  0.34318299005E+03  0.34318299005E+03  0.00000000000E+00 0. -1.
         21   -1    0    0  502  503 -0.00000000000E+00 -0.00000000000E+00 -0.17140117880E+03  0.17140117880E+03  0.00000000000E+00 0.  1.
         -6    2    1    2    0  503 -0.13305595874E+03  0.40455974480E+02 -0.19996536987E+02  0.22203695355E+03  0.17193014053E+03 0.  0.
        -24    2    3    3    0    0 -0.15664188399E+03  0.55058768034E+02  0.43771341048E+01  0.18481191773E+03  0.81044048965E+02 0.  0.
          6    2    1    2  501    0  0.13305595874E+03 -0.40455974480E+02  0.19177834823E+03  0.29254721530E+03  0.17165186950E+03 0.  0.
         24    2    5    5    0    0  0.63817093271E+02  0.44155024826E+02  0.11160825818E+03  0.15689186143E+03  0.78334955660E+02 0.  0.
          5    1    5    5  501    0  0.69238865468E+02 -0.84610999306E+02  0.80170090055E+02  0.13565535387E+03  0.47000000000E+01 0. -1.
        -13    1    6    6    0    0  0.42337022510E+02  0.57486570430E+01  0.68561705333E+01  0.43272134304E+02  0.00000000000E+00 0.  1.
         14    1    6    6    0    0  0.21480070761E+02  0.38406367783E+02  0.10475208764E+03  0.11361972712E+03  0.00000000000E+00 0. -1.
         -5    1    3    3    0  503  0.23585925252E+02 -0.14602793554E+02 -0.24373671092E+02  0.37225035824E+02  0.47000000000E+01 0.  1.
         11    1    4    4    0    0 -0.89986573620E+02  0.70597579078E+02  0.15672275815E+02  0.11544358723E+03  0.00000000000E+00 0. -1.
        -12    1    4    4    0    0 -0.66655310371E+02 -0.15538811044E+02 -0.11295141711E+02  0.69368330494E+02  0.00000000000E+00 0.  1.
</event>
<event>
12    1  0.8271773E-002  0.1728083E+03  0.7818608E-02  0.1175044E+00
         21   -1    0    0  501  502  0.00000000000E+00  0.00000000000E+00  0.88127805500E+02  0.88127805500E+02  0.00000000000E+00 0. -1.
         21   -1    0    0  502  503 -0.00000000000E+00 -0.00000000000E+00 -0.49436567443E+03  0.49436567443E+03  0.00000000000E+00 0. -1.
         -6    2    1    2    0  503 -0.29718790660E+01 -0.90058067454E+01 -0.36669669063E+03  0.40521911953E+03  0.17218053110E+03 0.  0.
        -24    2    3    3    0    0 -0.56366122833E+02 -0.39892587952E+02 -0.21457835888E+03  0.24100275196E+03  0.85263684990E+02 0.  0.
          6    2    1    2  501    0  0.29718790660E+01  0.90058067454E+01 -0.39541178299E+02  0.17727436040E+03  0.17254784106E+03 0.  0.
         24    2    5    5    0    0  0.18501352292E+02 -0.16052158894E+02  0.31285962488E+02  0.10041318651E+03  0.92217269174E+02 0.  0.
          5    1    5    5  501    0 -0.15529473226E+02  0.25057965639E+02 -0.70827140786E+02  0.76861173895E+02  0.47000000000E+01 0. -1.
        -13    1    6    6    0    0 -0.33678249293E+02 -0.58408723410E+01 -0.70042669029E+01  0.34891259937E+02  0.00000000000E+00 0.  1.
         14    1    6    6    0    0  0.52179601585E+02 -0.10211286553E+02  0.38290229391E+02  0.65521926570E+02  0.00000000000E+00 0. -1.
         -5    1    3    3    0  503  0.53394243767E+02  0.30886781207E+02 -0.15211833175E+03  0.16421636756E+03  0.47000000000E+01 0.  1.
         11    1    4    4    0    0  0.38095314478E+01  0.22530219506E+02 -0.39569192790E+02  0.45692935328E+02  0.00000000000E+00 0. -1.
        -12    1    4    4    0    0 -0.60175654281E+02 -0.62422807458E+02 -0.17500916609E+03  0.19530981663E+03  0.00000000000E+00 0.  1.
</event>
<event>
12    1  0.8271773E-002  0.2557681E+03  0.7818608E-02  0.1109778E+00
         21   -1    0    0  501  502  0.00000000000E+00  0.00000000000E+00  0.48182838761E+03  0.48182838761E+03  0.00000000000E+00 0. -1.
         21   -1    0    0  502  503 -0.00000000000E+00 -0.00000000000E+00 -0.15258987265E+03  0.15258987265E+03  0.00000000000E+00 0. -1.
         -6    2    1    2    0  503 -0.27210784064E+02  0.18772149815E+03  0.58469628335E+02  0.26194932799E+03  0.17093555908E+03 0.  0.
        -24    2    3    3    0    0 -0.66705937665E+02  0.11800662890E+03 -0.89114585979E+01  0.15715271054E+03  0.79008314448E+02 0.  0.
          6    2    1    2  501    0  0.27210784064E+02 -0.18772149815E+03  0.27076888663E+03  0.37246893226E+03  0.17157368067E+03 0.  0.
         24    2    5    5    0    0  0.68677255117E+02 -0.18537510525E+03  0.23715669769E+03  0.31883272224E+03  0.79564505228E+02 0.  0.
          5    1    5    5  501    0 -0.41466471053E+02 -0.23463929071E+01  0.33612188935E+02  0.53636210029E+02  0.47000000000E+01 0. -1.
        -11    1    6    6    0    0  0.23687321652E+02 -0.16620080820E+01  0.22160022687E+02  0.32479502512E+02  0.00000000000E+00 0.  1.
         12    1    6    6    0    0  0.44989933465E+02 -0.18371309716E+03  0.21499667500E+03  0.28635321972E+03  0.00000000000E+00 0. -1.
         -5    1    3    3    0  503  0.39495153601E+02  0.69714869256E+02  0.67381086933E+02  0.10479661745E+03  0.47000000000E+01 0.  1.
         13    1    4    4    0    0  0.11435913199E+02  0.53913727389E+02 -0.10356174445E+02  0.56077807205E+02  0.00000000000E+00 0. -1.
        -14    1    4    4    0    0 -0.78141850864E+02  0.64092901508E+02  0.14447158474E+01  0.10107490333E+03  0.00000000000E+00 0.  1.
</event>
<event>
12    1  0.8271773E-002  0.2247793E+03  0.7818608E-02  0.1130515E+00
         21   -1    0    0  501  502  0.00000000000E+00  0.00000000000E+00  0.32803867748E+03  0.32803867748E+03  0.00000000000E+00 0. -1.
         21   -1    0    0  502  503 -0.00000000000E+00 -0.00000000000E+00 -0.18756944933E+03  0.18756944933E+03  0.00000000000E+00 0.  1.
         -6    2    1    2    0  503  0.38381202312E+02  0.13820157316E+03 -0.39576186979E+02  0.22823676047E+03  0.17306921372E+03 0.  0.
        -24    2    3    3    0    0 -0.29599246963E+01  0.64744131073E+01 -0.61249485558E+02  0.88404878021E+02  0.63350168093E+02 0.  0.
          6    2    1    2  501    0 -0.38381202312E+02 -0.13820157316E+03  0.18004541513E+03  0.28737136635E+03  0.17202662344E+03 0.  0.
         24    2    5    5    0    0  0.36070001288E+02 -0.32497307970E+02  0.42203862740E+02  0.98324396094E+02  0.74359940955E+02 0.  0.
          5    1    5    5  501    0 -0.74451203600E+02 -0.10570426519E+03  0.13784155239E+03  0.18904697025E+03  0.47000000000E+01 0. -1.
        -13    1    6    6    0    0  0.55469705173E+02 -0.31837672041E+02  0.45692657498E+02  0.78602445905E+02  0.00000000000E+00 0.  1.
         14    1    6    6    0    0 -0.19399703885E+02 -0.65963592907E+00 -0.34887947578E+01  0.19721950189E+02  0.00000000000E+00 0. -1.
         -5    1    3    3    0  503  0.41341127008E+02  0.13172716005E+03  0.21673298580E+02  0.13983188245E+03  0.47000000000E+01 0.  1.
         11    1    4    4    0    0 -0.60434890815E+00 -0.71339832874E+01  0.11940943361E+02  0.13922825988E+02  0.00000000000E+00 0. -1.
        -12    1    4    4    0    0 -0.23555757881E+01  0.13608396395E+02 -0.73190428919E+02  0.74482052033E+02  0.00000000000E+00 0.  1.
</event>
<event>
12    1  0.8271773E-002  0.2279200E+03  0.7818608E-02  0.1128230E+00
         21   -1    0    0  503  502  0.00000000000E+00  0.00000000000E+00  0.25771052940E+04  0.25771052940E+04  0.00000000000E+00 0. -1.
         21   -1    0    0  501  503 -0.00000000000E+00 -0.00000000000E+00 -0.20626657476E+02  0.20626657476E+02  0.00000000000E+00 0.  1.
          6    2    1    2  501    0 -0.60261244898E+02 -0.13696271517E+03  0.14877386992E+04  0.15050959950E+04  0.17192240663E+03 0.  0.
         24    2    3    3    0    0 -0.44882840280E+02 -0.19868385205E+02  0.83362203849E+03  0.84038683052E+03  0.94419806078E+02 0.  0.
         -6    2    1    2    0  502  0.60261244898E+02  0.13696271517E+03  0.10687399373E+04  0.10926359565E+04  0.17104992517E+03 0.  0.
        -24    2    5    5    0    0  0.93609951708E+02  0.12561713070E+03  0.67751818610E+03  0.69980341313E+03  0.78431103141E+02 0.  0.
          5    1    3    3  501    0 -0.15378404618E+02 -0.11709432997E+03  0.65411666075E+03  0.66470916445E+03  0.47000000000E+01 0. -1.
        -13    1    4    4    0    0  0.46773606613E+00  0.17708747855E+02  0.31773124274E+02  0.36377877257E+02  0.00000000000E+00 0.  1.
         14    1    4    4    0    0 -0.45350576346E+02 -0.37577133060E+02  0.80184891421E+03  0.80400895327E+03  0.00000000000E+00 0. -1.
         -5    1    5    5    0  502 -0.33348706810E+02  0.11345584471E+02  0.39122175118E+03  0.39283254336E+03  0.47000000000E+01 0.  1.
         11    1    6    6    0    0  0.20196308770E+02 -0.57873494933E+01  0.14152977971E+03  0.14308061660E+03  0.00000000000E+00 0. -1.
        -12    1    6    6    0    0  0.73413642938E+02  0.13140448019E+03  0.53598840639E+03  0.55672279652E+03  0.00000000000E+00 0.  1.
</event>
<event>
12    1  0.8271773E-002  0.2147260E+03  0.7818608E-02  0.1137979E+00
         21   -1    0    0  501  502  0.00000000000E+00  0.00000000000E+00  0.29856150302E+03  0.29856150302E+03  0.00000000000E+00 0. -1.
         21   -1    0    0  502  503 -0.00000000000E+00 -0.00000000000E+00 -0.15658652464E+03  0.15658652464E+03  0.00000000000E+00 0. -1.
         -6    2    1    2    0  503 -0.37816735436E+02 -0.12304477038E+03  0.42110343069E+02  0.21881625618E+03  0.17186375993E+03 0.  0.
        -24    2    3    3    0    0 -0.18614516375E+02 -0.19410980491E+02  0.63784520715E+02  0.11111041790E+03  0.86912447318E+02 0.  0.
          6    2    1    2  501    0  0.37816735436E+02  0.12304477038E+03  0.99864635316E+02  0.23633177148E+03  0.17120058360E+03 0.  0.
         24    2    5    5    0    0  0.25134726210E+02  0.57986157024E+02 -0.15258844920E+02  0.10340712278E+03  0.80411764220E+02 0.  0.
          5    1    5    5  501    0  0.12682009226E+02  0.65058613355E+02  0.11512348024E+03  0.13292464870E+03  0.47000000000E+01 0. -1.
        -11    1    6    6    0    0 -0.10960339603E+01 -0.19141623788E+02  0.42481620412E+01  0.19637971698E+02  0.00000000000E+00 0.  1.
         12    1    6    6    0    0  0.26230760171E+02  0.77127780812E+02 -0.19507006961E+02  0.83769151081E+02  0.00000000000E+00 0. -1.
         -5    1    3    3    0  503 -0.19202219061E+02 -0.10363378989E+03 -0.21674177647E+02  0.10770583828E+03  0.47000000000E+01 0.  1.
         13    1    4    4    0    0 -0.42584042631E+02 -0.27202553627E+02  0.97168422250E+01  0.51456745267E+02  0.00000000000E+00 0. -1.
        -14    1    4    4    0    0  0.23969526256E+02  0.77915731361E+01  0.54067678491E+02  0.59653672630E+02  0.00000000000E+00 0.  1.
</event>
<event>
12    1  0.8271773E-002  0.1985725E+03  0.7818608E-02  0.1151165E+00
         21   -1    0    0  501  502  0.00000000000E+00  0.00000000000E+00  0.78117957418E+03  0.78117957418E+03  0.00000000000E+00 0.  1.
         21   -1    0    0  502  503 -0.00000000000E+00 -0.00000000000E+00 -0.13941142372E+03  0.13941142372E+03  0.00000000000E+00 0.  1.
         -6    2    1    2    0  503 -0.51579642554E+02 -0.85487623634E+02 -0.47584069313E+02  0.20320860171E+03  0.17047257502E+03 0.  0.
        -24    2    3    3    0    0  0.28981896309E+02 -0.73493802297E+02 -0.10796986474E+02  0.11371339090E+03  0.81073245046E+02 0.  0.
          6    2    1    2  501    0  0.51579642554E+02  0.85487623634E+02  0.68935221978E+03  0.71738239619E+03  0.17164622377E+03 0.  0.
         24    2    5    5    0    0  0.71007905024E+02  0.11388885731E+03  0.46252543389E+03  0.48791220585E+03  0.78203255898E+02 0.  0.
          5    1    5    5  501    0 -0.19428262470E+02 -0.28401233673E+02  0.22682678589E+03  0.22947019034E+03  0.47000000000E+01 0. -1.
        -13    1    6    6    0    0  0.99424525643E+01  0.14335581680E+02  0.19781578428E+03  0.19858359896E+03  0.00000000000E+00 0.  1.
         14    1    6    6    0    0  0.61065452460E+02  0.99553275627E+02  0.26470964961E+03  0.28932860690E+03  0.00000000000E+00 0. -1.
         -5    1    3    3    0  503 -0.80561538863E+02 -0.11993821337E+02 -0.36787082839E+02  0.89495210810E+02  0.47000000000E+01 0.  1.
         11    1    4    4    0    0 -0.21086366885E+02 -0.21322462756E+02  0.19005046777E+02  0.35503156048E+02  0.00000000000E+00 0. -1.
        -12    1    4    4    0    0  0.50068263194E+02 -0.52171339541E+02 -0.29802033252E+02  0.78210234847E+02  0.00000000000E+00 0.  1.
</event>
<event>
12    1  0.8271773E-002  0.1818916E+03  0.7818608E-02  0.1166756E+00
         21   -1    0    0  503  502  0.00000000000E+00  0.00000000000E+00  0.54591787130E+02  0.54591787130E+02  0.00000000000E+00 0.  1.
         21   -1    0    0  501  503 -0.00000000000E+00 -0.00000000000E+00 -0.80146068027E+03  0.80146068027E+03  0.00000000000E+00 0.  1.
          6    2    1    2  501    0 -0.31017995260E+02 -0.36630345159E+02 -0.58798873614E+03  0.61454167731E+03  0.17212443496E+03 0.  0.
         24    2    3    3    0    0  0.56357560173E+01 -0.86580138781E+02 -0.38493993225E+03  0.40219906235E+03  0.77829635367E+02 0.  0.
         -6    2    1    2    0  502  0.31017995260E+02  0.36630345159E+02 -0.15888015700E+03  0.24151079009E+03  0.17544417695E+03 0.  0.
        -24    2    5    5    0    0 -0.47144706981E+02  0.11429378906E+01 -0.10357329383E+03  0.13928700025E+03  0.80308850940E+02 0.  0.
          5    1    3    3  501    0 -0.36653751278E+02  0.49949793622E+02 -0.20304880389E+03  0.21234261496E+03  0.47000000000E+01 0. -1.
        -13    1    4    4    0    0  0.40850166295E+02 -0.34206803064E+02 -0.18689194324E+03  0.19433846740E+03  0.00000000000E+00 0.  1.
         14    1    4    4    0    0 -0.35214410278E+02 -0.52373335717E+02 -0.19804798901E+03  0.20786059496E+03  0.00000000000E+00 0. -1.
         -5    1    5    5    0  502  0.78162702241E+02  0.35487407268E+02 -0.55306863171E+02  0.10222378984E+03  0.47000000000E+01 0.  1.
         13    1    6    6    0    0  0.14803189306E+02 -0.16573404221E+02 -0.52696607653E+02  0.57190424017E+02  0.00000000000E+00 0. -1.
        -14    1    6    6    0    0 -0.61947896287E+02  0.17716342112E+02 -0.50876686181E+02  0.82096576232E+02  0.00000000000E+00 0.  1.
</event>
<event>
12    1  0.8271773E-002  0.1763891E+03  0.7818608E-02  0.1171551E+00
         21   -1    0    0  503  502  0.00000000000E+00  0.00000000000E+00  0.53710539134E+03  0.53710539134E+03  0.00000000000E+00 0.  1.
         21   -1    0    0  501  503 -0.00000000000E+00 -0.00000000000E+00 -0.57765710387E+02  0.57765710387E+02  0.00000000000E+00 0.  1.
          6    2    1    2  501    0 -0.10893450787E+02 -0.31145123279E+02  0.25324925209E+03  0.30862323537E+03  0.17327559479E+03 0.  0.
         24    2    3    3    0    0  0.40988742297E+02 -0.23363720517E+02  0.68470628162E+02  0.11648385354E+03  0.81574020267E+02 0.  0.
         -6    2    1    2    0  502  0.10893450787E+02  0.31145123279E+02  0.22609042886E+03  0.28624786636E+03  0.17243048744E+03 0.  0.
        -24    2    5    5    0    0  0.70731394278E+02  0.22988962426E+02  0.10767002364E+03  0.15323439030E+03  0.79727798478E+02 0.  0.
          5    1    3    3  501    0 -0.51882193084E+02 -0.77814027624E+01  0.18477862393E+03  0.19213938183E+03  0.47000000000E+01 0. -1.
        -13    1    4    4    0    0 -0.58956087322E+01 -0.28239095482E+02 -0.49149980522E+01  0.29263662140E+02  0.00000000000E+00 0.  1.
         14    1    4    4    0    0  0.46884351029E+02  0.48753749655E+01  0.73385626214E+02  0.87220191397E+02  0.00000000000E+00 0. -1.
         -5    1    5    5    0  502 -0.59837943491E+02  0.81561608529E+01  0.11842040522E+03  0.13301347606E+03  0.47000000000E+01 0.  1.
         11    1    6    6    0    0  0.36569612069E+02  0.24305591073E+02  0.40221807262E+01  0.44093947681E+02  0.00000000000E+00 0. -1.
        -12    1    6    6    0    0  0.34161782208E+02 -0.13166286461E+01  0.10364784291E+03  0.10914044262E+03  0.00000000000E+00 0.  1.
</event>
<event>
12    1  0.8271773E-002  0.1919301E+03  0.7818608E-02  0.1157074E+00
         21   -1    0    0  503  502  0.00000000000E+00  0.00000000000E+00  0.42187120899E+02  0.42187120899E+02  0.00000000000E+00 0. -1.
         21   -1    0    0  501  503 -0.00000000000E+00 -0.00000000000E+00 -0.13772702513E+04  0.13772702513E+04  0.00000000000E+00 0. -1.
          6    2    1    2  501    0 -0.80629699455E+02 -0.90631768654E+01 -0.11015435622E+04  0.11181392477E+04  0.17393639120E+03 0.  0.
         24    2    3    3    0    0  0.87549849877E+01  0.39378152594E+02 -0.53313560574E+03  0.54069151916E+03  0.80538538111E+02 0.  0.
         -6    2    1    2    0  502  0.80629699455E+02  0.90631768654E+01 -0.23353956815E+03  0.30131812446E+03  0.17224573327E+03 0.  0.
        -24    2    5    5    0    0  0.99989381314E+02  0.28483799713E+02 -0.23862203966E+03  0.27303598540E+03  0.82455856623E+02 0.  0.
          5    1    3    3  501    0 -0.89384684443E+02 -0.48441329459E+02 -0.56840795649E+03  0.57744772856E+03  0.47000000000E+01 0. -1.
        -13    1    4    4    0    0  0.16142663558E+02 -0.19123645457E+02 -0.82438612841E+02  0.86153492613E+02  0.00000000000E+00 0.  1.
         14    1    4    4    0    0 -0.73876785707E+01  0.58501798050E+02 -0.45069699290E+03  0.45453802655E+03  0.00000000000E+00 0. -1.
         -5    1    5    5    0  502 -0.19359681859E+02 -0.19420622848E+02  0.50824715039E+01  0.28282139065E+02  0.47000000000E+01 0.  1.
         11    1    6    6    0    0  0.33482492209E+02 -0.29350733062E+02 -0.77200486612E+02  0.89120468743E+02  0.00000000000E+00 0. -1.
        -12    1    6    6    0    0  0.66506889105E+02  0.57834532775E+02 -0.16142155304E+03  0.18391551666E+03  0.00000000000E+00 0.  1.
</event>
<event>
12    1  0.8271773E-002  0.2354956E+03  0.7818608E-02  0.1122838E+00
         21   -1    0    0  501  502  0.00000000000E+00  0.00000000000E+00  0.52994075829E+02  0.52994075829E+02  0.00000000000E+00 0. -1.
         21   -1    0    0  502  503 -0.00000000000E+00 -0.00000000000E+00 -0.10681774250E+04  0.10681774250E+04  0.00000000000E+00 0.  1.
         -6    2    1    2    0  503 -0.13530217591E+02 -0.16185557187E+03 -0.42740498520E+03  0.48798895443E+03  0.17052244821E+03 0.  0.
        -24    2    3    3    0    0  0.37468372924E+02 -0.15396333884E+03 -0.28557818105E+03  0.33699201423E+03  0.83067030068E+02 0.  0.
          6    2    1    2  501    0  0.13530217591E+02  0.16185557187E+03 -0.58777836395E+03  0.63318254638E+03  0.17045949363E+03 0.  0.
         24    2    5    5    0    0 -0.10785436475E+02  0.98190200190E+02 -0.18326101668E+03  0.22293761365E+03  0.79742951355E+02 0.  0.
          5    1    5    5  501    0  0.24315654066E+02  0.63665371684E+02 -0.40451734727E+03  0.41024493273E+03  0.47000000000E+01 0. -1.
        -13    1    6    6    0    0 -0.31157280413E+02  0.43913268275E+02 -0.14175699897E+03  0.15163837908E+03  0.00000000000E+00 0.  1.
         14    1    6    6    0    0  0.20371843938E+02  0.54276931916E+02 -0.41504017708E+02  0.71299234565E+02  0.00000000000E+00 0. -1.
         -5    1    3    3    0  503 -0.50998590515E+02 -0.78922330317E+01 -0.14182680414E+03  0.15099694020E+03  0.47000000000E+01 0.  1.
         11    1    4    4    0    0  0.30205495500E+02 -0.66430045278E+02 -0.58532269586E+02  0.93548647542E+02  0.00000000000E+00 0. -1.
        -12    1    4    4    0    0  0.72628774243E+01 -0.87533293565E+02 -0.22704591146E+03  0.24344336669E+03  0.00000000000E+00 0.  1.
</event>
<event>
12    1  0.8271773E-002  0.2485257E+03  0.7818608E-02  0.1114319E+00
         21   -1    0    0  503  502  0.00000000000E+00  0.00000000000E+00  0.15662435592E+03  0.15662435592E+03  0.00000000000E+00 0.  1.
         21   -1    0    0  501  503 -0.00000000000E+00 -0.00000000000E+00 -0.39605131974E+03  0.39605131974E+03  0.00000000000E+00 0. -1.
          6    2    1    2  501    0  0.11486662766E+03 -0.13894022548E+03 -0.14149760365E+03  0.28555176605E+03  0.17035113985E+03 0.  0.
         24    2    3    3    0    0 -0.56617725527E+01 -0.31702187205E+02 -0.58801733650E+02  0.10420185834E+03  0.79770289326E+02 0.  0.
         -6    2    1    2    0  502 -0.11486662766E+03  0.13894022548E+03 -0.97929360178E+02  0.26712390961E+03  0.17107394628E+03 0.  0.
        -24    2    5    5    0    0 -0.92021466745E+02  0.14288484578E+03 -0.12904094900E+03  0.22804089072E+03  0.80417981960E+02 0.  0.
          5    1    3    3  501    0  0.12052840021E+03 -0.10723803827E+03 -0.82695869998E+02  0.18134990771E+03  0.47000000000E+01 0. -1.
        -13    1    4    4    0    0 -0.13071097701E+02  0.18436230013E+02  0.45682687252E+01  0.23056826567E+02  0.00000000000E+00 0.  1.
         14    1    4    4    0    0  0.74093251481E+01 -0.50138417219E+02 -0.63370002375E+02  0.81145031773E+02  0.00000000000E+00 0. -1.
         -5    1    5    5    0  502 -0.22845160917E+02 -0.39446203047E+01  0.31111588826E+02  0.39083018895E+02  0.47000000000E+01 0.  1.
         11    1    6    6    0    0 -0.13926752499E+02  0.13814402488E+01  0.80167838398E+01  0.16128596823E+02  0.00000000000E+00 0. -1.
        -12    1    6    6    0    0 -0.78094714246E+02  0.14150340554E+03 -0.13705773284E+03  0.21191229389E+03  0.00000000000E+00 0.  1.
</event>
<event>
12    1  0.8271773E-002  0.1737896E+03  0.7818608E-02  0.1174216E+00
         21   -1    0    0  503  502  0.00000000000E+00  0.00000000000E+00  0.48822623511E+03  0.48822623511E+03  0.00000000000E+00 0. -1.
         21   -1    0    0  501  503 -0.00000000000E+00 -0.00000000000E+00 -0.16198014332E+03  0.16198014332E+03  0.00000000000E+00 0.  1.
          6    2    1    2  501    0  0.18474529083E+02 -0.15419007308E+02 -0.92752097648E+02  0.19699181923E+03  0.17211557517E+03 0.  0.
         24    2    3    3    0    0  0.41774368919E+02 -0.49860089495E+02 -0.11053190944E+03  0.15152444207E+03  0.80692175057E+02 0.  0.
         -6    2    1    2    0  502 -0.18474529083E+02  0.15419007308E+02  0.41899818944E+03  0.45321455919E+03  0.17106986847E+03 0.  0.
        -24    2    5    5    0    0 -0.50505275776E+01  0.48901794339E+02  0.40237913413E+03  0.41321976149E+03  0.80154291107E+02 0.  0.
          5    1    3    3  501    0 -0.23299839836E+02  0.34441082187E+02  0.17779811797E+02  0.45467377163E+02  0.47000000000E+01 0. -1.
        -11    1    4    4    0    0  0.50914009534E+02 -0.56259400073E+02 -0.52112826647E+02  0.92049460425E+02  0.00000000000E+00 0.  1.
         12    1    4    4    0    0 -0.91396406153E+01  0.63993105784E+01 -0.58419082798E+02  0.59474981643E+02  0.00000000000E+00 0. -1.
         -5    1    5    5    0  502 -0.13424001505E+02 -0.33482787031E+02  0.16619055306E+02  0.39994797700E+02  0.47000000000E+01 0.  1.
         11    1    6    6    0    0  0.23160374129E+02 -0.12100658148E+02  0.91482109717E+02  0.95140975693E+02  0.00000000000E+00 0. -1.
        -12    1    6    6    0    0 -0.28210901707E+02  0.61002452487E+02  0.31089702442E+03  0.31807878580E+03  0.00000000000E+00 0.  1.
</event>
<event>
12    1  0.8271773E-002  0.3139036E+03  0.7818608E-02  0.1078496E+00
         21   -1    0    0  503  502  0.00000000000E+00  0.00000000000E+00  0.90946416605E+02  0.90946416605E+02  0.00000000000E+00 0. -1.
         21   -1    0    0  501  503 -0.00000000000E+00 -0.00000000000E+00 -0.14696634029E+04  0.14696634029E+04  0.00000000000E+00 0.  1.
          6    2    1    2  501    0 -0.14347111288E+03  0.21913991899E+03 -0.10894224165E+04  0.11337295146E+04  0.17290212966E+03 0.  0.
         24    2    3    3    0    0 -0.21722435812E+02  0.10406085136E+03 -0.29696295154E+03  0.32374184449E+03  0.72946982677E+02 0.  0.
         -6    2    1    2    0  502  0.14347111288E+03 -0.21913991899E+03 -0.28929456977E+03  0.42688030485E+03  0.17300052672E+03 0.  0.
        -24    2    5    5    0    0  0.32840998131E+02 -0.16801444189E+03 -0.15472369619E+03  0.24526464827E+03  0.83114028219E+02 0.  0.
          5    1    3    3  501    0 -0.12174867707E+03  0.11507906763E+03 -0.79245946494E+03  0.80998767012E+03  0.47000000000E+01 0. -1.
        -13    1    4    4    0    0 -0.11230265249E+01  0.95286903517E+02 -0.27964581317E+03  0.29543634847E+03  0.00000000000E+00 0.  1.
         14    1    4    4    0    0 -0.20599409287E+02  0.87739478474E+01 -0.17317138366E+02  0.28305496021E+02  0.00000000000E+00 0. -1.
         -5    1    5    5    0  502  0.11063011475E+03 -0.51125477098E+02 -0.13457087358E+03  0.18161565658E+03  0.47000000000E+01 0.  1.
         13    1    6    6    0    0  0.48310019652E+02 -0.16044493893E+03 -0.15468391953E+03  0.22804287182E+03  0.00000000000E+00 0. -1.
        -14    1    6    6    0    0 -0.15469021521E+02 -0.75695029665E+01 -0.39776655633E-01  0.17221776452E+02  0.00000000000E+00 0.  1.
</event>
<event>
12    1  0.8271773E-002  0.1785393E+03  0.7818608E-02  0.1169707E+00
         21   -1    0    0  501  502  0.00000000000E+00  0.00000000000E+00  0.12449350389E+04  0.12449350389E+04  0.00000000000E+00 0. -1.
         21   -1    0    0  502  503 -0.00000000000E+00 -0.00000000000E+00 -0.25929960731E+02  0.25929960731E+02  0.00000000000E+00 0. -1.
         -6    2    1    2    0  503 -0.42884213175E+02 -0.13986864848E+02  0.51565972180E+03  0.54569333778E+03  0.17274716227E+03 0.  0.
        -24    2    3    3    0    0 -0.69285316075E+02 -0.25385733223E+02  0.50115297845E+03  0.51314355994E+03  0.81958006446E+02 0.  0.
          6    2    1    2  501    0  0.42884213175E+02  0.13986864848E+02  0.70334535639E+03  0.72517166188E+03  0.17071778089E+03 0.  0.
         24    2    5    5    0    0 -0.15843503915E+02  0.41064721422E+02  0.56306346247E+03  0.57062958078E+03  0.81488206026E+02 0.  0.
          5    1    5    5  501    0  0.58727717091E+02 -0.27077856574E+02  0.14028189391E+03  0.15454208110E+03  0.47000000000E+01 0. -1.
        -11    1    6    6    0    0 -0.15648523256E+02 -0.22690309469E+01  0.43774151357E+03  0.43802700543E+03  0.00000000000E+00 0.  1.
         12    1    6    6    0    0 -0.19498065961E+00  0.43333752369E+02  0.12532194890E+03  0.13260257535E+03  0.00000000000E+00 0. -1.
         -5    1    3    3    0  503  0.26401102900E+02  0.11398868375E+02  0.14506743352E+02  0.32549777837E+02  0.47000000000E+01 0.  1.
         13    1    4    4    0    0 -0.46694981138E+02 -0.55069828527E+00  0.97599927384E+02  0.10819644337E+03  0.00000000000E+00 0. -1.
        -14    1    4    4    0    0 -0.22590334937E+02 -0.24835034938E+02  0.40355305107E+03  0.40494711657E+03  0.00000000000E+00 0.  1.
</event>
<event>
12    1  0.8271773E-002  0.1951840E+03  0.7818608E-02  0.1155219E+00
         21   -1    0    0  503  502  0.00000000000E+00  0.00000000000E+00  0.15359605269E+03  0.15359605269E+03  0.00000000000E+00 0. -1.
         21   -1    0    0  501  503 -0.00000000000E+00 -0.00000000000E+00 -0.70112214491E+03  0.70112214491E+03  0.00000000000E+00 0.  1.
          6    2    1    2  501    0 -0.68905933749E+02  0.43893183203E+02 -0.61871115168E+03  0.64695847490E+03  0.17052020349E+03 0.  0.
         24    2    3    3    0    0  0.21325256935E+02 -0.17075646881E+01 -0.18208658616E+03  0.19875740708E+03  0.76754802129E+02 0.  0.
         -6    2    1    2    0  502  0.68905933749E+02 -0.43893183203E+02  0.71185059459E+02  0.20775972270E+03  0.17726294156E+03 0.  0.
        -24    2    5    5    0    0  0.48131297456E+02 -0.42815980149E+02 -0.28833904975E+02  0.10549228347E+03  0.78405343220E+02 0.  0.
          5    1    3    3  501    0 -0.90231190684E+02  0.45600747891E+02 -0.43662456552E+03  0.44820106783E+03  0.47000000000E+01 0. -1.
        -13    1    4    4    0    0  0.34698471242E+01  0.35292048121E+02 -0.11240962931E+03  0.11787066327E+03  0.00000000000E+00 0.  1.
         14    1    4    4    0    0  0.17855409810E+02 -0.36999612809E+02 -0.69676956851E+02  0.80886743806E+02  0.00000000000E+00 0. -1.
         -5    1    5    5    0  502  0.20774636293E+02 -0.10772030543E+01  0.10001896443E+03  0.10226743923E+03  0.47000000000E+01 0.  1.
         11    1    6    6    0    0  0.61450792887E+02 -0.94439275591E+01 -0.49971273201E+01  0.62372742410E+02  0.00000000000E+00 0. -1.
        -12    1    6    6    0    0 -0.13319495431E+02 -0.33372052590E+02 -0.23836777655E+02  0.43119541064E+02  0.00000000000E+00 0.  1.
</event>
<event>
12    1  0.8271773E-002  0.2025917E+03  0.7818608E-02  0.1148007E+00
         21   -1    0    0  501  502  0.00000000000E+00  0.00000000000E+00  0.25413652351E+02  0.25413652351E+02  0.00000000000E+00 0.  1.
         21   -1    0    0  502  503 -0.00000000000E+00 -0.00000000000E+00 -0.18177675643E+04  0.18177675643E+04  0.00000000000E+00 0. -1.
         -6    2    1    2    0  503 -0.53915341701E+02  0.89612831280E+02 -0.12122499197E+04  0.12287188187E+04  0.17106356681E+03 0.  0.
        -24    2    3    3    0    0 -0.22424270298E+02  0.42602128866E+02 -0.30022928586E+03  0.31493250869E+03  0.82018727491E+02 0.  0.
          6    2    1    2  501    0  0.53915341701E+02 -0.89612831280E+02 -0.58010399223E+03  0.61446239798E+03  0.17351101733E+03 0.  0.
         24    2    5    5    0    0  0.14514951134E+02 -0.84006442027E+02 -0.19319673763E+03  0.22548536005E+03  0.79062646411E+02 0.  0.
          5    1    5    5  501    0  0.39400390567E+02 -0.56063892533E+01 -0.38690725460E+03  0.38897703793E+03  0.47000000000E+01 0. -1.
        -13    1    6    6    0    0  0.19714558930E+02 -0.12058954636E+02 -0.45993308444E+01  0.23563447645E+02  0.00000000000E+00 0.  1.
         14    1    6    6    0    0 -0.51996077958E+01 -0.71947487391E+02 -0.18859740678E+03  0.20192191240E+03  0.00000000000E+00 0. -1.
         -5    1    3    3    0  503 -0.31491071403E+02  0.47010702415E+02 -0.91202063387E+03  0.91378630999E+03  0.47000000000E+01 0.  1.
         13    1    4    4    0    0 -0.21668705239E+02  0.66963511108E+02 -0.23426918989E+03  0.24461336418E+03  0.00000000000E+00 0. -1.
        -14    1    4    4    0    0 -0.75556505910E+00 -0.24361382243E+02 -0.65960095969E+02  0.70319144503E+02  0.00000000000E+00 0.  1.
</event>
<event>
12    1  0.8271773E-002  0.1881184E+03  0.7818608E-02  0.1160900E+00
         21   -1    0    0  503  502  0.00000000000E+00  0.00000000000E+00  0.10167927608E+03  0.10167927608E+03  0.00000000000E+00 0. -1.
         21   -1    0    0  501  503 -0.00000000000E+00 -0.00000000000E+00 -0.35706158081E+03  0.35706158081E+03  0.00000000000E+00 0. -1.
          6    2    1    2  501    0  0.50565574884E+02  0.46333093525E+02 -0.17344265114E+03  0.25355157112E+03  0.17176266493E+03 0.  0.
         24    2    3    3    0    0  0.29286299985E+01 -0.24866831380E+02 -0.13761675219E+03  0.16057688177E+03  0.78864620071E+02 0.  0.
         -6    2    1    2    0  502 -0.50565574884E+02 -0.46333093525E+02 -0.81939653598E+02  0.20518928577E+03  0.17517106852E+03 0.  0.
        -24    2    5    5    0    0 -0.69886495142E+02  0.88719120818E+01 -0.98367443197E+02  0.14425610208E+03  0.78554669364E+02 0.  0.
          5    1    3    3  501    0  0.47636944886E+02  0.71199924905E+02 -0.35825898951E+02  0.92974689353E+02  0.47000000000E+01 0. -1.
        -11    1    4    4    0    0 -0.28061261825E+02  0.14608104959E+02 -0.65202101308E+02  0.72471685235E+02  0.00000000000E+00 0.  1.
         12    1    4    4    0    0  0.30989891823E+02 -0.39474936339E+02 -0.72414650878E+02  0.88105196532E+02  0.00000000000E+00 0. -1.
         -5    1    5    5    0  502  0.19320920258E+02 -0.55205005607E+02  0.16427789599E+02  0.60933183692E+02  0.47000000000E+01 0.  1.
         13    1    6    6    0    0 -0.26715390184E+02 -0.26769092617E+02 -0.91194552713E+01  0.38903224245E+02  0.00000000000E+00 0. -1.
        -14    1    6    6    0    0 -0.43171104958E+02  0.35641004699E+02 -0.89247987926E+02  0.10535287784E+03  0.00000000000E+00 0.  1.
</event>
<event>
12    1  0.8271773E-002  0.1850543E+03  0.7818608E-02  0.1163168E+00
         21   -1    0    0  503  502  0.00000000000E+00  0.00000000000E+00  0.86989385924E+02  0.86989385924E+02  0.00000000000E+00 0.  1.
         21   -1    0    0  501  503 -0.00000000000E+00 -0.00000000000E+00 -0.57094962714E+03  0.57094962714E+03  0.00000000000E+00 0.  1.
          6    2    1    2  501    0  0.66425576453E+02  0.70625131978E+01 -0.42575601158E+03  0.46394715216E+03  0.17180379012E+03 0.  0.
         24    2    3    3    0    0  0.97650847226E+02 -0.30620598637E+02 -0.23540062745E+03  0.26734527852E+03  0.74744454758E+02 0.  0.
         -6    2    1    2    0  502 -0.66425576453E+02 -0.70625131978E+01 -0.58204229634E+02  0.19399186090E+03  0.17257715217E+03 0.  0.
        -24    2    5    5    0    0 -0.46914972704E+02 -0.69448266215E+02 -0.47130100499E+02  0.12752854640E+03  0.83774742200E+02 0.  0.
          5    1    3    3  501    0 -0.31225270773E+02  0.37683111834E+02 -0.19035538413E+03  0.19660187364E+03  0.47000000000E+01 0. -1.
        -11    1    4    4    0    0  0.49340546259E+02 -0.51228543707E+02 -0.16353496816E+03  0.17833266388E+03  0.00000000000E+00 0.  1.
         12    1    4    4    0    0  0.48310300967E+02  0.20607945070E+02 -0.71865659295E+02  0.89012614642E+02  0.00000000000E+00 0. -1.
         -5    1    5    5    0  502 -0.19510603748E+02  0.62385753018E+02 -0.11074129135E+02  0.66463314500E+02  0.47000000000E+01 0.  1.
         11    1    6    6    0    0 -0.17692413104E+00 -0.22910098939E+02 -0.56445125175E+02  0.60917617251E+02  0.00000000000E+00 0. -1.
        -12    1    6    6    0    0 -0.46738048573E+02 -0.46538167277E+02  0.93150246754E+01  0.66610929153E+02  0.00000000000E+00 0.  1.
</event>
<event>
12    1  0.8271773E-002  0.1829322E+03  0.7818608E-02  0.1164998E+00
         21   -1    0    0  501  502  0.00000000000E+00  0.00000000000E+00  0.28873437419E+02  0.28873437419E+02  0.00000000000E+00 0. -1.
         21   -1    0    0  502  503 -0.00000000000E+00 -0.00000000000E+00 -0.12041006949E+04  0.12041006949E+04  0.00000000000E+00 0. -1.
         -6    2    1    2    0  503  0.38177740907E+02 -0.48806811522E+02 -0.46816376460E+03  0.50262970611E+03  0.17210364967E+03 0.  0.
        -24    2    3    3    0    0  0.26167850330E+02 -0.98469406707E+02 -0.35685935005E+03  0.38006799296E+03  0.81988432758E+02 0.  0.
          6    2    1    2  501    0 -0.38177740907E+02  0.48806811522E+02 -0.70706349286E+03  0.73034442619E+03  0.17211784677E+03 0.  0.
         24    2    5    5    0    0 -0.46114983939E+02 -0.35022390213E+02 -0.34351744311E+03  0.35714453983E+03  0.78707236315E+02 0.  0.
          5    1    5    5  501    0  0.79372430318E+01  0.83829201735E+02 -0.36354604975E+03  0.37319988636E+03  0.47000000000E+01 0. -1.
        -13    1    6    6    0    0  0.10032083620E+02  0.33418589962E+01 -0.47022070800E+01  0.11572444631E+02  0.00000000000E+00 0.  1.
         14    1    6    6    0    0 -0.56147067559E+02 -0.38364249210E+02 -0.33881523603E+03  0.34557209520E+03  0.00000000000E+00 0. -1.
         -5    1    3    3    0  503  0.12009890577E+02  0.49662595185E+02 -0.11130441455E+03  0.12256171315E+03  0.47000000000E+01 0.  1.
         11    1    4    4    0    0  0.40013766347E+02 -0.13154046790E+02 -0.86149491748E+02  0.95895074809E+02  0.00000000000E+00 0. -1.
        -12    1    4    4    0    0 -0.13845916017E+02 -0.85315359917E+02 -0.27070985830E+03  0.28417291815E+03  0.00000000000E+00 0.  1.
</event>
<event>
12    1  0.8271773E-002  0.2325584E+03  0.7818608E-02  0.1124965E+00
         21   -1    0    0  503  502  0.00000000000E+00  0.00000000000E+00  0.43168484565E+03  0.43168484565E+03  0.00000000000E+00 0.  1.
         21   -1    0    0  501  503 -0.00000000000E+00 -0.00000000000E+00 -0.14953922626E+03  0.14953922626E+03  0.00000000000E+00 0.  1.
          6    2    1    2  501    0  0.13184808880E+03 -0.84374532535E+02  0.25911670591E+03  0.34817366057E+03  0.17198968101E+03 0.  0.
         24    2    3    3    0    0  0.13184808145E+02 -0.63392121313E+02  0.16601143114E+03  0.19581908090E+03  0.81196779280E+02 0.  0.
         -6    2    1    2    0  502 -0.13184808880E+03  0.84374532535E+02  0.23028913480E+02  0.23305041134E+03  0.17111161010E+03 0.  0.
        -24    2    5    5    0    0 -0.26431295479E+02  0.85500650219E+02  0.24400957042E+02  0.12751396759E+03  0.87495317923E+02 0.  0.
          5    1    3    3  501    0  0.11866328066E+03 -0.20982411222E+02  0.93105274768E+02  0.15235457967E+03  0.47000000000E+01 0. -1.
        -13    1    4    4    0    0  0.12854597849E+02 -0.37463127022E+02  0.16519326954E+03  0.16987508020E+03  0.00000000000E+00 0.  1.
         14    1    4    4    0    0  0.33021029631E+00 -0.25928994291E+02  0.81816159703E+00  0.25944000697E+02  0.00000000000E+00 0. -1.
         -5    1    5    5    0  502 -0.10541679332E+03 -0.11261176847E+01 -0.13720435616E+01  0.10553644375E+03  0.47000000000E+01 0.  1.
         11    1    6    6    0    0 -0.56345608394E+02  0.66333772372E+02  0.28888884884E+02  0.91703678292E+02  0.00000000000E+00 0. -1.
        -12    1    6    6    0    0  0.29914312916E+02  0.19166877847E+02 -0.44879278418E+01  0.35810289303E+02  0.00000000000E+00 0.  1.
</event>
<event>
12    1  0.8271773E-002  0.2179430E+03  0.7818608E-02  0.1135466E+00
         21   -1    0    0  501  502  0.00000000000E+00  0.00000000000E+00  0.94815889299E+03  0.94815889299E+03  0.00000000000E+00 0. -1.
         21   -1    0    0  502  503 -0.00000000000E+00 -0.00000000000E+00 -0.58012161553E+02  0.58012161553E+02  0.00000000000E+00 0.  1.
         -6    2    1    2    0  503  0.82116143396E+02 -0.10852739810E+03  0.25884775668E+03  0.33838041396E+03  0.17022892314E+03 0.  0.
        -24    2    3    3    0    0 -0.16304513494E+01 -0.10028591683E+02  0.57830333452E+02  0.99328952064E+02  0.80116554021E+02 0.  0.
          6    2    1    2  501    0 -0.82116143396E+02  0.10852739810E+03  0.63129897476E+03  0.66779064058E+03  0.16995495570E+03 0.  0.
         24    2    5    5    0    0 -0.41089144692E+02  0.11331578828E+03  0.59598287080E+03  0.61324285875E+03  0.79639411366E+02 0.  0.
          5    1    5    5  501    0 -0.41026998704E+02 -0.47883901759E+01  0.35316103965E+02  0.54547781829E+02  0.47000000000E+01 0. -1.
        -11    1    6    6    0    0  0.40985142135E+00  0.83355814840E+02  0.25089314672E+03  0.26437800762E+03  0.00000000000E+00 0.  1.
         12    1    6    6    0    0 -0.41498996113E+02  0.29959973435E+02  0.34508972408E+03  0.34886485113E+03  0.00000000000E+00 0. -1.
         -5    1    3    3    0  503  0.83746594745E+02 -0.98498806416E+02  0.20101742322E+03  0.23905146190E+03  0.47000000000E+01 0.  1.
         11    1    4    4    0    0  0.25195600189E+02  0.25702751366E+02  0.28074738916E+02  0.45646912950E+02  0.00000000000E+00 0. -1.
        -12    1    4    4    0    0 -0.26826051539E+02 -0.35731343048E+02  0.29755594537E+02  0.53682039114E+02  0.00000000000E+00 0.  1.
</event>
<event>
12    1  0.8271773E-002  0.2345415E+03  0.7818608E-02  0.1123519E+00
         21   -1    0    0  503  502  0.00000000000E+00  0.00000000000E+00  0.61240519069E+03  0.61240519069E+03  0.00000000000E+00 0.  1.
         21   -1    0    0  501  503 -0.00000000000E+00 -0.00000000000E+00 -0.10154632031E+03  0.10154632031E+03  0.00000000000E+00 0. -1.
          6    2    1    2  501    0 -0.15890368574E+03  0.21200582997E+01  0.13383964312E+03  0.27004218405E+03  0.17249595678E+03 0.  0.
         24    2    3    3    0    0 -0.18654415264E+03  0.14457483097E+02  0.11152991645E+03  0.23214731150E+03  0.80285193356E+02 0.  0.
         -6    2    1    2    0  502  0.15890368574E+03 -0.21200582997E+01  0.37701922726E+03  0.44390932695E+03  0.17221241780E+03 0.  0.
        -24    2    5    5    0    0  0.11649499940E+03  0.25808270129E+02  0.13763530793E+03  0.19915385911E+03  0.80508570455E+02 0.  0.
          5    1    3    3  501    0  0.27640466902E+02 -0.12337424797E+02  0.22309726672E+02  0.37894872547E+02  0.47000000000E+01 0. -1.
        -11    1    4    4    0    0 -0.15716367454E+03 -0.19240361214E+02  0.93919941990E+02  0.18409662571E+03  0.00000000000E+00 0.  1.
         12    1    4    4    0    0 -0.29380478102E+02  0.33697844311E+02  0.17609974462E+02  0.48050685793E+02  0.00000000000E+00 0. -1.
         -5    1    5    5    0  502  0.42408686335E+02 -0.27928328428E+02  0.23938391933E+03  0.24475546784E+03  0.47000000000E+01 0.  1.
         11    1    6    6    0    0  0.12347881739E+03  0.27587270621E+02  0.14241996471E+03  0.19050333906E+03  0.00000000000E+00 0. -1.
        -12    1    6    6    0    0 -0.69838179922E+01 -0.17790004923E+01 -0.47846567855E+01  0.86505200453E+01  0.00000000000E+00 0.  1.
</event>
<event>
12    1  0.8271773E-002  0.1901504E+03  0.7818608E-02  0.1158407E+00
         21   -1    0    0  503  502  0.00000000000E+00  0.00000000000E+00  0.48168707094E+02  0.48168707094E+02  0.00000000000E+00 0.  1.
         21   -1    0    0  501  503 -0.00000000000E+00 -0.00000000000E+00 -0.78849587385E+03  0.78849587385E+03  0.00000000000E+00 0. -1.
          6    2    1    2  501    0 -0.75040416433E+02  0.28880136757E+02 -0.46319871697E+03  0.50057330689E+03  0.17191700838E+03 0.  0.
         24    2    3    3    0    0 -0.14186202148E+02 -0.40149512814E+02 -0.16135959806E+03  0.18498295276E+03  0.79803140379E+02 0.  0.
         -6    2    1    2    0  502  0.75040416433E+02 -0.28880136757E+02 -0.27712844978E+03  0.33609127405E+03  0.17231378476E+03 0.  0.
        -24    2    5    5    0    0  0.44779979318E+02 -0.65015551449E+02 -0.91721333680E+02  0.14472944152E+03  0.79382238016E+02 0.  0.
          5    1    3    3  501    0 -0.60854214285E+02  0.69029649570E+02 -0.30183911891E+03  0.31559035413E+03  0.47000000000E+01 0. -1.
        -11    1    4    4    0    0  0.24952034066E+02 -0.30755685249E+02 -0.12361403937E+03  0.12980349344E+03  0.00000000000E+00 0.  1.
         12    1    4    4    0    0 -0.39138236213E+02 -0.93938275646E+01 -0.37745558695E+02  0.55179459325E+02  0.00000000000E+00 0. -1.
         -5    1    5    5    0  502  0.30260437114E+02  0.36135414692E+02 -0.18540711610E+03  0.19136183254E+03  0.47000000000E+01 0.  1.
         13    1    6    6    0    0 -0.61722009774E+01 -0.60459681787E+02 -0.51326988537E+02  0.79548280554E+02  0.00000000000E+00 0. -1.
        -14    1    6    6    0    0  0.50952180296E+02 -0.45558696610E+01 -0.40394345143E+02  0.65181160965E+02  0.00000000000E+00 0.  1.
</event>
<event>
12    1  0.8271773E-002  0.1730927E+03  0.7818608E-02  0.1174676E+00
         21   -1    0    0  503  502  0.00000000000E+00  0.00000000000E+00  0.13773807198E+03  0.13773807198E+03  0.00000000000E+00 0. -1.
         21   -1    0    0  501  503 -0.00000000000E+00 -0.00000000000E+00 -0.22043104097E+03  0.22043104097E+03  0.00000000000E+00 0. -1.
          6    2    1    2  501    0  0.10495889657E+02 -0.14699479690E+02 -0.20509745089E+02  0.17430352872E+03  0.17214770425E+03 0.  0.
         24    2    3    3    0    0  0.64242189421E+02  0.18238990315E+02  0.13512320880E+02  0.10251774658E+03  0.76600168921E+02 0.  0.
         -6    2    1    2    0  502 -0.10495889657E+02  0.14699479690E+02 -0.62183223895E+02  0.18386558423E+03  0.17208591264E+03 0.  0.
        -24    2    5    5    0    0 -0.42364977607E+02  0.66135397711E+02 -0.44339938729E+02  0.12060607701E+03  0.80069429160E+02 0.  0.
          5    1    3    3  501    0 -0.53746299764E+02 -0.32938470005E+02 -0.34022065970E+02  0.71785782140E+02  0.47000000000E+01 0. -1.
        -13    1    4    4    0    0 -0.34119739674E+01 -0.78376228079E+01  0.27392630317E+02  0.28695401955E+02  0.00000000000E+00 0.  1.
         14    1    4    4    0    0  0.67654163389E+02  0.26076613123E+02 -0.13880309437E+02  0.73822344625E+02  0.00000000000E+00 0. -1.
         -5    1    5    5    0  502  0.31869087950E+02 -0.51435918021E+02 -0.17843285166E+02  0.63259507230E+02  0.47000000000E+01 0.  1.
         13    1    6    6    0    0 -0.29663008624E+02 -0.89199824977E+01  0.27478596373E+01  0.31096798886E+02  0.00000000000E+00 0. -1.
        -14    1    6    6    0    0 -0.12701968983E+02  0.75055380209E+02 -0.47087798366E+02  0.89509278119E+02  0.00000000000E+00 0.  1.
</event>
<event>
12    1  0.8271773E-002  0.2232324E+03  0.7818608E-02  0.1132437E+00
         21   -1    0    0  503  502  0.00000000000E+00  0.00000000000E+00  0.78377790888E+03  0.78377790888E+03  0.00000000000E+00 0. -1.
         21   -1    0    0  501  503 -0.00000000000E+00 -0.00000000000E+00 -0.94050646126E+02  0.94050646126E+02  0.00000000000E+00 0. -1.
          6    2    1    2  501    0 -0.84687055956E+01  0.13297076272E+03  0.86589234112E+02  0.23470478933E+03  0.17273013622E+03 0.  0.
         24    2    3    3    0    0 -0.54290189031E+02  0.13435462079E+03  0.88798861784E+02  0.18856916468E+03  0.81697633158E+02 0.  0.
         -6    2    1    2    0  502  0.84687055956E+01 -0.13297076272E+03  0.60313802864E+03  0.64312376567E+03  0.17910821775E+03 0.  0.
        -24    2    5    5    0    0 -0.39389520965E+02 -0.92481171513E+01  0.20664544184E+03  0.22500157747E+03  0.79286248486E+02 0.  0.
          5    1    3    3  501    0  0.45821483435E+02 -0.13838580678E+01 -0.22096276719E+01  0.46135624649E+02  0.47000000000E+01 0. -1.
        -13    1    4    4    0    0 -0.33547752742E+02  0.50457842825E+01  0.85862318586E+01  0.34994785763E+02  0.00000000000E+00 0.  1.
         14    1    4    4    0    0 -0.20742436289E+02  0.12930883651E+03  0.80212629925E+02  0.15357437892E+03  0.00000000000E+00 0. -1.
         -5    1    5    5    0  502  0.47858226561E+02 -0.12372264557E+03  0.39649258680E+03  0.41812218819E+03  0.47000000000E+01 0.  1.
         11    1    6    6    0    0  0.36480420917E+01 -0.76274370320E+01 -0.44520843262E+01  0.95554728626E+01  0.00000000000E+00 0. -1.
        -12    1    6    6    0    0 -0.43037563057E+02 -0.16206801193E+01  0.21109752617E+03  0.21544610461E+03  0.00000000000E+00 0.  1.
</event>
<event>
12    1  0.8271773E-002  0.2481169E+03  0.7818608E-02  0.1114677E+00
         21   -1    0    0  503  502  0.00000000000E+00  0.00000000000E+00  0.45238537652E+03  0.45238537652E+03  0.00000000000E+00 0. -1.
         21   -1    0    0  501  503 -0.00000000000E+00 -0.00000000000E+00 -0.42084775980E+03  0.42084775980E+03  0.00000000000E+00 0. -1.
          6    2    1    2  501    0  0.65885271133E+02  0.16693861408E+03 -0.34377712430E+03  0.42331853789E+03  0.16972478754E+03 0.  0.
         24    2    3    3    0    0 -0.23980308836E+02  0.45364220280E+02 -0.19479274408E+03  0.21101076309E+03  0.62835987300E+02 0.  0.
         -6    2    1    2    0  502 -0.65885271133E+02 -0.16693861408E+03  0.37531474101E+03  0.44991459844E+03  0.17132606702E+03 0.  0.
        -24    2    5    5    0    0 -0.19788301884E+02 -0.17917115959E+03  0.32483857767E+03  0.38031216450E+03  0.81384025500E+02 0.  0.
          5    1    3    3  501    0  0.89865579969E+02  0.12157439380E+03 -0.14898438022E+03  0.21230777480E+03  0.47000000000E+01 0. -1.
        -11    1    4    4    0    0 -0.31684405115E+02  0.24830175118E+01 -0.12293702747E+03  0.12697865816E+03  0.00000000000E+00 0.  1.
         12    1    4    4    0    0  0.77040962786E+01  0.42881202768E+02 -0.71855716606E+02  0.84032104932E+02  0.00000000000E+00 0. -1.
         -5    1    5    5    0  502 -0.46096969249E+02  0.12232545509E+02  0.50476163342E+02  0.69602433932E+02  0.47000000000E+01 0.  1.
         11    1    6    6    0    0 -0.25967808739E+02 -0.18583168771E+02  0.92113170923E+02  0.97491012456E+02  0.00000000000E+00 0. -1.
        -12    1    6    6    0    0  0.61795068549E+01 -0.16058799081E+03  0.23272540675E+03  0.28282115205E+03  0.00000000000E+00 0.  1.
</event>
<event>
12    1  0.8271773E-002  0.1989040E+03  0.7818608E-02  0.1150807E+00
         21   -1    0    0  503  502  0.00000000000E+00  0.00000000000E+00  0.10775469620E+04  0.10775469620E+04  0.00000000000E+00 0. -1.
         21   -1    0    0  501  503 -0.00000000000E+00 -0.00000000000E+00 -0.45226920268E+02  0.45226920268E+02  0.00000000000E+00 0. -1.
          6    2    1    2  501    0 -0.98451124506E+02  0.59991241377E+01  0.27019689957E+03  0.33512263322E+03  0.17196569818E+03 0.  0.
         24    2    3    3    0    0  0.14795340802E+02 -0.13620758652E+02  0.12656956119E+03  0.15111012268E+03  0.80062401788E+02 0.  0.
         -6    2    1    2    0  502  0.98451124506E+02 -0.59991241377E+01  0.76212314220E+03  0.78765124909E+03  0.17272577371E+03 0.  0.
        -24    2    5    5    0    0  0.23685325583E+02  0.57366282436E+02  0.35231759771E+03  0.36626333548E+03  0.78544613135E+02 0.  0.
          5    1    3    3  501    0 -0.11324646531E+03  0.19619882790E+02  0.14362733838E+03  0.18401251054E+03  0.47000000000E+01 0. -1.
        -11    1    4    4    0    0  0.14352451277E+02 -0.29364466868E+02  0.13078387392E+03  0.13480610687E+03  0.00000000000E+00 0.  1.
         12    1    4    4    0    0  0.44288952469E+00  0.15743708216E+02 -0.42143127335E+01  0.16304015804E+02  0.00000000000E+00 0. -1.
         -5    1    5    5    0  502  0.74765798923E+02 -0.63365406574E+02  0.40980554449E+03  0.42138791361E+03  0.47000000000E+01 0.  1.
         11    1    6    6    0    0  0.37141805439E+02  0.18684691699E+01  0.82887622883E+02  0.90848020977E+02  0.00000000000E+00 0. -1.
        -12    1    6    6    0    0 -0.13456479856E+02  0.55497813266E+02  0.26942997483E+03  0.27541531451E+03  0.00000000000E+00 0.  1.
</event>
<event>
12    1  0.8271773E-002  0.2141840E+03  0.7818608E-02  0.1138313E+00
         21   -1    0    0  501  502  0.00000000000E+00  0.00000000000E+00  0.75829200440E+03  0.75829200440E+03  0.00000000000E+00 0. -1.
         21   -1    0    0  502  503 -0.00000000000E+00 -0.00000000000E+00 -0.90786762645E+02  0.90786762645E+02  0.00000000000E+00 0.  1.
         -6    2    1    2    0  503 -0.47838854859E+02  0.11883896062E+03  0.88476570481E+02  0.23173887281E+03  0.17164948894E+03 0.  0.
        -24    2    3    3    0    0  0.10502119441E+02  0.58144837658E+00  0.23540034687E+02  0.84676463728E+02  0.80655673585E+02 0.  0.
          6    2    1    2  501    0  0.47838854859E+02 -0.11883896062E+03  0.57902867127E+03  0.61733989424E+03  0.17153159552E+03 0.  0.
         24    2    5    5    0    0  0.14875376759E+02 -0.39728776012E+02  0.11435064313E+03  0.14480124816E+03  0.78049211445E+02 0.  0.
          5    1    5    5  501    0  0.32963478100E+02 -0.79110184606E+02  0.46467802814E+03  0.47253864607E+03  0.47000000000E+01 0. -1.
        -13    1    6    6    0    0  0.35302429971E+02  0.28435964499E+01  0.76440772666E+02  0.84246895066E+02  0.00000000000E+00 0.  1.
         14    1    6    6    0    0 -0.20427053212E+02 -0.42572372462E+02  0.37909870468E+02  0.60554353096E+02  0.00000000000E+00 0. -1.
         -5    1    3    3    0  503 -0.58340974300E+02  0.11825751224E+03  0.64936535793E+02  0.14706240908E+03  0.47000000000E+01 0.  1.
         11    1    4    4    0    0  0.33234690787E+01 -0.25932085875E+01  0.53520115593E+02  0.53685872914E+02  0.00000000000E+00 0. -1.
        -12    1    4    4    0    0  0.71786503627E+01  0.31746569641E+01 -0.29980080906E+02  0.30990590814E+02  0.00000000000E+00 0.  1.
</event>
<event>
12    1  0.8271773E-002  0.1951908E+03  0.7818608E-02  0.1154010E+00
         21   -1    0    0  501  502  0.00000000000E+00  0.00000000000E+00  0.45260554154E+03  0.45260554154E+03  0.00000000000E+00 0. -1.
         21   -1    0    0  502  503 -0.00000000000E+00 -0.00000000000E+00 -0.10161618992E+03  0.10161618992E+03  0.00000000000E+00 0.  1.
         -6    2    1    2    0  503 -0.68447586164E+02  0.61080704428E+02  0.59480045583E+02  0.20339821102E+03  0.17151394089E+03 0.  0.
        -24    2    3    3    0    0 -0.67462061620E+02  0.84115628231E+02  0.92326442973E+02  0.16299332525E+03  0.80100457750E+02 0.  0.
          6    2    1    2  501    0  0.68447586164E+02 -0.61080704428E+02  0.29150930604E+03  0.35082352044E+03  0.17228912467E+03 0.  0.
         24    2    5    5    0    0  0.49179892700E+02 -0.81553936084E+02  0.85971859182E+02  0.14331899208E+03  0.63870702079E+02 0.  0.
          5    1    5    5  501    0  0.19267693465E+02  0.20473231656E+02  0.20553744686E+03  0.20750452835E+03  0.47000000000E+01 0. -1.
        -11    1    6    6    0    0  0.19929769237E+02 -0.24296535212E+01 -0.34662039013E+01  0.20374334039E+02  0.00000000000E+00 0.  1.
         12    1    6    6    0    0  0.29250123463E+02 -0.79124282562E+02  0.89438063083E+02  0.12294465804E+03  0.00000000000E+00 0. -1.
         -5    1    3    3    0  503 -0.98552454382E+00 -0.23034923803E+02 -0.32846397390E+02  0.40404885778E+02  0.47000000000E+01 0.  1.
         13    1    4    4    0    0 -0.14349433141E+02 -0.10297066830E+02 -0.39139433223E+01  0.18090184331E+02  0.00000000000E+00 0. -1.
        -14    1    4    4    0    0 -0.53112628479E+02  0.94412695061E+02  0.96240386295E+02  0.14490314091E+03  0.00000000000E+00 0.  1.
</event>
<event>
12    1  0.8271773E-002  0.1784873E+03  0.7818608E-02  0.1169888E+00
         21   -1    0    0  503  502  0.00000000000E+00  0.00000000000E+00  0.60183917757E+02  0.60183917757E+02  0.00000000000E+00 0. -1.
         21   -1    0    0  501  503 -0.00000000000E+00 -0.00000000000E+00 -0.58937998088E+03  0.58937998088E+03  0.00000000000E+00 0. -1.
          6    2    1    2  501    0 -0.31209995381E+02  0.21755732941E+02 -0.37606528292E+03  0.41627253190E+03  0.17438563035E+03 0.  0.
         24    2    3    3    0    0  0.29668136293E+02  0.94189304096E+01 -0.32438970444E+03  0.33533552539E+03  0.79071611081E+02 0.  0.
         -6    2    1    2    0  502  0.31209995381E+02 -0.21755732941E+02 -0.15313078020E+03  0.23329136673E+03  0.17183844220E+03 0.  0.
        -24    2    5    5    0    0 -0.46514742550E+02 -0.31521096907E+01 -0.10544984294E+03  0.14010986930E+03  0.79608724590E+02 0.  0.
          5    1    3    3  501    0 -0.60878131674E+02  0.12336802531E+02 -0.51675578477E+02  0.80937006516E+02  0.47000000000E+01 0. -1.
        -11    1    4    4    0    0  0.38083640052E+02  0.88831464374E+01 -0.65339012577E+02  0.76147623041E+02  0.00000000000E+00 0.  1.
         12    1    4    4    0    0 -0.84155037596E+01  0.53578397220E+00 -0.25905069186E+03  0.25918790234E+03  0.00000000000E+00 0. -1.
         -5    1    5    5    0  502  0.77724737931E+02 -0.18603623250E+02 -0.47680937266E+02  0.93181497428E+02  0.47000000000E+01 0.  1.
         13    1    6    6    0    0 -0.26942338877E+02 -0.17686365541E+02 -0.11059398217E+03  0.11519429692E+03  0.00000000000E+00 0. -1.
        -14    1    6    6    0    0 -0.19572403673E+02  0.14534255850E+02  0.51441392366E+01  0.24915572382E+02  0.00000000000E+00 0.  1.
</event>
<event>
12    1  0.8271773E-002  0.1772604E+03  0.7818608E-02  0.1170516E+00
         21   -1    0    0  503  502  0.00000000000E+00  0.00000000000E+00  0.30984225942E+03  0.30984225942E+03  0.00000000000E+00 0. -1.
         21   -1    0    0  501  503 -0.00000000000E+00 -0.00000000000E+00 -0.47126208117E+03  0.47126208117E+03  0.00000000000E+00 0. -1.
          6    2    1    2  501    0  0.34178150086E+01  0.42697766100E+02 -0.42672919780E+03  0.46202705791E+03  0.17186161088E+03 0.  0.
         24    2    3    3    0    0 -0.23250527848E+02  0.14119714862E+02 -0.86194972273E+02  0.11922455751E+03  0.77749395335E+02 0.  0.
         -6    2    1    2    0  502 -0.34178150086E+01 -0.42697766100E+02  0.26530937605E+03  0.31907728268E+03  0.17200717025E+03 0.  0.
        -24    2    5    5    0    0  0.43358162592E+02 -0.47774400645E+02  0.24865866324E+03  0.26894644850E+03  0.79616190170E+02 0.  0.
          5    1    3    3  501    0  0.26668342856E+02  0.28578051238E+02 -0.34053422553E+03  0.34280250040E+03  0.47000000000E+01 0. -1.
        -11    1    4    4    0    0 -0.52546265859E+01  0.23364019127E+02 -0.94401832530E+02  0.97391963095E+02  0.00000000000E+00 0.  1.
         12    1    4    4    0    0 -0.17995901262E+02 -0.92443042645E+01  0.82068602574E+01  0.21832594414E+02  0.00000000000E+00 0. -1.
         -5    1    5    5    0  502 -0.46775977600E+02  0.50766345448E+01  0.16650712808E+02  0.50130834182E+02  0.47000000000E+01 0.  1.
         13    1    6    6    0    0  0.95187886858E+01 -0.50246484259E+02  0.21557241254E+03  0.22155536907E+03  0.00000000000E+00 0. -1.
        -14    1    6    6    0    0  0.33839373906E+02  0.24720836137E+01  0.33086250700E+02  0.47391079425E+02  0.00000000000E+00 0.  1.
</event>
<event>
12    1  0.8271773E-002  0.1730083E+03  0.7818608E-02  0.1176775E+00
         21   -1    0    0  501  502  0.00000000000E+00  0.00000000000E+00  0.26564947573E+03  0.26564947573E+03  0.00000000000E+00 0.  1.
         21   -1    0    0  502  503 -0.00000000000E+00 -0.00000000000E+00 -0.18313487898E+03  0.18313487898E+03  0.00000000000E+00 0.  1.
         -6    2    1    2    0  503  0.30909243501E+01  0.35096111526E+01 -0.10220537515E+03  0.20094233888E+03  0.17294511748E+03 0.  0.
        -24    2    3    3    0    0  0.52872214770E+02  0.23125959172E+02 -0.16761342445E+02  0.10001785864E+03  0.79952162978E+02 0.  0.
          6    2    1    2  501    0 -0.30909243501E+01 -0.35096111526E+01  0.18471997191E+03  0.24784201583E+03  0.16517362262E+03 0.  0.
         24    2    5    5    0    0  0.98891499217E+01  0.56697431464E+02  0.82574827407E+02  0.12847246003E+03  0.79838442142E+02 0.  0.
          5    1    5    5  501    0 -0.12980074272E+02 -0.60207042616E+02  0.10214514450E+03  0.11936955581E+03  0.47000000000E+01 0. -1.
        -13    1    6    6    0    0 -0.22705611031E+02  0.63814478627E+01  0.59901129521E+02  0.64377115243E+02  0.00000000000E+00 0.  1.
         14    1    6    6    0    0  0.32594760952E+02  0.50315983601E+02  0.22673697885E+02  0.64095344785E+02  0.00000000000E+00 0. -1.
         -5    1    3    3    0  503 -0.49781290420E+02 -0.19616348019E+02 -0.85444032705E+02  0.10092448023E+03  0.47000000000E+01 0.  1.
         13    1    4    4    0    0  0.29373655884E+02  0.50531476684E+02 -0.24025330040E+02  0.63193815199E+02  0.00000000000E+00 0. -1.
        -14    1    4    4    0    0  0.23498558886E+02 -0.27405517513E+02  0.72639875954E+01  0.36824043445E+02  0.00000000000E+00 0.  1.
</event>
<event>
12    1  0.8271773E-002  0.2039137E+03  0.7818608E-02  0.1146689E+00
         21   -1    0    0  503  502  0.00000000000E+00  0.00000000000E+00  0.27507478140E+03  0.27507478140E+03  0.00000000000E+00 0.  1.
         21   -1    0    0  501  503 -0.00000000000E+00 -0.00000000000E+00 -0.15610479853E+03  0.15610479853E+03  0.00000000000E+00 0. -1.
          6    2    1    2  501    0  0.10697534846E+03 -0.20733956347E+02  0.18152400995E+02  0.20370432029E+03  0.17114998779E+03 0.  0.
         24    2    3    3    0    0  0.96322902484E+01 -0.29528792518E+02  0.51820624811E+02  0.10022166755E+03  0.79964210038E+02 0.  0.
         -6    2    1    2    0  502 -0.10697534846E+03  0.20733956347E+02  0.10081758188E+03  0.22747525964E+03  0.17235772918E+03 0.  0.
        -24    2    5    5    0    0 -0.83823087712E+02  0.72111876676E+02  0.36297514803E+02  0.14168104696E+03  0.80805796167E+02 0.  0.
          5    1    3    3  501    0  0.97343058208E+02  0.87948361711E+01 -0.33668223817E+02  0.10348265275E+03  0.47000000000E+01 0. -1.
        -13    1    4    4    0    0 -0.78071350922E+01  0.23261156719E+02  0.33822296274E+02  0.41784931440E+02  0.00000000000E+00 0.  1.
         14    1    4    4    0    0  0.17439425341E+02 -0.52789949237E+02  0.17998328538E+02  0.58436736107E+02  0.00000000000E+00 0. -1.
         -5    1    5    5    0  502 -0.23152260744E+02 -0.51377920329E+02  0.64520067075E+02  0.85794212685E+02  0.47000000000E+01 0.  1.
         13    1    6    6    0    0 -0.98935372228E+02  0.62040406344E+02  0.22627907603E+02  0.11895058680E+03  0.00000000000E+00 0. -1.
        -14    1    6    6    0    0  0.15112284516E+02  0.10071470332E+02  0.13669607200E+02  0.22730460157E+02  0.00000000000E+00 0.  1.
</event>
<event>
12    1  0.8271773E-002  0.1999087E+03  0.7818608E-02  0.1149940E+00
         21   -1    0    0  501  502  0.00000000000E+00  0.00000000000E+00  0.33888421400E+02  0.33888421400E+02  0.00000000000E+00 0. -1.
         21   -1    0    0  502  503 -0.00000000000E+00 -0.00000000000E+00 -0.16697320449E+04  0.16697320449E+04  0.00000000000E+00 0.  1.
         -6    2    1    2    0  503  0.91835643582E+02  0.43589904194E+02 -0.12803631288E+04  0.12957848717E+04  0.17144919654E+03 0.  0.
        -24    2    3    3    0    0  0.11705259555E+03  0.58731661825E+02 -0.80693650451E+03  0.82142211382E+03  0.80231219210E+02 0.  0.
          6    2    1    2  501    0 -0.91835643582E+02 -0.43589904194E+02 -0.35548049469E+03  0.40783559458E+03  0.17213257948E+03 0.  0.
         24    2    5    5    0    0 -0.71773909426E+02  0.37668553709E+02 -0.23939820219E+03  0.26464830886E+03  0.78465369167E+02 0.  0.
          5    1    5    5  501    0 -0.20061734156E+02 -0.81258457903E+02 -0.11608229251E+03  0.14318728572E+03  0.47000000000E+01 0. -1.
        -11    1    6    6    0    0  0.94142833408E+01 -0.48215294928E+01 -0.80732219284E+02  0.81422153668E+02  0.00000000000E+00 0.  1.
         12    1    6    6    0    0 -0.81188192767E+02  0.42490083202E+02 -0.15866598290E+03  0.18322615519E+03  0.00000000000E+00 0. -1.
         -5    1    3    3    0  503 -0.25216951965E+02 -0.15141757631E+02 -0.47342662432E+03  0.47436275792E+03  0.47000000000E+01 0.  1.
         11    1    4    4    0    0  0.98390064491E+02  0.10988620021E+02 -0.44544204454E+03  0.45631126395E+03  0.00000000000E+00 0. -1.
        -12    1    4    4    0    0  0.18662531057E+02  0.47743041804E+02 -0.36149445997E+03  0.36511084987E+03  0.00000000000E+00 0.  1.
</event>
<event>
12    1  0.8271773E-002  0.2678260E+03  0.7818608E-02  0.1102726E+00
         21   -1    0    0  503  502  0.00000000000E+00  0.00000000000E+00  0.62552557229E+03  0.62552557229E+03  0.00000000000E+00 0. -1.
         21   -1    0    0  501  503 -0.00000000000E+00 -0.00000000000E+00 -0.11719528289E+03  0.11719528289E+03  0.00000000000E+00 0.  1.
          6    2    1    2  501    0 -0.12027158715E+03  0.16688124025E+03  0.31518698905E+03  0.41361046877E+03  0.17151145380E+03 0.  0.
         24    2    3    3    0    0 -0.13952700701E+03  0.18131317676E+03  0.27668094772E+03  0.36796118395E+03  0.80627739086E+02 0.  0.
         -6    2    1    2    0  502  0.12027158715E+03 -0.16688124025E+03  0.19314330035E+03  0.32911038641E+03  0.16939512670E+03 0.  0.
        -24    2    5    5    0    0  0.14904378819E+03 -0.10034052840E+03  0.12831334623E+03  0.23174243050E+03  0.70412831471E+02 0.  0.
          5    1    3    3  501    0  0.19255419862E+02 -0.14431936506E+02  0.38506041332E+02  0.45649284818E+02  0.47000000000E+01 0. -1.
        -11    1    4    4    0    0 -0.20375358814E+02  0.37389819526E+02  0.12489952672E+02  0.44375136831E+02  0.00000000000E+00 0.  1.
         12    1    4    4    0    0 -0.11915164820E+03  0.14392335723E+03  0.26419099505E+03  0.32358604712E+03  0.00000000000E+00 0. -1.
         -5    1    5    5    0  502 -0.28772201040E+02 -0.66540711857E+02  0.64829954115E+02  0.97367955908E+02  0.47000000000E+01 0.  1.
         11    1    6    6    0    0  0.19148209232E+02  0.10212961275E+02  0.21133004767E+02  0.30291292235E+02  0.00000000000E+00 0. -1.
        -12    1    6    6    0    0  0.12989557896E+03 -0.11055348967E+03  0.10718034147E+03  0.20145113826E+03  0.00000000000E+00 0.  1.
</event>
<event>
12    1  0.8271773E-002  0.1993207E+03  0.7818608E-02  0.1150785E+00
         21   -1    0    0  501  502  0.00000000000E+00  0.00000000000E+00  0.17214728189E+04  0.17214728189E+04  0.00000000000E+00 0. -1.
         21   -1    0    0  502  503 -0.00000000000E+00 -0.00000000000E+00 -0.23495062772E+02  0.23495062772E+02  0.00000000000E+00 0.  1.
         -6    2    1    2    0  503 -0.99021515531E+02 -0.18796874918E+02  0.69680699835E+03  0.72414878690E+03  0.16938975643E+03 0.  0.
        -24    2    3    3    0    0  0.76514666495E+01 -0.38369930490E+02  0.28532413919E+03  0.29858743644E+03  0.78827636560E+02 0.  0.
          6    2    1    2  501    0  0.99021515531E+02  0.18796874918E+02  0.10011707578E+04  0.10208190948E+04  0.17195974809E+03 0.  0.
         24    2    5    5    0    0 -0.41215960704E+01  0.29169347701E+02  0.61117378209E+03  0.61725271768E+03  0.81238458736E+02 0.  0.
          5    1    5    5  501    0  0.10314311160E+03 -0.10372472783E+02  0.38999697571E+03  0.40356637710E+03  0.47000000000E+01 0. -1.
        -11    1    6    6    0    0  0.27613424934E+02  0.50047013162E+01  0.83830854614E+02  0.88403396186E+02  0.00000000000E+00 0.  1.
         12    1    6    6    0    0 -0.31735021004E+02  0.24164646385E+02  0.52734292747E+03  0.52884932150E+03  0.00000000000E+00 0. -1.
         -5    1    3    3    0  503 -0.10667298218E+03  0.19573055572E+02  0.41148285915E+03  0.42556135046E+03  0.47000000000E+01 0.  1.
         13    1    4    4    0    0  0.34907708129E+02 -0.35041081884E+02  0.10361191192E+03  0.11481225456E+03  0.00000000000E+00 0. -1.
        -14    1    4    4    0    0 -0.27256241480E+02 -0.33288486057E+01  0.18171222727E+03  0.18377518188E+03  0.00000000000E+00 0.  1.
</event>
<event>
12    1  0.8271773E-002  0.2058627E+03  0.7818608E-02  0.1144989E+00
         21   -1    0    0  503  502  0.00000000000E+00  0.00000000000E+00  0.14059711807E+03  0.14059711807E+03  0.00000000000E+00 0.  1.
         21   -1    0    0  501  503 -0.00000000000E+00 -0.00000000000E+00 -0.41710594991E+03  0.41710594991E+03  0.00000000000E+00 0. -1.
          6    2    1    2  501    0 -0.56176276500E+02  0.97425096957E+02 -0.28545816748E+03  0.35164598530E+03  0.17181708307E+03 0.  0.
         24    2    3    3    0    0  0.32906851404E+02  0.23580145322E+02 -0.13977661961E+03  0.16554363725E+03  0.78919632036E+02 0.  0.
         -6    2    1    2    0  502  0.56176276500E+02 -0.97425096957E+02  0.89493356497E+01  0.20605708269E+03  0.17242971657E+03 0.  0.
        -24    2    5    5    0    0  0.84384344475E+02 -0.11617695833E+03 -0.15474035727E+02  0.16403424992E+03  0.77781656753E+02 0.  0.
          5    1    3    3  501    0 -0.89083127904E+02  0.73844951634E+02 -0.14568154787E+03  0.18610234805E+03  0.47000000000E+01 0. -1.
        -13    1    4    4    0    0 -0.15286054420E+01 -0.45106672796E+01 -0.11414004310E+03  0.11423936359E+03  0.00000000000E+00 0.  1.
         14    1    4    4    0    0  0.34435456846E+02  0.28090812602E+02 -0.25636576514E+02  0.51304273664E+02  0.00000000000E+00 0. -1.
         -5    1    5    5    0  502 -0.28208067975E+02  0.18751861374E+02  0.24423371377E+02  0.42022832761E+02  0.47000000000E+01 0.  1.
         13    1    6    6    0    0  0.47048458012E+02 -0.68696975186E+02  0.29920585030E+02  0.88476399167E+02  0.00000000000E+00 0. -1.
        -14    1    6    6    0    0  0.37335886463E+02 -0.47479983144E+02 -0.45394620758E+02  0.75557850758E+02  0.00000000000E+00 0.  1.
</event>
<event>
12    1  0.8271773E-002  0.2176406E+03  0.7818608E-02  0.1135800E+00
         21   -1    0    0  501  502  0.00000000000E+00  0.00000000000E+00  0.27950242166E+02  0.27950242166E+02  0.00000000000E+00 0.  1.
         21   -1    0    0  502  503 -0.00000000000E+00 -0.00000000000E+00 -0.17829560675E+04  0.17829560675E+04  0.00000000000E+00 0. -1.
         -6    2    1    2    0  503 -0.44727527250E+02  0.12544535052E+03 -0.10871398933E+04  0.11087112331E+04  0.17213472373E+03 0.  0.
        -24    2    3    3    0    0 -0.86894994077E+02  0.10177033168E+03 -0.96638329708E+03  0.97854654008E+03  0.75820273170E+02 0.  0.
          6    2    1    2  501    0  0.44727527250E+02 -0.12544535052E+03 -0.66786593198E+03  0.70219507652E+03  0.17116055250E+03 0.  0.
         24    2    5    5    0    0  0.29437293229E+02 -0.20444969298E+02 -0.15691984806E+03  0.18032645130E+03  0.81297228260E+02 0.  0.
          5    1    5    5  501    0  0.15290234021E+02 -0.10500038122E+03 -0.51094608392E+03  0.52186862522E+03  0.47000000000E+01 0. -1.
        -13    1    6    6    0    0  0.39801847685E+02  0.19356621783E+02 -0.56218832645E+02  0.71550143466E+02  0.00000000000E+00 0.  1.
         14    1    6    6    0    0 -0.10364554456E+02 -0.39801591080E+02 -0.10070101541E+03  0.10877630784E+03  0.00000000000E+00 0. -1.
         -5    1    3    3    0  503  0.42167466828E+02  0.23675018843E+02 -0.12075659625E+03  0.13016469304E+03  0.47000000000E+01 0.  1.
         11    1    4    4    0    0 -0.49525037768E+02  0.39644610283E+02 -0.68653441969E+03  0.68945916043E+03  0.00000000000E+00 0. -1.
        -12    1    4    4    0    0 -0.37369956310E+02  0.62125721394E+02 -0.27984887739E+03  0.28908737965E+03  0.00000000000E+00 0.  1.
</event>
<event>
12    1  0.8271773E-002  0.1771081E+03  0.7818608E-02  0.1170695E+00
         21   -1    0    0  503  502  0.00000000000E+00  0.00000000000E+00  0.37174819358E+03  0.37174819358E+03  0.00000000000E+00 0.  1.
         21   -1    0    0  501  503 -0.00000000000E+00 -0.00000000000E+00 -0.11168153201E+03  0.11168153201E+03  0.00000000000E+00 0.  1.
          6    2    1    2  501    0  0.21790400905E+02 -0.34840533573E+02  0.10181401132E+02  0.17714566535E+03  0.17201232941E+03 0.  0.
         24    2    3    3    0    0  0.24549972550E+02 -0.48243521662E+02 -0.54655037530E+02  0.11071442944E+03  0.79626460581E+02 0.  0.
         -6    2    1    2    0  502 -0.21790400905E+02  0.34840533573E+02  0.24988526044E+03  0.30628406025E+03  0.17227477421E+03 0.  0.
        -24    2    5    5    0    0  0.27247980109E+02 -0.33051998318E+02  0.98856042031E+02  0.13352389843E+03  0.78874757645E+02 0.  0.
          5    1    3    3  501    0 -0.27595716451E+01  0.13402988089E+02  0.64836438662E+02  0.66431235904E+02  0.47000000000E+01 0. -1.
        -11    1    4    4    0    0  0.15597166067E+02  0.11691806365E+02 -0.45404797915E+02  0.49412200914E+02  0.00000000000E+00 0.  1.
         12    1    4    4    0    0  0.89528064826E+01 -0.59935328027E+02 -0.92502396148E+01  0.61302228528E+02  0.00000000000E+00 0. -1.
         -5    1    5    5    0  502 -0.49038381014E+02  0.67892531891E+02  0.15102921841E+03  0.17276016182E+03  0.47000000000E+01 0.  1.
         11    1    6    6    0    0  0.14466655227E+02 -0.58912264990E+02  0.62273157097E+02  0.86936098224E+02  0.00000000000E+00 0. -1.
        -12    1    6    6    0    0  0.12781324883E+02  0.25860266672E+02  0.36582884934E+02  0.46587800207E+02  0.00000000000E+00 0.  1.
</event>
<event>
12    1  0.8271773E-002  0.1773750E+03  0.7818608E-02  0.1170620E+00
         21   -1    0    0  501  502  0.00000000000E+00  0.00000000000E+00  0.10352387956E+03  0.10352387956E+03  0.00000000000E+00 0.  1.
         21   -1    0    0  502  503 -0.00000000000E+00 -0.00000000000E+00 -0.39353318376E+03  0.39353318376E+03  0.00000000000E+00 0.  1.
         -6    2    1    2    0  503 -0.33392516575E+02  0.18079230434E+02 -0.26507536199E+03  0.31894642742E+03  0.17326268292E+03 0.  0.
        -24    2    3    3    0    0 -0.33274913001E+02  0.59160673165E+02 -0.86394658490E+02  0.13554363962E+03  0.79377806358E+02 0.  0.
          6    2    1    2  501    0  0.33392516575E+02 -0.18079230434E+02 -0.24933942211E+02  0.17811063589E+03  0.17222014519E+03 0.  0.
         24    2    5    5    0    0  0.60129768271E+02  0.33846038018E+02  0.18640234211E+02  0.10509068668E+03  0.77041876755E+02 0.  0.
          5    1    5    5  501    0 -0.26737251696E+02 -0.51925268452E+02 -0.43574176423E+02  0.73019949212E+02  0.47000000000E+01 0. -1.
        -11    1    6    6    0    0 -0.12678616519E+02  0.10529598436E+02  0.23252594343E+02  0.28500928121E+02  0.00000000000E+00 0.  1.
         12    1    6    6    0    0  0.72808384790E+02  0.23316439582E+02 -0.46123601318E+01  0.76589758561E+02  0.00000000000E+00 0. -1.
         -5    1    3    3    0  503 -0.11760357335E+00 -0.41081442731E+02 -0.17868070350E+03  0.18340278779E+03  0.47000000000E+01 0.  1.
         11    1    4    4    0    0  0.16076171957E+02  0.49880745294E+02 -0.31499970645E+02  0.61145565714E+02  0.00000000000E+00 0. -1.
        -12    1    4    4    0    0 -0.49351084958E+02  0.92799278707E+01 -0.54894687845E+02  0.74398073909E+02  0.00000000000E+00 0.  1.
</event>
<event>
12    1  0.8271773E-002  0.2331946E+03  0.7818608E-02  0.1124423E+00
         21   -1    0    0  503  502  0.00000000000E+00  0.00000000000E+00  0.23717220914E+03  0.23717220914E+03  0.00000000000E+00 0.  1.
         21   -1    0    0  501  503 -0.00000000000E+00 -0.00000000000E+00 -0.25805509958E+03  0.25805509958E+03  0.00000000000E+00 0. -1.
          6    2    1    2  501    0  0.13958262535E+03  0.74045253046E+02  0.72336953371E+02  0.24415644771E+03  0.17150430704E+03 0.  0.
         24    2    3    3    0    0  0.14090980608E+03  0.74279716180E+02  0.51920918357E+01  0.17683380061E+03  0.76617136035E+02 0.  0.
         -6    2    1    2    0  502 -0.13958262535E+03 -0.74045253046E+02 -0.93219843807E+02  0.25107086101E+03  0.17140778621E+03 0.  0.
        -24    2    5    5    0    0 -0.14110564796E+03 -0.34381634904E+02 -0.11849657569E+03  0.20377894440E+03  0.79946976345E+02 0.  0.
          5    1    3    3  501    0 -0.13271807299E+01 -0.23446313364E+00  0.67144861536E+02  0.67322647098E+02  0.47000000000E+01 0. -1.
        -13    1    4    4    0    0  0.11284674378E+03  0.19670737902E+02  0.11444178266E+02  0.11511861156E+03  0.00000000000E+00 0.  1.
         14    1    4    4    0    0  0.28063062298E+02  0.54608978278E+02 -0.62520864299E+01  0.61715189045E+02  0.00000000000E+00 0. -1.
         -5    1    5    5    0  502  0.15230226054E+01 -0.39663618142E+02  0.25276731887E+02  0.47291916612E+02  0.47000000000E+01 0.  1.
         11    1    6    6    0    0 -0.20245796969E+02 -0.93408859313E+01 -0.65977517496E+02  0.69643214026E+02  0.00000000000E+00 0. -1.
        -12    1    6    6    0    0 -0.12085985099E+03 -0.25040748973E+02 -0.52519058197E+02  0.13413573038E+03  0.00000000000E+00 0.  1.
</event>
<event>
12    1  0.8271773E-002  0.2139998E+03  0.7818608E-02  0.1139565E+00
         21   -1    0    0  503  502  0.00000000000E+00  0.00000000000E+00  0.58498564068E+02  0.58498564068E+02  0.00000000000E+00 0. -1.
         21   -1    0    0  501  503 -0.00000000000E+00 -0.00000000000E+00 -0.14055342181E+04  0.14055342181E+04  0.00000000000E+00 0. -1.
          6    2    1    2  501    0 -0.10501031601E+03 -0.52825149456E+02 -0.11738024819E+04  0.11931505321E+04  0.17882467086E+03 0.  0.
         24    2    3    3    0    0  0.10179692052E+02  0.52493471232E+00 -0.60717120610E+03  0.61245434465E+03  0.79621285283E+02 0.  0.
         -6    2    1    2    0  502  0.10501031601E+03  0.52825149456E+02 -0.17323317212E+03  0.27088225003E+03  0.17190054850E+03 0.  0.
        -24    2    5    5    0    0  0.12493321694E+03  0.84956665399E+02 -0.14274337458E+03  0.22208599964E+03  0.78234113785E+02 0.  0.
          5    1    3    3  501    0 -0.11519000806E+03 -0.53350084168E+02 -0.56663127577E+03  0.58069618745E+03  0.47000000000E+01 0. -1.
        -13    1    4    4    0    0 -0.13351949814E+02  0.26397874687E+02 -0.10560052833E+03  0.10966582848E+03  0.00000000000E+00 0.  1.
         14    1    4    4    0    0  0.23531641866E+02 -0.25872939975E+02 -0.50157067777E+03  0.50278851616E+03  0.00000000000E+00 0. -1.
         -5    1    5    5    0  502 -0.19922900925E+02 -0.32131515943E+02 -0.30489797537E+02  0.48796250388E+02  0.47000000000E+01 0.  1.
         11    1    6    6    0    0  0.97878837913E+01  0.45610161832E+02 -0.25747548766E+02  0.53282509315E+02  0.00000000000E+00 0. -1.
        -12    1    6    6    0    0  0.11514533314E+03  0.39346503568E+02 -0.11699582581E+03  0.16880349032E+03  0.00000000000E+00 0.  1.
</event>
<event>
12    1  0.8271773E-002  0.1800270E+03  0.7818608E-02  0.1168093E+00
         21   -1    0    0  501  502  0.00000000000E+00  0.00000000000E+00  0.12717095718E+03  0.12717095718E+03  0.00000000000E+00 0. -1.
         21   -1    0    0  502  503 -0.00000000000E+00 -0.00000000000E+00 -0.29357124026E+03  0.29357124026E+03  0.00000000000E+00 0.  1.
         -6    2    1    2    0  503 -0.32825225644E+02 -0.37830183242E+02 -0.16165558981E+03  0.24195509495E+03  0.17291940334E+03 0.  0.
        -24    2    3    3    0    0 -0.76136031622E+02 -0.14128804693E+02 -0.54662368059E+02  0.12402621485E+03  0.79988805812E+02 0.  0.
          6    2    1    2  501    0  0.32825225644E+02  0.37830183242E+02 -0.47446932682E+01  0.17878710249E+03  0.17156251834E+03 0.  0.
         24    2    5    5    0    0  0.70973809424E+02 -0.22370400193E+02  0.14281179061E+02  0.10487162029E+03  0.72500953365E+02 0.  0.
          5    1    5    5  501    0 -0.38148583780E+02  0.60200583435E+02 -0.19025872329E+02  0.73915482195E+02  0.47000000000E+01 0. -1.
        -13    1    6    6    0    0  0.38483269828E+02  0.13979242017E+02  0.33061734372E+02  0.52625654805E+02  0.00000000000E+00 0.  1.
         14    1    6    6    0    0  0.32490539596E+02 -0.36349642210E+02 -0.18780555311E+02  0.52245965489E+02  0.00000000000E+00 0. -1.
         -5    1    3    3    0  503  0.43310805978E+02 -0.23701378549E+02 -0.10699322176E+03  0.11792888010E+03  0.47000000000E+01 0.  1.
         11    1    4    4    0    0 -0.37599313295E+02  0.33287979349E+02 -0.23776037254E+02  0.55561658335E+02  0.00000000000E+00 0. -1.
        -12    1    4    4    0    0 -0.38536718327E+02 -0.47416784042E+02 -0.30886330805E+02  0.68464556516E+02  0.00000000000E+00 0.  1.
</event>
<event>
12    1  0.8271773E-002  0.2947459E+03  0.7818608E-02  0.1087945E+00
         21   -1    0    0  503  502  0.00000000000E+00  0.00000000000E+00  0.57037961122E+02  0.57037961122E+02  0.00000000000E+00 0.  1.
         21   -1    0    0  501  503 -0.00000000000E+00 -0.00000000000E+00 -0.24233549874E+04  0.24233549874E+04  0.00000000000E+00 0.  1.
          6    2    1    2  501    0  0.17591603464E+03  0.16188101106E+03 -0.19403318708E+04  0.19625908624E+04  0.17240420932E+03 0.  0.
         24    2    3    3    0    0  0.12314832366E+03  0.11603974932E+03 -0.87207413484E+03  0.89203841949E+03  0.81169650435E+02 0.  0.
         -6    2    1    2    0  502 -0.17591603464E+03 -0.16188101106E+03 -0.42598515551E+03  0.51780208614E+03  0.17176651221E+03 0.  0.
        -24    2    5    5    0    0 -0.33019232224E+02 -0.14208258383E+02 -0.11632924593E+03  0.14613609314E+03  0.80815344796E+02 0.  0.
          5    1    3    3  501    0  0.52767710977E+02  0.45841261736E+02 -0.10682577359E+04  0.10705524429E+04  0.47000000000E+01 0. -1.
        -13    1    4    4    0    0  0.43999456663E+02  0.15324401010E+02 -0.40659991611E+03  0.40926065195E+03  0.00000000000E+00 0.  1.
         14    1    4    4    0    0  0.79148866995E+02  0.10071534831E+03 -0.46547421873E+03  0.48277776755E+03  0.00000000000E+00 0. -1.
         -5    1    5    5    0  502 -0.14289680241E+03 -0.14767275268E+03 -0.30965590958E+03  0.37166599301E+03  0.47000000000E+01 0.  1.
         13    1    6    6    0    0 -0.40854630229E+02 -0.35967644650E+02 -0.10906795894E+03  0.12189582413E+03  0.00000000000E+00 0. -1.
        -14    1    6    6    0    0  0.78353980042E+01  0.21759386267E+02 -0.72612869902E+01  0.24240269003E+02  0.00000000000E+00 0.  1.
</event>
<event>
12    1  0.8271773E-002  0.3520209E+03  0.7818608E-02  0.1061799E+00
         21   -1    0    0  501  502  0.00000000000E+00  0.00000000000E+00  0.19781316512E+03  0.19781316512E+03  0.00000000000E+00 0. -1.
         21   -1    0    0  502  503 -0.00000000000E+00 -0.00000000000E+00 -0.82463949455E+03  0.82463949455E+03  0.00000000000E+00 0. -1.
         -6    2    1    2    0  503  0.12103664437E+03 -0.28203884864E+03 -0.56418348122E+03  0.66499752145E+03  0.17240336898E+03 0.  0.
        -24    2    3    3    0    0  0.10494145375E+03 -0.14006823315E+03 -0.41910476636E+03  0.46131975063E+03  0.80841131109E+02 0.  0.
          6    2    1    2  501    0 -0.12103664437E+03  0.28203884864E+03 -0.62642848216E+02  0.35745513822E+03  0.17220414624E+03 0.  0.
         24    2    5    5    0    0 -0.65656202257E+02  0.54698282138E+02 -0.44920401305E+02  0.12274914837E+03  0.75808126267E+02 0.  0.
          5    1    5    5  501    0 -0.55380442110E+02  0.22734056650E+03 -0.17722446911E+02  0.23470598985E+03  0.47000000000E+01 0. -1.
        -13    1    6    6    0    0 -0.87692215961E+00 -0.84655395055E+01 -0.29832908829E+02  0.31023165551E+02  0.00000000000E+00 0.  1.
         14    1    6    6    0    0 -0.64779280098E+02  0.63163821644E+02 -0.15087492476E+02  0.91725982818E+02  0.00000000000E+00 0. -1.
         -5    1    3    3    0  503  0.16095190613E+02 -0.14197061549E+03 -0.14507871485E+03  0.20367777082E+03  0.47000000000E+01 0.  1.
         13    1    4    4    0    0  0.24848251122E+01 -0.20747113193E+02 -0.13483167352E+03  0.13644118603E+03  0.00000000000E+00 0. -1.
        -14    1    4    4    0    0  0.10245662864E+03 -0.11932111996E+03 -0.28427309285E+03  0.32487856460E+03  0.00000000000E+00 0.  1.
</event>
<event>
12    1  0.8271773E-002  0.1823961E+03  0.7818608E-02  0.1165840E+00
         21   -1    0    0  503  502  0.00000000000E+00  0.00000000000E+00  0.35167354965E+02  0.35167354965E+02  0.00000000000E+00 0. -1.
         21   -1    0    0  501  503 -0.00000000000E+00 -0.00000000000E+00 -0.94060253691E+03  0.94060253691E+03  0.00000000000E+00 0.  1.
          6    2    1    2  501    0  0.39746122651E+02 -0.38678915309E+02 -0.47626986943E+03  0.51000131224E+03  0.17375999884E+03 0.  0.
         24    2    3    3    0    0  0.61537423479E+02 -0.16100113868E+02 -0.46539049136E+03  0.47645859420E+03  0.79864975935E+02 0.  0.
         -6    2    1    2    0  502 -0.39746122651E+02  0.38678915309E+02 -0.42916531251E+03  0.46576857964E+03  0.17228375304E+03 0.  0.
        -24    2    5    5    0    0  0.22756091453E+02 -0.28491468993E+02 -0.24331078899E+03  0.25844665314E+03  0.79151304314E+02 0.  0.
          5    1    3    3  501    0 -0.21791300828E+02 -0.22578801441E+02 -0.10879378074E+02  0.33542718040E+02  0.47000000000E+01 0. -1.
        -11    1    4    4    0    0  0.46884636585E+02 -0.47898136996E+02 -0.29764788938E+03  0.30510107625E+03  0.00000000000E+00 0.  1.
         12    1    4    4    0    0  0.14652786894E+02  0.31798023128E+02 -0.16774260198E+03  0.17135751795E+03  0.00000000000E+00 0. -1.
         -5    1    5    5    0  502 -0.62502214104E+02  0.67170384302E+02 -0.18585452352E+03  0.20732192650E+03  0.47000000000E+01 0.  1.
         13    1    6    6    0    0 -0.13992950668E+02 -0.29650933803E+02 -0.39446391769E+02  0.51293258498E+02  0.00000000000E+00 0. -1.
        -14    1    6    6    0    0  0.36749042121E+02  0.11594648093E+01 -0.20386439723E+03  0.20715339464E+03  0.00000000000E+00 0.  1.
</event>
<event>
12    1  0.8271773E-002  0.2050332E+03  0.7818608E-02  0.1145757E+00
         21   -1    0    0  501  502  0.00000000000E+00  0.00000000000E+00  0.68332073362E+02  0.68332073362E+02  0.00000000000E+00 0.  1.
         21   -1    0    0  502  503 -0.00000000000E+00 -0.00000000000E+00 -0.72133675722E+03  0.72133675722E+03  0.00000000000E+00 0.  1.
         -6    2    1    2    0  503  0.52247693216E+02  0.97972528686E+02 -0.47933684765E+03  0.52096985216E+03  0.17122305779E+03 0.  0.
        -24    2    3    3    0    0  0.34862572618E+02 -0.16161743465E+02 -0.20952384207E+03  0.22745661144E+03  0.79747531435E+02 0.  0.
          6    2    1    2  501    0 -0.52247693216E+02 -0.97972528686E+02 -0.17366783621E+03  0.26869897843E+03  0.17236642901E+03 0.  0.
         24    2    5    5    0    0 -0.55582959477E+02 -0.94763608791E+02 -0.20013236069E+03  0.24142477406E+03  0.78507023901E+02 0.  0.
          5    1    5    5  501    0  0.33352662607E+01 -0.32089198946E+01  0.26464524476E+02  0.27274204364E+02  0.47000000000E+01 0. -1.
        -11    1    6    6    0    0  0.84529173190E+01 -0.58288659050E+02 -0.66611665814E+02  0.88916441717E+02  0.00000000000E+00 0.  1.
         12    1    6    6    0    0 -0.64035876796E+02 -0.36474949742E+02 -0.13352069487E+03  0.15250833235E+03  0.00000000000E+00 0. -1.
         -5    1    3    3    0  503  0.17385120598E+02  0.11413427215E+03 -0.26981300558E+03  0.29351324072E+03  0.47000000000E+01 0.  1.
         13    1    4    4    0    0  0.21832555406E+01 -0.12700313501E+02  0.23073709463E+01  0.13091544159E+02  0.00000000000E+00 0. -1.
        -14    1    4    4    0    0  0.32679317077E+02 -0.34614299642E+01 -0.21183121301E+03  0.21436506728E+03  0.00000000000E+00 0.  1.
</event>
<event>
12    1  0.8271773E-002  0.2168051E+03  0.7818608E-02  0.1136481E+00
         21   -1    0    0  503  502  0.00000000000E+00  0.00000000000E+00  0.73818602145E+03  0.73818602145E+03  0.00000000000E+00 0.  1.
         21   -1    0    0  501  503 -0.00000000000E+00 -0.00000000000E+00 -0.10174200175E+03  0.10174200175E+03  0.00000000000E+00 0. -1.
          6    2    1    2  501    0  0.87572189246E+02 -0.98550795766E+02  0.60801882692E+02  0.22516951517E+03  0.17211418869E+03 0.  0.
         24    2    3    3    0    0  0.33864487999E+01 -0.86000227541E+02  0.72435673658E+02  0.13913352997E+03  0.81876157527E+02 0.  0.
         -6    2    1    2    0  502 -0.87572189246E+02  0.98550795766E+02  0.57564213700E+03  0.61475850803E+03  0.17083034165E+03 0.  0.
        -24    2    5    5    0    0 -0.58584417347E+02  0.10025671230E+03  0.23946343857E+03  0.27729531248E+03  0.77887159370E+02 0.  0.
          5    1    3    3  501    0  0.84185740446E+02 -0.12550568225E+02 -0.11633790966E+02  0.86035985200E+02  0.47000000000E+01 0. -1.
        -13    1    4    4    0    0  0.21756507224E+02 -0.99278478565E+01  0.53521541926E+02  0.58621354640E+02  0.00000000000E+00 0.  1.
         14    1    4    4    0    0 -0.18370058424E+02 -0.76072379684E+02  0.18914131732E+02  0.80512175331E+02  0.00000000000E+00 0. -1.
         -5    1    5    5    0  502 -0.28987771899E+02 -0.17059165350E+01  0.33617869844E+03  0.33746319555E+03  0.47000000000E+01 0.  1.
         11    1    6    6    0    0 -0.58638545343E+02  0.34000568749E+02  0.81528261680E+02  0.10602535134E+03  0.00000000000E+00 0. -1.
        -12    1    6    6    0    0  0.54127996692E-01  0.66256143552E+02  0.15793517689E+03  0.17126996113E+03  0.00000000000E+00 0.  1.
</event>
<event>
12    1  0.8271773E-002  0.3276995E+03  0.7818608E-02  0.1072210E+00
         21   -1    0    0  503  502  0.00000000000E+00  0.00000000000E+00  0.74133644914E+03  0.74133644914E+03  0.00000000000E+00 0. -1.
         21   -1    0    0  501  503 -0.00000000000E+00 -0.00000000000E+00 -0.20697674786E+03  0.20697674786E+03  0.00000000000E+00 0. -1.
          6    2    1    2  501    0  0.16448540223E+03 -0.22487099945E+03  0.52748825315E+03  0.62099181259E+03  0.17252408571E+03 0.  0.
         24    2    3    3    0    0  0.15856064606E+03 -0.24316912760E+03  0.45356582193E+03  0.54446377807E+03  0.80287905127E+02 0.  0.
         -6    2    1    2    0  502 -0.16448540223E+03  0.22487099945E+03  0.68714481292E+01  0.32732138441E+03  0.17166728854E+03 0.  0.
        -24    2    5    5    0    0 -0.97665426231E+02  0.65531706862E+02  0.46695545187E+02  0.14994616613E+03  0.80439037231E+02 0.  0.
          5    1    3    3  501    0  0.59247561674E+01  0.18298128154E+02  0.73922431225E+02  0.76528034522E+02  0.47000000000E+01 0. -1.
        -13    1    4    4    0    0  0.55655699968E+02 -0.14971433639E+03  0.20759176826E+03  0.26192800864E+03  0.00000000000E+00 0.  1.
         14    1    4    4    0    0  0.10290494609E+03 -0.93454791218E+02  0.24597405367E+03  0.28253576943E+03  0.00000000000E+00 0. -1.
         -5    1    5    5    0  502 -0.66819975995E+02  0.15933929259E+03 -0.39824097058E+02  0.17737521828E+03  0.47000000000E+01 0.  1.
         11    1    6    6    0    0 -0.27404840533E+02  0.37654264932E+02  0.57056957777E+02  0.73650291126E+02  0.00000000000E+00 0. -1.
        -12    1    6    6    0    0 -0.70260585698E+02  0.27877441930E+02 -0.10361412590E+02  0.76295875000E+02  0.00000000000E+00 0.  1.
</event>
<event>
12    1  0.8271773E-002  0.1779113E+03  0.7818608E-02  0.1170881E+00
         21   -1    0    0  503  502  0.00000000000E+00  0.00000000000E+00  0.10922336029E+03  0.10922336029E+03  0.00000000000E+00 0.  1.
         21   -1    0    0  501  503 -0.00000000000E+00 -0.00000000000E+00 -0.49041089148E+03  0.49041089148E+03  0.00000000000E+00 0.  1.
          6    2    1    2  501    0  0.24535081625E+02  0.23777814460E+02 -0.38424923254E+03  0.42169665146E+03  0.17033272867E+03 0.  0.
         24    2    3    3    0    0 -0.33647434308E+02 -0.13310973052E+02 -0.10934023633E+03  0.13822208556E+03  0.76424641418E+02 0.  0.
         -6    2    1    2    0  502 -0.24535081625E+02 -0.23777814460E+02  0.30617013502E+01  0.17793760030E+03  0.17459971620E+03 0.  0.
        -24    2    5    5    0    0 -0.20803483791E+02 -0.72216260199E+02 -0.35646393366E+02  0.11564302233E+03  0.80340961405E+02 0.  0.
          5    1    3    3  501    0  0.58182515934E+02  0.37088787512E+02 -0.27490899620E+03  0.28347456590E+03  0.47000000000E+01 0. -1.
        -13    1    4    4    0    0  0.24916774337E+02 -0.36817119418E+01 -0.33967212696E+02  0.42286784987E+02  0.00000000000E+00 0.  1.
         14    1    4    4    0    0 -0.58564208645E+02 -0.96292611103E+01 -0.75373023638E+02  0.95935300573E+02  0.00000000000E+00 0. -1.
         -5    1    5    5    0  502 -0.37315978348E+01  0.48438445739E+02  0.38708094716E+02  0.62294577970E+02  0.47000000000E+01 0.  1.
         11    1    6    6    0    0 -0.27529062593E+02 -0.59628535082E+02  0.11241059515E+02  0.66631620890E+02  0.00000000000E+00 0. -1.
        -12    1    6    6    0    0  0.67255788026E+01 -0.12587725116E+02 -0.46887452881E+02  0.49011401444E+02  0.00000000000E+00 0.  1.
</event>
<event>
12    1  0.8271773E-002  0.2424410E+03  0.7818608E-02  0.1118409E+00
         21   -1    0    0  501  502  0.00000000000E+00  0.00000000000E+00  0.14475639749E+04  0.14475639749E+04  0.00000000000E+00 0. -1.
         21   -1    0    0  502  503 -0.00000000000E+00 -0.00000000000E+00 -0.44794712783E+02  0.44794712783E+02  0.00000000000E+00 0. -1.
         -6    2    1    2    0  503  0.17101104066E+03  0.30080035946E+01  0.46868890716E+03  0.52768072826E+03  0.17182501322E+03 0.  0.
        -24    2    3    3    0    0  0.43219035951E+02 -0.35338020131E+02  0.11503405277E+03  0.14966609886E+03  0.77784620055E+02 0.  0.
          6    2    1    2  501    0 -0.17101104066E+03 -0.30080035946E+01  0.93408035494E+03  0.96467795941E+03  0.16983413017E+03 0.  0.
         24    2    5    5    0    0 -0.18742465612E+03  0.12005558548E+02  0.69388309410E+03  0.72340709931E+03  0.81067551371E+02 0.  0.
          5    1    5    5  501    0  0.16413615466E+02 -0.15013562143E+02  0.24019726083E+03  0.24127086010E+03  0.47000000000E+01 0. -1.
        -13    1    6    6    0    0  0.62280236945E+01  0.77724112226E+01  0.21788061549E+02  0.23956591607E+02  0.00000000000E+00 0.  1.
         14    1    6    6    0    0 -0.19365267982E+03  0.42331473256E+01  0.67209503255E+03  0.69945050770E+03  0.00000000000E+00 0. -1.
         -5    1    3    3    0  503  0.12779200471E+03  0.38346023725E+02  0.35365485439E+03  0.37801462939E+03  0.47000000000E+01 0.  1.
         11    1    4    4    0    0  0.44507434643E+02  0.12304053779E+02  0.71509928135E+02  0.85123271199E+02  0.00000000000E+00 0. -1.
        -12    1    4    4    0    0 -0.12883986921E+01 -0.47642073910E+02  0.43524124636E+02  0.64542827665E+02  0.00000000000E+00 0.  1.
</event>
<event>
12    1  0.8271773E-002  0.1779362E+03  0.7818608E-02  0.1169849E+00
         21   -1    0    0  501  502  0.00000000000E+00  0.00000000000E+00  0.49586280495E+03  0.49586280495E+03  0.00000000000E+00 0. -1.
         21   -1    0    0  502  503 -0.00000000000E+00 -0.00000000000E+00 -0.66818807273E+02  0.66818807273E+02  0.00000000000E+00 0. -1.
         -6    2    1    2    0  503  0.11108457166E+02 -0.40215048450E+02  0.27422909234E+03  0.32682373431E+03  0.17283376488E+03 0.  0.
        -24    2    3    3    0    0 -0.30813246684E+02 -0.60341911465E+02  0.25598517374E+03  0.27664953343E+03  0.80099642458E+02 0.  0.
          6    2    1    2  501    0 -0.11108457166E+02  0.40215048450E+02  0.15481490534E+03  0.23585787791E+03  0.17297582407E+03 0.  0.
         24    2    5    5    0    0  0.55400880417E+02  0.26232340593E+02  0.13034197529E+03  0.16346987883E+03  0.77304446957E+02 0.  0.
          5    1    5    5  501    0 -0.66509337584E+02  0.13982707857E+02  0.24472930048E+02  0.72387999074E+02  0.47000000000E+01 0. -1.
        -13    1    6    6    0    0  0.64855665227E+02  0.37215702497E+02  0.73651166005E+02  0.10495599115E+03  0.00000000000E+00 0.  1.
         14    1    6    6    0    0 -0.94547848091E+01 -0.10983361904E+02  0.56690809284E+02  0.58513887683E+02  0.00000000000E+00 0. -1.
         -5    1    3    3    0  503  0.41921703850E+02  0.20126863015E+02  0.18243918599E+02  0.50174200884E+02  0.47000000000E+01 0.  1.
         11    1    4    4    0    0  0.22462119401E+02 -0.13951304761E+02  0.30544101672E+02  0.40399602220E+02  0.00000000000E+00 0. -1.
        -12    1    4    4    0    0 -0.53275366085E+02 -0.46390606704E+02  0.22544107207E+03  0.23624993121E+03  0.00000000000E+00 0.  1.
</event>
<event>
12    1  0.8271773E-002  0.1838805E+03  0.7818608E-02  0.1164719E+00
         21   -1    0    0  501  502  0.00000000000E+00  0.00000000000E+00  0.62685705968E+02  0.62685705968E+02  0.00000000000E+00 0. -1.
         21   -1    0    0  502  503 -0.00000000000E+00 -0.00000000000E+00 -0.15966275124E+04  0.15966275124E+04  0.00000000000E+00 0. -1.
         -6    2    1    2    0  503 -0.22039408975E+02  0.53557713172E+02 -0.14463522075E+04  0.14579940791E+04  0.17452181018E+03 0.  0.
        -24    2    3    3    0    0 -0.25553055145E+02  0.73459304947E+02 -0.52223452090E+03  0.53364349202E+03  0.77441937243E+02 0.  0.
          6    2    1    2  501    0  0.22039408975E+02 -0.53557713172E+02 -0.87589598942E+02  0.20131913933E+03  0.17176522881E+03 0.  0.
         24    2    5    5    0    0  0.74478095567E+02 -0.65160983476E+02 -0.64002828150E+02  0.14247292033E+03  0.80057670029E+02 0.  0.
          5    1    5    5  501    0 -0.52438686592E+02  0.11603270303E+02 -0.23586770793E+02  0.58846218992E+02  0.47000000000E+01 0. -1.
        -11    1    6    6    0    0 -0.58254277342E+01 -0.32487145768E+02 -0.41272110136E+02  0.52846355820E+02  0.00000000000E+00 0.  1.
         12    1    6    6    0    0  0.80303523301E+02 -0.32673837708E+02 -0.22730718014E+02  0.89626564514E+02  0.00000000000E+00 0. -1.
         -5    1    3    3    0  503  0.35136461699E+01 -0.19901591775E+02 -0.92411768659E+03  0.92435058703E+03  0.47000000000E+01 0.  1.
         13    1    4    4    0    0 -0.42792805881E+02  0.39657489294E+02 -0.42952761520E+03  0.43347192864E+03  0.00000000000E+00 0. -1.
        -14    1    4    4    0    0  0.17239750737E+02  0.33801815653E+02 -0.92706905698E+02  0.10017156339E+03  0.00000000000E+00 0.  1.
</event>
<event>
12    1  0.8271773E-002  0.1946326E+03  0.7818608E-02  0.1154787E+00
         21   -1    0    0  503  502  0.00000000000E+00  0.00000000000E+00  0.15113905058E+03  0.15113905058E+03  0.00000000000E+00 0. -1.
         21   -1    0    0  501  503 -0.00000000000E+00 -0.00000000000E+00 -0.41699009183E+03  0.41699009183E+03  0.00000000000E+00 0. -1.
          6    2    1    2  501    0  0.16766181046E+02  0.87518881161E+02 -0.31412708446E+03  0.36953712837E+03  0.17303527001E+03 0.  0.
         24    2    3    3    0    0 -0.32934150076E+01  0.49810096155E+02 -0.30741485661E+03  0.32604593543E+03  0.96489199849E+02 0.  0.
         -6    2    1    2    0  502 -0.16766181046E+02 -0.87518881161E+02  0.48276043213E+02  0.19859201405E+03  0.17078510564E+03 0.  0.
        -24    2    5    5    0    0 -0.34683510558E+02  0.21427976079E+02 -0.24009107992E+01  0.77016144453E+02  0.65296386350E+02 0.  0.
          5    1    3    3  501    0  0.20059596053E+02  0.37708785006E+02 -0.67122278526E+01  0.43491192938E+02  0.47000000000E+01 0. -1.
        -11    1    4    4    0    0  0.41198482989E+02  0.41311971865E+02 -0.21984033026E+03  0.22745057668E+03  0.00000000000E+00 0.  1.
         12    1    4    4    0    0 -0.44491897997E+02  0.84981242899E+01 -0.87574526342E+02  0.98595358754E+02  0.00000000000E+00 0. -1.
         -5    1    5    5    0  502  0.17917329512E+02 -0.10894685724E+03  0.50676954012E+02  0.12157586959E+03  0.47000000000E+01 0.  1.
         13    1    6    6    0    0  0.22725207523E+01 -0.17743002469E+02  0.11666810842E+02  0.21356333075E+02  0.00000000000E+00 0. -1.
        -14    1    6    6    0    0 -0.36956031310E+02  0.39170978547E+02 -0.14067721641E+02  0.55659811379E+02  0.00000000000E+00 0.  1.
</event>
<event>
12    1  0.8271773E-002  0.2074724E+03  0.7818608E-02  0.1143838E+00
         21   -1    0    0  501  502  0.00000000000E+00  0.00000000000E+00  0.10329414920E+04  0.10329414920E+04  0.00000000000E+00 0.  1.
         21   -1    0    0  502  503 -0.00000000000E+00 -0.00000000000E+00 -0.15013400847E+03  0.15013400847E+03  0.00000000000E+00 0.  1.
         -6    2    1    2    0  503 -0.75770964141E+02 -0.87943580822E+02 -0.62337140460E+02  0.21542722929E+03  0.17043373969E+03 0.  0.
        -24    2    3    3    0    0 -0.10703294479E+03 -0.28830214963E+02 -0.55784381783E+02  0.14807197631E+03  0.80784777974E+02 0.  0.
          6    2    1    2  501    0  0.75770964141E+02  0.87943580822E+02  0.94514462402E+03  0.96764827120E+03  0.17195785543E+03 0.  0.
         24    2    5    5    0    0  0.68101892863E+01  0.10911626100E+03  0.62373093771E+03  0.63820522818E+03  0.79453719380E+02 0.  0.
          5    1    5    5  501    0  0.68960774854E+02 -0.21172680175E+02  0.32141368631E+03  0.32944304303E+03  0.47000000000E+01 0. -1.
        -13    1    6    6    0    0 -0.21632339291E+02  0.56967840796E+00  0.13764204236E+03  0.13933274727E+03  0.00000000000E+00 0.  1.
         14    1    6    6    0    0  0.28442528577E+02  0.10854658259E+03  0.48608889535E+03  0.49887248091E+03  0.00000000000E+00 0. -1.
         -5    1    3    3    0  503  0.31261980651E+02 -0.59113365860E+02 -0.65527586771E+01  0.67355252978E+02  0.47000000000E+01 0.  1.
         11    1    4    4    0    0 -0.37670518786E+02  0.14164856980E+02  0.11987503855E+02  0.41992992362E+02  0.00000000000E+00 0. -1.
        -12    1    4    4    0    0 -0.69362426006E+02 -0.42995071943E+02 -0.67771885638E+02  0.10607898395E+03  0.00000000000E+00 0.  1.
</event>
<event>
12    1  0.8271773E-002  0.1727545E+03  0.7818608E-02  0.1179113E+00
         21   -1    0    0  501  502  0.00000000000E+00  0.00000000000E+00  0.40856824355E+03  0.40856824355E+03  0.00000000000E+00 0. -1.
         21   -1    0    0  502  503 -0.00000000000E+00 -0.00000000000E+00 -0.86175087339E+02  0.86175087339E+02  0.00000000000E+00 0. -1.
         -6    2    1    2    0  503 -0.15634332730E+02 -0.15165591418E+02  0.37957311388E+02  0.16195529730E+03  0.15593054002E+03 0.  0.
        -24    2    3    3    0    0  0.23142298310E+02  0.27421636923E+02  0.52195315828E+02  0.10243966991E+03  0.80511010644E+02 0.  0.
          6    2    1    2  501    0  0.15634332730E+02  0.15165591418E+02  0.28443584482E+03  0.33278803359E+03  0.17137589666E+03 0.  0.
         24    2    5    5    0    0  0.52460914947E+02  0.61304122422E+02  0.16990658395E+03  0.20385393105E+03  0.78599204278E+02 0.  0.
          5    1    5    5  501    0 -0.36826582216E+02 -0.46138531004E+02  0.11452926087E+03  0.12893410254E+03  0.47000000000E+01 0. -1.
        -11    1    6    6    0    0  0.81518437477E+01 -0.17209929190E+02  0.13562561763E+02  0.23378992724E+02  0.00000000000E+00 0.  1.
         12    1    6    6    0    0  0.44309071199E+02  0.78514051612E+02  0.15634402218E+03  0.18047493833E+03  0.00000000000E+00 0. -1.
         -5    1    3    3    0  503 -0.38776631040E+02 -0.42587228340E+02 -0.14238004440E+02  0.59515627384E+02  0.47000000000E+01 0.  1.
         11    1    4    4    0    0  0.35408045406E+02  0.54919177846E+01 -0.84333030702E+01  0.36810480045E+02  0.00000000000E+00 0. -1.
        -12    1    4    4    0    0 -0.12265747096E+02  0.21929719138E+02  0.60628618898E+02  0.65629189869E+02  0.00000000000E+00 0.  1.
</event>
<event>
12    1  0.8271773E-002  0.1989661E+03  0.7818608E-02  0.1154892E+00
         21   -1    0    0  501  502  0.00000000000E+00  0.00000000000E+00  0.32432710383E+03  0.32432710383E+03  0.00000000000E+00 0. -1.
         21   -1    0    0  502  503 -0.00000000000E+00 -0.00000000000E+00 -0.12863775635E+03  0.12863775635E+03  0.00000000000E+00 0.  1.
         -6    2    1    2    0  503 -0.22401240536E+02 -0.74353711333E+02  0.89605133801E+01  0.18010009785E+03  0.16225123876E+03 0.  0.
        -24    2    3    3    0    0  0.83047286634E+01 -0.10199383974E+03 -0.19546731514E+02  0.12968595049E+03  0.77231206003E+02 0.  0.
          6    2    1    2  501    0  0.22401240536E+02  0.74353711333E+02  0.18672883410E+03  0.27286476233E+03  0.18318632883E+03 0.  0.
         24    2    5    5    0    0 -0.26903825764E+02  0.29199895378E+02  0.18705272781E+02  0.91967377562E+02  0.80818695702E+02 0.  0.
          5    1    5    5  501    0  0.49305066300E+02  0.45153815955E+02  0.16802356132E+03  0.18089738477E+03  0.47000000000E+01 0. -1.
        -13    1    6    6    0    0 -0.74366905908E+01 -0.27221358981E+02  0.15501254342E+02  0.32196205334E+02  0.00000000000E+00 0.  1.
         14    1    6    6    0    0 -0.19467135173E+02  0.56421254359E+02  0.32040184399E+01  0.59771172228E+02  0.00000000000E+00 0. -1.
         -5    1    3    3    0  503 -0.30705969200E+02  0.27640128403E+02  0.28507244894E+02  0.50414147360E+02  0.47000000000E+01 0.  1.
         11    1    4    4    0    0 -0.18968861280E+02 -0.38564144784E+02  0.22839552435E+02  0.48668841333E+02  0.00000000000E+00 0. -1.
        -12    1    4    4    0    0  0.27273589944E+02 -0.63429694951E+02 -0.42386283948E+02  0.81017109162E+02  0.00000000000E+00 0.  1.
</event>
<event>
12    1  0.8271773E-002  0.3267511E+03  0.7818608E-02  0.1072615E+00
         21   -1    0    0  503  502  0.00000000000E+00  0.00000000000E+00  0.89455094126E+03  0.89455094126E+03  0.00000000000E+00 0. -1.
         21   -1    0    0  501  503 -0.00000000000E+00 -0.00000000000E+00 -0.15881936730E+03  0.15881936730E+03  0.00000000000E+00 0.  1.
          6    2    1    2  501    0  0.27530581860E+03 -0.34069347930E+02  0.10508923857E+03  0.34323464222E+03  0.17266226379E+03 0.  0.
         24    2    3    3    0    0  0.11598618858E+03 -0.75007945905E+02  0.28104420290E+02  0.16155507387E+03  0.78937922200E+02 0.  0.
         -6    2    1    2    0  502 -0.27530581860E+03  0.34069347930E+02  0.63064233539E+03  0.71013566634E+03  0.17213045979E+03 0.  0.
        -24    2    5    5    0    0 -0.17519025490E+03 -0.37656382777E+02  0.32306282660E+03  0.37878245484E+03  0.83647651408E+02 0.  0.
          5    1    3    3  501    0  0.15931963002E+03  0.40938597975E+02  0.76984818281E+02  0.18167956836E+03  0.47000000000E+01 0. -1.
        -11    1    4    4    0    0  0.10634675954E+03 -0.35205962805E+02  0.39934584590E+02  0.11892797875E+03  0.00000000000E+00 0.  1.
         12    1    4    4    0    0  0.96394290376E+01 -0.39801983100E+02 -0.11830164300E+02  0.42627095118E+02  0.00000000000E+00 0. -1.
         -5    1    5    5    0  502 -0.10011556370E+03  0.71725730707E+02  0.30757950880E+03  0.33135321150E+03  0.47000000000E+01 0.  1.
         11    1    6    6    0    0 -0.10796981935E+03  0.14499112357E+02  0.21701284217E+03  0.24282149785E+03  0.00000000000E+00 0. -1.
        -12    1    6    6    0    0 -0.67220435544E+02 -0.52155495134E+02  0.10604998442E+03  0.13596095698E+03  0.00000000000E+00 0.  1.
</event>
<event>
12    1  0.8271773E-002  0.2314553E+03  0.7818608E-02  0.1125639E+00
         21   -1    0    0  501  502  0.00000000000E+00  0.00000000000E+00  0.38119096838E+03  0.38119096838E+03  0.00000000000E+00 0.  1.
         21   -1    0    0  502  503 -0.00000000000E+00 -0.00000000000E+00 -0.15537355050E+03  0.15537355050E+03  0.00000000000E+00 0.  1.
         -6    2    1    2    0  503  0.15314406993E+03  0.12162136035E+02  0.29839545307E+02  0.23337089542E+03  0.17312005273E+03 0.  0.
        -24    2    3    3    0    0  0.12661651096E+03  0.70653279222E+02  0.10026456151E+02  0.16599453668E+03  0.80187465789E+02 0.  0.
          6    2    1    2  501    0 -0.15314406993E+03 -0.12162136035E+02  0.19597787257E+03  0.30319362346E+03  0.17296827183E+03 0.  0.
         24    2    5    5    0    0 -0.29573404308E+02  0.92376652346E+00  0.14692784143E+03  0.16951884721E+03  0.79204857090E+02 0.  0.
          5    1    5    5  501    0 -0.12357066562E+03 -0.13085902559E+02  0.49050031142E+02  0.13367477624E+03  0.47000000000E+01 0. -1.
        -11    1    6    6    0    0 -0.18756228229E+02 -0.38483744980E+02  0.87293223014E+02  0.97226033084E+02  0.00000000000E+00 0.  1.
         12    1    6    6    0    0 -0.10817176079E+02  0.39407511504E+02  0.59634618415E+02  0.72292814130E+02  0.00000000000E+00 0. -1.
         -5    1    3    3    0  503  0.26527558968E+02 -0.58491143186E+02  0.19813089156E+02  0.67376358747E+02  0.47000000000E+01 0.  1.
         11    1    4    4    0    0 -0.74517857739E+01  0.16369959104E+02 -0.89918929195E+01  0.20108675008E+02  0.00000000000E+00 0. -1.
        -12    1    4    4    0    0  0.13406829674E+03  0.54283320118E+02  0.19018349070E+02  0.14588586167E+03  0.00000000000E+00 0.  1.
</event>
<event>
12    1  0.8271773E-002  0.2908750E+03  0.7818608E-02  0.1089987E+00
         21   -1    0    0  503  502  0.00000000000E+00  0.00000000000E+00  0.53511412540E+03  0.53511412540E+03  0.00000000000E+00 0.  1.
         21   -1    0    0  501  503 -0.00000000000E+00 -0.00000000000E+00 -0.21425868492E+03  0.21425868492E+03  0.00000000000E+00 0. -1.
          6    2    1    2  501    0 -0.19884196224E+03  0.12349763986E+03 -0.31897703028E+02  0.29261871286E+03  0.17268020923E+03 0.  0.
         24    2    3    3    0    0 -0.20036568633E+03  0.79742798949E+02  0.12844844577E+02  0.22984297388E+03  0.78469614295E+02 0.  0.
         -6    2    1    2    0  502  0.19884196224E+03 -0.12349763986E+03  0.35275314350E+03  0.45675409745E+03  0.17146350134E+03 0.  0.
        -24    2    5    5    0    0  0.54054374606E+02 -0.68290724539E+02  0.78577261867E+02  0.14178464957E+03  0.79642967662E+02 0.  0.
          5    1    3    3  501    0  0.15237240891E+01  0.43754840913E+02 -0.44742547605E+02  0.62775738980E+02  0.47000000000E+01 0. -1.
        -13    1    4    4    0    0 -0.28423094134E+02  0.45483123023E+02 -0.35775755352E+01  0.53753007421E+02  0.00000000000E+00 0.  1.
         14    1    4    4    0    0 -0.17194259220E+03  0.34259675927E+02  0.16422420112E+02  0.17608996646E+03  0.00000000000E+00 0. -1.
         -5    1    5    5    0  502  0.14478758764E+03 -0.55206915323E+02  0.27417588163E+03  0.31496944789E+03  0.47000000000E+01 0.  1.
         13    1    6    6    0    0 -0.19142148982E+02 -0.20357433390E+01  0.11478298917E+02  0.22412439952E+02  0.00000000000E+00 0. -1.
        -14    1    6    6    0    0  0.73196523588E+02 -0.66254981200E+02  0.67098962950E+02  0.11937220961E+03  0.00000000000E+00 0.  1.
</event>
<event>
12    1  0.8271773E-002  0.1807475E+03  0.7818608E-02  0.1167915E+00
         21   -1    0    0  503  502  0.00000000000E+00  0.00000000000E+00  0.14761341890E+04  0.14761341890E+04  0.00000000000E+00 0.  1.
         21   -1    0    0  501  503 -0.00000000000E+00 -0.00000000000E+00 -0.25953459697E+02  0.25953459697E+02  0.00000000000E+00 0.  1.
          6    2    1    2  501    0 -0.51764352228E+02 -0.21175046693E+00  0.10344224567E+04  0.10500949882E+04  0.17317641914E+03 0.  0.
         24    2    3    3    0    0 -0.97452012004E+01 -0.69394763444E+01  0.23939615681E+03  0.25391675501E+03  0.83785877709E+02 0.  0.
         -6    2    1    2    0  502  0.51764352228E+02  0.21175046693E+00  0.41575827251E+03  0.45199266049E+03  0.16959608183E+03 0.  0.
        -24    2    5    5    0    0 -0.13330619551E+02 -0.59890903584E+01  0.91093135062E+02  0.12077468505E+03  0.77942226506E+02 0.  0.
          5    1    3    3  501    0 -0.42019151028E+02  0.67277258774E+01  0.79502629994E+03  0.79617823315E+03  0.47000000000E+01 0. -1.
        -13    1    4    4    0    0  0.46100213743E+01  0.18223307169E+02  0.21562470435E+03  0.21644249663E+03  0.00000000000E+00 0.  1.
         14    1    4    4    0    0 -0.14355222575E+02 -0.25162783514E+02  0.23771452455E+02  0.37474258380E+02  0.00000000000E+00 0. -1.
         -5    1    5    5    0  502  0.65094971780E+02  0.62008408254E+01  0.32466513745E+03  0.33121797544E+03  0.47000000000E+01 0.  1.
         11    1    6    6    0    0 -0.35906321832E+02 -0.23056460584E+02  0.79426003174E+02  0.90162931975E+02  0.00000000000E+00 0. -1.
        -12    1    6    6    0    0  0.22575702280E+02  0.17067370226E+02  0.11667131888E+02  0.30611753075E+02  0.00000000000E+00 0.  1.
</event>
<event>
12    1  0.8271773E-002  0.1762770E+03  0.7818608E-02  0.1171629E+00
         21   -1    0    0  503  502  0.00000000000E+00  0.00000000000E+00  0.15897554244E+03  0.15897554244E+03  0.00000000000E+00 0. -1.
         21   -1    0    0  501  503 -0.00000000000E+00 -0.00000000000E+00 -0.23556724177E+03  0.23556724177E+03  0.00000000000E+00 0. -1.
          6    2    1    2  501    0  0.13130066000E+02  0.33112570274E+02 -0.12040979715E+03  0.21290135556E+03  0.17192913367E+03 0.  0.
         24    2    3    3    0    0 -0.27925572313E+02  0.73299075443E+02 -0.55663687746E+02  0.12621416320E+03  0.81725007250E+02 0.  0.
         -6    2    1    2    0  502 -0.13130066000E+02 -0.33112570274E+02  0.43818097821E+02  0.18164142864E+03  0.17264049919E+03 0.  0.
        -24    2    5    5    0    0  0.96831434661E+00 -0.58970726085E+02 -0.28862110245E+02  0.10307991647E+03  0.79460453084E+02 0.  0.
          5    1    3    3  501    0  0.41055638314E+02 -0.40186505169E+02 -0.64746109409E+02  0.86687192357E+02  0.47000000000E+01 0. -1.
        -11    1    4    4    0    0  0.49820071319E+01  0.79558581381E+02 -0.37236988136E+02  0.87982848055E+02  0.00000000000E+00 0.  1.
         12    1    4    4    0    0 -0.32907579445E+02 -0.62595059376E+01 -0.18426699610E+02  0.38231315149E+02  0.00000000000E+00 0. -1.
         -5    1    5    5    0  502 -0.14098380347E+02  0.25858155810E+02  0.72680208066E+02  0.78561512173E+02  0.47000000000E+01 0.  1.
         11    1    6    6    0    0  0.19472731832E+02  0.13141863154E+02 -0.76315573128E+00  0.23504856069E+02  0.00000000000E+00 0. -1.
        -12    1    6    6    0    0 -0.18504417486E+02 -0.72112589239E+02 -0.28098954514E+02  0.79575060402E+02  0.00000000000E+00 0.  1.
</event>
<event>
12    1  0.8271773E-002  0.2054092E+03  0.7818608E-02  0.1145778E+00
         21   -1    0    0  503  502  0.00000000000E+00  0.00000000000E+00  0.62415273813E+03  0.62415273813E+03  0.00000000000E+00 0.  1.
         21   -1    0    0  501  503 -0.00000000000E+00 -0.00000000000E+00 -0.71894892233E+02  0.71894892233E+02  0.00000000000E+00 0.  1.
          6    2    1    2  501    0  0.92196407794E+02  0.61898914560E+02  0.18153887428E+03  0.27222515295E+03  0.16976017729E+03 0.  0.
         24    2    3    3    0    0  0.12021966681E+03  0.80476241396E+02  0.12685038165E+03  0.20785636127E+03  0.78638755565E+02 0.  0.
         -6    2    1    2    0  502 -0.92196407794E+02 -0.61898914560E+02  0.37071897163E+03  0.42382247741E+03  0.17280417588E+03 0.  0.
        -24    2    5    5    0    0 -0.10742396813E+03  0.93801398452E+01  0.24530774377E+03  0.27869271388E+03  0.76588795948E+02 0.  0.
          5    1    3    3  501    0 -0.28023259014E+02 -0.18577326836E+02  0.54688492621E+02  0.64368791688E+02  0.47000000000E+01 0. -1.
        -11    1    4    4    0    0  0.83756166696E+02  0.87232754199E+02  0.69266965197E+02  0.13936484970E+03  0.00000000000E+00 0.  1.
         12    1    4    4    0    0  0.36463500112E+02 -0.67565128028E+01  0.57583416457E+02  0.68491511566E+02  0.00000000000E+00 0. -1.
         -5    1    5    5    0  502  0.15227560332E+02 -0.71279054405E+02  0.12541122786E+03  0.14512976353E+03  0.47000000000E+01 0.  1.
         11    1    6    6    0    0 -0.39259622547E+02 -0.83638130350E+01  0.24741967759E+02  0.47153327556E+02  0.00000000000E+00 0. -1.
        -12    1    6    6    0    0 -0.68164345579E+02  0.17743952880E+02  0.22056577601E+03  0.23153938632E+03  0.00000000000E+00 0.  1.
</event>
<event>
12    1  0.8271773E-002  0.2861161E+03  0.7818608E-02  0.1092447E+00
         21   -1    0    0  503  502  0.00000000000E+00  0.00000000000E+00  0.11260050020E+03  0.11260050020E+03  0.00000000000E+00 0.  1.
         21   -1    0    0  501  503 -0.00000000000E+00 -0.00000000000E+00 -0.88404967677E+03  0.88404967677E+03  0.00000000000E+00 0.  1.
          6    2    1    2  501    0  0.44758050010E+02 -0.22375374244E+03 -0.59663730887E+03  0.66169364583E+03  0.17260759632E+03 0.  0.
         24    2    3    3    0    0  0.19758013262E+02 -0.16511594957E+03 -0.55606220928E+03  0.58598485311E+03  0.80742873308E+02 0.  0.
         -6    2    1    2    0  502 -0.44758050010E+02  0.22375374244E+03 -0.17481186770E+03  0.33495653114E+03  0.17195251777E+03 0.  0.
        -24    2    5    5    0    0 -0.33105196411E+02  0.74946463321E+02 -0.13656010924E+02  0.11524605008E+03  0.79888916818E+02 0.  0.
          5    1    3    3  501    0  0.25000036749E+02 -0.58637792864E+02 -0.40575099584E+02  0.75708792724E+02  0.47000000000E+01 0. -1.
        -13    1    4    4    0    0  0.24062150627E+02 -0.78332226802E+02 -0.15195786274E+03  0.17264448123E+03  0.00000000000E+00 0.  1.
         14    1    4    4    0    0 -0.43041373655E+01 -0.86783722773E+02 -0.40410434654E+03  0.41334037188E+03  0.00000000000E+00 0. -1.
         -5    1    5    5    0  502 -0.11652853600E+02  0.14880727912E+03 -0.16115585678E+03  0.21971048106E+03  0.47000000000E+01 0.  1.
         13    1    6    6    0    0 -0.25500829008E+02  0.65083970444E+01 -0.34415810323E+02  0.43325506487E+02  0.00000000000E+00 0. -1.
        -14    1    6    6    0    0 -0.76043674028E+01  0.68438066276E+02  0.20759799399E+02  0.71920543590E+02  0.00000000000E+00 0.  1.
</event>
<event>
12    1  0.8271773E-002  0.1993160E+03  0.7818608E-02  0.1150438E+00
         21   -1    0    0  501  502  0.00000000000E+00  0.00000000000E+00  0.69944611112E+03  0.69944611112E+03  0.00000000000E+00 0.  1.
         21   -1    0    0  502  503 -0.00000000000E+00 -0.00000000000E+00 -0.59236780526E+02  0.59236780526E+02  0.00000000000E+00 0.  1.
         -6    2    1    2    0  503 -0.98850225951E+01  0.99911903988E+02  0.24106127662E+03  0.31278968573E+03  0.17218230507E+03 0.  0.
        -24    2    3    3    0    0  0.27478062923E+02  0.34643726583E+02  0.46442778372E+02  0.10409281224E+03  0.81994817909E+02 0.  0.
          6    2    1    2  501    0  0.98850225951E+01 -0.99911903988E+02  0.39914805397E+03  0.44589320592E+03  0.17152690712E+03 0.  0.
         24    2    5    5    0    0 -0.18959446800E+02 -0.82861270286E+02  0.39498465781E+03  0.41180286429E+03  0.79644638243E+02 0.  0.
          5    1    5    5  501    0  0.28844469395E+02 -0.17050633702E+02  0.41633961602E+01  0.34090341622E+02  0.47000000000E+01 0. -1.
        -13    1    6    6    0    0  0.25006382003E+02 -0.66177377495E+01  0.57857153752E+02  0.63376366526E+02  0.00000000000E+00 0.  1.
         14    1    6    6    0    0 -0.43965828802E+02 -0.76243532537E+02  0.33712750406E+03  0.34842649777E+03  0.00000000000E+00 0. -1.
         -5    1    3    3    0  503 -0.37363085518E+02  0.65268177405E+02  0.19461849825E+03  0.20869687349E+03  0.47000000000E+01 0.  1.
         13    1    4    4    0    0  0.29318320348E+02  0.33721031576E+02  0.68583944363E+02  0.81856150062E+02  0.00000000000E+00 0. -1.
        -14    1    4    4    0    0 -0.18402574251E+01  0.92269500778E+00 -0.22141165991E+02  0.22236662180E+02  0.00000000000E+00 0.  1.
</event>
<event>
12    1  0.8271773E-002  0.1879201E+03  0.7818608E-02  0.1160563E+00
         21   -1    0    0  503  502  0.00000000000E+00  0.00000000000E+00  0.39106510381E+02  0.39106510381E+02  0.00000000000E+00 0. -1.
         21   -1    0    0  501  503 -0.00000000000E+00 -0.00000000000E+00 -0.90145926359E+03  0.90145926359E+03  0.00000000000E+00 0.  1.
          6    2    1    2  501    0  0.69840263579E+02  0.25492964490E+02 -0.45880140570E+03  0.49579501122E+03  0.17258739707E+03 0.  0.
         24    2    3    3    0    0  0.10478140846E+03  0.49303110125E+02 -0.29996641400E+03  0.33136128224E+03  0.80065658131E+02 0.  0.
         -6    2    1    2    0  502 -0.69840263579E+02 -0.25492964490E+02 -0.40355134751E+03  0.44477076275E+03  0.17158026595E+03 0.  0.
        -24    2    5    5    0    0 -0.75155860496E+02 -0.27916740826E+02 -0.13329798154E+03  0.17441340279E+03  0.78891922314E+02 0.  0.
          5    1    3    3  501    0 -0.34941144876E+02 -0.23810145635E+02 -0.15883499169E+03  0.16443372898E+03  0.47000000000E+01 0. -1.
        -11    1    4    4    0    0 -0.44809129708E+01  0.23717588974E+02 -0.91268255895E+02  0.94406022806E+02  0.00000000000E+00 0.  1.
         12    1    4    4    0    0  0.10926232143E+03  0.25585521151E+02 -0.20869815811E+03  0.23695525943E+03  0.00000000000E+00 0. -1.
         -5    1    5    5    0  502  0.53155969168E+01  0.24237763367E+01 -0.27025336597E+03  0.27035735996E+03  0.47000000000E+01 0.  1.
         13    1    6    6    0    0  0.77908619367E+01  0.14648627623E+02 -0.36102872469E+02  0.39732822974E+02  0.00000000000E+00 0. -1.
        -14    1    6    6    0    0 -0.82946722433E+02 -0.42565368449E+02 -0.97195109069E+02  0.13468057982E+03  0.00000000000E+00 0.  1.
</event>
<event>
12    1  0.8271773E-002  0.1828769E+03  0.7818608E-02  0.1166195E+00
         21   -1    0    0  501  502  0.00000000000E+00  0.00000000000E+00  0.20749862194E+03  0.20749862194E+03  0.00000000000E+00 0.  1.
         21   -1    0    0  502  503 -0.00000000000E+00 -0.00000000000E+00 -0.16246724702E+03  0.16246724702E+03  0.00000000000E+00 0.  1.
         -6    2    1    2    0  503  0.75162201670E+01 -0.55655053441E+02  0.56740089957E+02  0.19147691250E+03  0.17404020132E+03 0.  0.
        -24    2    3    3    0    0  0.30264608023E+02  0.19505231513E+02 -0.10384735888E+02  0.88063229514E+02  0.79692465753E+02 0.  0.
          6    2    1    2  501    0 -0.75162201670E+01  0.55655053441E+02 -0.11708715033E+02  0.17848895646E+03  0.16901844583E+03 0.  0.
         24    2    5    5    0    0  0.11488243926E+02  0.41948242241E+02 -0.70009946339E+02  0.11547967222E+03  0.80885890818E+02 0.  0.
          5    1    5    5  501    0 -0.19004464093E+02  0.13706811200E+02  0.58301231305E+02  0.63009284240E+02  0.47000000000E+01 0. -1.
        -11    1    6    6    0    0  0.41667210384E+02  0.27239854363E+01 -0.38592672209E+02  0.56859219711E+02  0.00000000000E+00 0.  1.
         12    1    6    6    0    0 -0.30178966458E+02  0.39224256805E+02 -0.31417274129E+02  0.58620452507E+02  0.00000000000E+00 0. -1.
         -5    1    3    3    0  503 -0.22748387856E+02 -0.75160284954E+02  0.67124825846E+02  0.10341368299E+03  0.47000000000E+01 0.  1.
         11    1    4    4    0    0  0.35102316315E+02 -0.75218507250E+01 -0.35764098094E+02  0.50673677205E+02  0.00000000000E+00 0. -1.
        -12    1    4    4    0    0 -0.48377082915E+01  0.27027082238E+02  0.25379362206E+02  0.37389552309E+02  0.00000000000E+00 0.  1.
</event>
<event>
12    1  0.8271773E-002  0.1983472E+03  0.7818608E-02  0.1151476E+00
         21   -1    0    0  501  502  0.00000000000E+00  0.00000000000E+00  0.15403806858E+04  0.15403806858E+04  0.00000000000E+00 0. -1.
         21   -1    0    0  502  503 -0.00000000000E+00 -0.00000000000E+00 -0.10830563230E+03  0.10830563230E+03  0.00000000000E+00 0. -1.
         -6    2    1    2    0  503  0.29038361530E+02  0.89676264847E+02 -0.47940921698E+01  0.19840511152E+03  0.17451803930E+03 0.  0.
        -24    2    3    3    0    0  0.36105492734E+02  0.11903384324E+03 -0.39111808962E+02  0.15245288156E+03  0.78990411159E+02 0.  0.
          6    2    1    2  501    0 -0.29038361530E+02 -0.89676264847E+02  0.14368691457E+04  0.14502812066E+04  0.17273557090E+03 0.  0.
         24    2    5    5    0    0 -0.58638670054E+02  0.27547679044E+01  0.71950422358E+03  0.72636533057E+03  0.80462310077E+02 0.  0.
          5    1    5    5  501    0  0.29600308523E+02 -0.92431032752E+02  0.71736492212E+03  0.72391587603E+03  0.47000000000E+01 0. -1.
        -13    1    6    6    0    0 -0.76000745923E+01  0.32848982071E+02  0.39963771392E+03  0.40105750105E+03  0.00000000000E+00 0.  1.
         14    1    6    6    0    0 -0.51038595461E+02 -0.30094214166E+02  0.31986650965E+03  0.32530782952E+03  0.00000000000E+00 0. -1.
         -5    1    3    3    0  503 -0.70671312035E+01 -0.29357578390E+02  0.34317716792E+02  0.45952229959E+02  0.47000000000E+01 0.  1.
         13    1    4    4    0    0  0.89954516986E+01  0.98944684124E+01 -0.37685628575E+02  0.39987813863E+02  0.00000000000E+00 0. -1.
        -14    1    4    4    0    0  0.27110041035E+02  0.10913937483E+03 -0.14261803866E+01  0.11246506770E+03  0.00000000000E+00 0.  1.
</event>
<event>
12    1  0.8271773E-002  0.2368079E+03  0.7818608E-02  0.1122059E+00
         21   -1    0    0  501  502  0.00000000000E+00  0.00000000000E+00  0.54731799338E+03  0.54731799338E+03  0.00000000000E+00 0. -1.
         21   -1    0    0  502  503 -0.00000000000E+00 -0.00000000000E+00 -0.13663401123E+03  0.13663401123E+03  0.00000000000E+00 0. -1.
         -6    2    1    2    0  503 -0.75039646435E+02 -0.14466604660E+03  0.33773997270E+02  0.23920420739E+03  0.17181023358E+03 0.  0.
        -24    2    3    3    0    0 -0.87569521290E+02 -0.16595163720E+03  0.48196487978E+02  0.21021848039E+03  0.81612138167E+02 0.  0.
          6    2    1    2  501    0  0.75039646435E+02  0.14466604660E+03  0.37690998487E+03  0.44474779722E+03  0.17082228445E+03 0.  0.
         24    2    5    5    0    0 -0.20349887338E+02  0.50187003603E+02  0.20663332227E+03  0.22785684641E+03  0.79300437186E+02 0.  0.
          5    1    5    5  501    0  0.95389533773E+02  0.94479042995E+02  0.17027666261E+03  0.21689095082E+03  0.47000000000E+01 0. -1.
        -11    1    6    6    0    0  0.18110719612E+02  0.49781191599E+02  0.15259208492E+03  0.16152556943E+03  0.00000000000E+00 0.  1.
         12    1    6    6    0    0 -0.38460606950E+02  0.40581200353E+00  0.54041237350E+02  0.66331276971E+02  0.00000000000E+00 0. -1.
         -5    1    3    3    0  503  0.12529874855E+02  0.21285590602E+02 -0.14422490708E+02  0.28985726994E+02  0.47000000000E+01 0.  1.
         11    1    4    4    0    0 -0.68471824154E+02 -0.11016597997E+03 -0.63875319101E+01  0.12986814240E+03  0.00000000000E+00 0. -1.
        -12    1    4    4    0    0 -0.19097697136E+02 -0.55785657226E+02  0.54584019888E+02  0.80350337991E+02  0.00000000000E+00 0.  1.
</event>
<event>
12    1  0.8271773E-002  0.2947432E+03  0.7818608E-02  0.1087962E+00
         21   -1    0    0  503  502  0.00000000000E+00  0.00000000000E+00  0.47715628049E+03  0.47715628049E+03  0.00000000000E+00 0. -1.
         21   -1    0    0  501  503 -0.00000000000E+00 -0.00000000000E+00 -0.20464594601E+03  0.20464594601E+03  0.00000000000E+00 0.  1.
          6    2    1    2  501    0 -0.34367666207E+02  0.23499963712E+03  0.22348267512E+02  0.29558926850E+03  0.17454971974E+03 0.  0.
         24    2    3    3    0    0 -0.25447193202E+02  0.78060362434E+02  0.67383033355E+02  0.13200525060E+03  0.78383245506E+02 0.  0.
         -6    2    1    2    0  502  0.34367666207E+02 -0.23499963712E+03  0.25016206696E+03  0.38621295800E+03  0.17370498914E+03 0.  0.
        -24    2    5    5    0    0 -0.27234927815E+02 -0.74635426737E+02  0.50921368696E+02  0.12309605355E+03  0.79040903282E+02 0.  0.
          5    1    3    3  501    0 -0.89204730051E+01  0.15693927469E+03 -0.45034765843E+02  0.16358401790E+03  0.47000000000E+01 0. -1.
        -13    1    4    4    0    0  0.24179158189E+02  0.31287256479E+02  0.55071309811E+01  0.39923083553E+02  0.00000000000E+00 0.  1.
         14    1    4    4    0    0 -0.49626351391E+02  0.46773105955E+02  0.61875902374E+02  0.92082167045E+02  0.00000000000E+00 0. -1.
         -5    1    5    5    0  502  0.61602594022E+02 -0.16036421038E+03  0.19924069827E+03  0.26311690445E+03  0.47000000000E+01 0.  1.
         11    1    6    6    0    0  0.20379279518E+02 -0.55048763298E+02  0.38288382192E+02  0.70083390224E+02  0.00000000000E+00 0. -1.
        -12    1    6    6    0    0 -0.47614207333E+02 -0.19586663439E+02  0.12632986503E+02  0.53012663323E+02  0.00000000000E+00 0.  1.
</event>
<event>
12    1  0.8271773E-002  0.1756911E+03  0.7818608E-02  0.1172451E+00
         21   -1    0    0  501  502  0.00000000000E+00  0.00000000000E+00  0.17390779775E+03  0.17390779775E+03  0.00000000000E+00 0. -1.
         21   -1    0    0  502  503 -0.00000000000E+00 -0.00000000000E+00 -0.30534601608E+03  0.30534601608E+03  0.00000000000E+00 0. -1.
         -6    2    1    2    0  503 -0.27876750382E+02 -0.20863059842E+02 -0.22159873854E+03  0.28177906580E+03  0.17053169947E+03 0.  0.
        -24    2    3    3    0    0  0.50176404003E+01  0.38444675698E+01 -0.22657647662E+03  0.24007330203E+03  0.79109632428E+02 0.  0.
          6    2    1    2  501    0  0.27876750382E+02  0.20863059842E+02  0.90160520214E+02  0.19747474803E+03  0.17220620264E+03 0.  0.
         24    2    5    5    0    0  0.60287811464E+02  0.18606489583E+02  0.11746191844E+03  0.15477784727E+03  0.78600623755E+02 0.  0.
          5    1    5    5  501    0 -0.32411061083E+02  0.22565702585E+01 -0.27301398226E+02  0.42696900765E+02  0.47000000000E+01 0. -1.
        -11    1    6    6    0    0  0.62223361398E+02 -0.43027659973E+01  0.40288118212E+02  0.74252225341E+02  0.00000000000E+00 0.  1.
         12    1    6    6    0    0 -0.19355499342E+01  0.22909255580E+02  0.77173800227E+02  0.80525621925E+02  0.00000000000E+00 0. -1.
         -5    1    3    3    0  503 -0.32894390782E+02 -0.24707527412E+02  0.49777380792E+01  0.41705763775E+02  0.47000000000E+01 0.  1.
         11    1    4    4    0    0 -0.27032630336E+02 -0.18759187254E+02 -0.15502258747E+03  0.15847609547E+03  0.00000000000E+00 0. -1.
        -12    1    4    4    0    0  0.32050270736E+02  0.22603654824E+02 -0.71553889153E+02  0.81597206561E+02  0.00000000000E+00 0.  1.
</event>
<event>
12    1  0.8271773E-002  0.1963583E+03  0.7818608E-02  0.1153006E+00
         21   -1    0    0  503  502  0.00000000000E+00  0.00000000000E+00  0.63187302890E+03  0.63187302890E+03  0.00000000000E+00 0.  1.
         21   -1    0    0  501  503 -0.00000000000E+00 -0.00000000000E+00 -0.87320185338E+02  0.87320185338E+02  0.00000000000E+00 0.  1.
          6    2    1    2  501    0 -0.83969458260E+02  0.42490000114E+02  0.74430928477E+02  0.20999180462E+03  0.17233782192E+03 0.  0.
         24    2    3    3    0    0 -0.11656103766E+03  0.59166146637E+02  0.39101528298E+02  0.15889815113E+03  0.81440680923E+02 0.  0.
         -6    2    1    2    0  502  0.83969458260E+02 -0.42490000114E+02  0.47012191508E+03  0.50920140961E+03  0.17150857261E+03 0.  0.
        -24    2    5    5    0    0  0.73421926296E+02 -0.82670637240E+02  0.41609679470E+03  0.44088934873E+03  0.94982428557E+02 0.  0.
          5    1    3    3  501    0  0.32591579398E+02 -0.16676146523E+02  0.35329400179E+02  0.51093653496E+02  0.47000000000E+01 0. -1.
        -11    1    4    4    0    0 -0.19762696109E+02  0.81904789486E+01 -0.24362884671E+02  0.32422187656E+02  0.00000000000E+00 0.  1.
         12    1    4    4    0    0 -0.96798341549E+02  0.50975667688E+02  0.63464412969E+02  0.12647596347E+03  0.00000000000E+00 0. -1.
         -5    1    5    5    0  502  0.10547531964E+02  0.40180637126E+02  0.54025120379E+02  0.68312060885E+02  0.47000000000E+01 0.  1.
         13    1    6    6    0    0 -0.13133919802E+02  0.34373992774E+01  0.10070227017E+02  0.16903403070E+02  0.00000000000E+00 0. -1.
        -14    1    6    6    0    0  0.86555846098E+02 -0.86108036517E+02  0.40602656769E+03  0.42398594566E+03  0.00000000000E+00 0.  1.
</event>
<event>
12    1  0.8271773E-002  0.1957458E+03  0.7818608E-02  0.1153468E+00
         21   -1    0    0  501  502  0.00000000000E+00  0.00000000000E+00  0.22449927375E+03  0.22449927375E+03  0.00000000000E+00 0. -1.
         21   -1    0    0  502  503 -0.00000000000E+00 -0.00000000000E+00 -0.17159305192E+03  0.17159305192E+03  0.00000000000E+00 0. -1.
         -6    2    1    2    0  503 -0.74393208926E+02 -0.55247260688E+02  0.43570468228E+02  0.20053633457E+03  0.17242339294E+03 0.  0.
        -24    2    3    3    0    0 -0.30718045757E+02  0.19339812321E+02 -0.23762572717E+02  0.90870570813E+02  0.79844687375E+02 0.  0.
          6    2    1    2  501    0  0.74393208926E+02  0.55247260688E+02  0.93357536095E+01  0.19555599110E+03  0.17195458706E+03 0.  0.
         24    2    5    5    0    0 -0.20483306973E+01  0.21120565042E+02  0.55762591636E+02  0.99715072776E+02  0.79895902188E+02 0.  0.
          5    1    5    5  501    0  0.76441539623E+02  0.34126695646E+02 -0.46426838026E+02  0.95840918322E+02  0.47000000000E+01 0. -1.
        -13    1    6    6    0    0 -0.37796946715E+02 -0.38904641497E+01  0.18140692919E+02  0.42104983456E+02  0.00000000000E+00 0.  1.
         14    1    6    6    0    0  0.35748616018E+02  0.25011029192E+02  0.37621898717E+02  0.57610089320E+02  0.00000000000E+00 0. -1.
         -5    1    3    3    0  503 -0.43675163169E+02 -0.74587073009E+02  0.67333040946E+02  0.10966576376E+03  0.47000000000E+01 0.  1.
         11    1    4    4    0    0 -0.24038246945E+02 -0.88696948832E+01 -0.47124100710E+02  0.53639441377E+02  0.00000000000E+00 0. -1.
        -12    1    4    4    0    0 -0.66797988120E+01  0.28209507204E+02  0.23361527993E+02  0.37231129436E+02  0.00000000000E+00 0.  1.
</event>
<event>
12    1  0.8271773E-002  0.5045388E+03  0.7818608E-02  0.1012725E+00
         21   -1    0    0  503  502  0.00000000000E+00  0.00000000000E+00  0.11624911422E+04  0.11624911422E+04  0.00000000000E+00 0.  1.
         21   -1    0    0  501  503 -0.00000000000E+00 -0.00000000000E+00 -0.25467631972E+03  0.25467631972E+03  0.00000000000E+00 0. -1.
          6    2    1    2  501    0 -0.44970122896E+03 -0.14440668588E+03  0.18627982650E+03  0.53782858867E+03  0.17741175492E+03 0.  0.
         24    2    3    3    0    0 -0.42083349398E+03 -0.83738571817E+02  0.17023970425E+03  0.46859462513E+03  0.80538113548E+02 0.  0.
         -6    2    1    2    0  502  0.44970122896E+03  0.14440668588E+03  0.72153499597E+03  0.87933887323E+03  0.17187093213E+03 0.  0.
        -24    2    5    5    0    0  0.22310301751E+03  0.76689394493E+02  0.23893376268E+03  0.34188336683E+03  0.64332526124E+02 0.  0.
          5    1    3    3  501    0 -0.28867734981E+02 -0.60668114060E+02  0.16040122252E+02  0.69233963546E+02  0.47000000000E+01 0. -1.
        -13    1    4    4    0    0 -0.26646027749E+02 -0.16929183286E+02 -0.51864523562E+01  0.31992301099E+02  0.00000000000E+00 0.  1.
         14    1    4    4    0    0 -0.39418746623E+03 -0.66809388530E+02  0.17542615660E+03  0.43660232403E+03  0.00000000000E+00 0. -1.
         -5    1    5    5    0  502  0.22659821145E+03  0.67717291383E+02  0.48260123330E+03  0.53745550640E+03  0.47000000000E+01 0.  1.
         13    1    6    6    0    0 -0.58883093213E+00 -0.85671802214E+00  0.18087108219E+02  0.18116958116E+02  0.00000000000E+00 0. -1.
        -14    1    6    6    0    0  0.22369184844E+03  0.77546112515E+02  0.22084665446E+03  0.32376640871E+03  0.00000000000E+00 0.  1.
</event>
<event>
12    1  0.8271773E-002  0.1779134E+03  0.7818608E-02  0.1170890E+00
         21   -1    0    0  501  502  0.00000000000E+00  0.00000000000E+00  0.31034760628E+03  0.31034760628E+03  0.00000000000E+00 0.  1.
         21   -1    0    0  502  503 -0.00000000000E+00 -0.00000000000E+00 -0.11653450765E+03  0.11653450765E+03  0.00000000000E+00 0.  1.
         -6    2    1    2    0  503 -0.22400218351E+02 -0.22618276669E+00  0.14512344783E+02  0.17429165383E+03  0.17223574397E+03 0.  0.
        -24    2    3    3    0    0  0.17004574853E+02  0.18699800489E+02 -0.48250637667E+02  0.97661290815E+02  0.81060258969E+02 0.  0.
          6    2    1    2  501    0  0.22400218351E+02  0.22618276669E+00  0.17930075385E+03  0.25259046011E+03  0.17649747666E+03 0.  0.
         24    2    5    5    0    0 -0.38456346918E+02 -0.37854190094E+02  0.13822095478E+03  0.16974556753E+03  0.82442070765E+02 0.  0.
          5    1    5    5  501    0  0.60856565270E+02  0.38080372861E+02  0.41079799070E+02  0.82844892572E+02  0.47000000000E+01 0. -1.
        -13    1    6    6    0    0 -0.12432393329E+02 -0.61653732475E+02  0.95484231837E+02  0.11433715783E+03  0.00000000000E+00 0.  1.
         14    1    6    6    0    0 -0.26023953590E+02  0.23799542380E+02  0.42736722941E+02  0.55408409702E+02  0.00000000000E+00 0. -1.
         -5    1    3    3    0  503 -0.39404793204E+02 -0.18925983256E+02  0.62762982450E+02  0.76630363014E+02  0.47000000000E+01 0.  1.
         11    1    4    4    0    0 -0.22870588592E+02  0.12221074517E+02 -0.50954096623E+02  0.57172882099E+02  0.00000000000E+00 0. -1.
        -12    1    4    4    0    0  0.39875163445E+02  0.64787259728E+01  0.27034589561E+01  0.40488408716E+02  0.00000000000E+00 0.  1.
</event>
<event>
12    1  0.8271773E-002  0.1901732E+03  0.7818608E-02  0.1160222E+00
         21   -1    0    0  503  502  0.00000000000E+00  0.00000000000E+00  0.58520951450E+02  0.58520951450E+02  0.00000000000E+00 0.  1.
         21   -1    0    0  501  503 -0.00000000000E+00 -0.00000000000E+00 -0.61585120807E+03  0.61585120807E+03  0.00000000000E+00 0.  1.
          6    2    1    2  501    0 -0.40816420054E+02 -0.42994809029E+02 -0.34000765635E+03  0.38559029545E+03  0.17193061340E+03 0.  0.
         24    2    3    3    0    0 -0.58987855565E+02 -0.29501100186E+02 -0.99029224663E+02  0.14350564955E+03  0.80232176204E+02 0.  0.
         -6    2    1    2    0  502  0.40816420054E+02  0.42994809029E+02 -0.21732260027E+03  0.28878186407E+03  0.18069675889E+03 0.  0.
        -24    2    5    5    0    0 -0.21609725860E+02 -0.18570543654E+02 -0.46599526127E+02  0.96803286120E+02  0.79921930814E+02 0.  0.
          5    1    3    3  501    0  0.18171435511E+02 -0.13493708842E+02 -0.24097843168E+03  0.24208464591E+03  0.47000000000E+01 0. -1.
        -11    1    4    4    0    0 -0.63794709487E+02  0.75736719927E+01 -0.76339118084E+02  0.99773675966E+02  0.00000000000E+00 0.  1.
         12    1    4    4    0    0  0.48068539222E+01 -0.37074772179E+02 -0.22690106579E+02  0.43731973582E+02  0.00000000000E+00 0. -1.
         -5    1    5    5    0  502  0.62426145914E+02  0.61565352683E+02 -0.17072307415E+03  0.19197857795E+03  0.47000000000E+01 0.  1.
         11    1    6    6    0    0 -0.30716671216E+02  0.25446678320E+02 -0.21108795915E+02  0.45129021628E+02  0.00000000000E+00 0. -1.
        -12    1    6    6    0    0  0.91069453564E+01 -0.44017221974E+02 -0.25490730212E+02  0.51674264492E+02  0.00000000000E+00 0.  1.
</event>
<event>
12    1  0.8271773E-002  0.1887412E+03  0.7818608E-02  0.1162181E+00
         21   -1    0    0  501  502  0.00000000000E+00  0.00000000000E+00  0.61515915897E+03  0.61515915897E+03  0.00000000000E+00 0. -1.
         21   -1    0    0  502  503 -0.00000000000E+00 -0.00000000000E+00 -0.55738038368E+02  0.55738038368E+02  0.00000000000E+00 0.  1.
         -6    2    1    2    0  503 -0.42709214310E+02 -0.43778570475E+01  0.23977404699E+03  0.30514725422E+03  0.18379339088E+03 0.  0.
        -24    2    3    3    0    0 -0.91762845484E+02  0.14302348192E+00  0.22043418144E+03  0.25201706044E+03  0.80628345736E+02 0.  0.
          6    2    1    2  501    0  0.42709214310E+02  0.43778570475E+01  0.31964707361E+03  0.36574994312E+03  0.17249790318E+03 0.  0.
         24    2    5    5    0    0  0.97636041299E+01  0.52543608368E+02  0.97793151687E+02  0.13630146196E+03  0.78475660368E+02 0.  0.
          5    1    5    5  501    0  0.32945610180E+02 -0.48165751320E+02  0.22185392192E+03  0.22944848115E+03  0.47000000000E+01 0. -1.
        -13    1    6    6    0    0  0.20068096256E+02  0.30135656953E+02  0.79298846875E+00  0.36214846928E+02  0.00000000000E+00 0.  1.
         14    1    6    6    0    0 -0.10304492126E+02  0.22407951415E+02  0.97000163219E+02  0.10008661503E+03  0.00000000000E+00 0. -1.
         -5    1    3    3    0  503  0.49053631174E+02 -0.45208805294E+01  0.19339865546E+02  0.53130193784E+02  0.47000000000E+01 0.  1.
         13    1    4    4    0    0 -0.42425120285E+02  0.17164173984E+02  0.30390566763E+02  0.54937111755E+02  0.00000000000E+00 0. -1.
        -14    1    4    4    0    0 -0.49337725199E+02 -0.17021150503E+02  0.19004361468E+03  0.19707994868E+03  0.00000000000E+00 0.  1.
</event>
<event>
12    1  0.8271773E-002  0.2562891E+03  0.7818608E-02  0.1109634E+00
         21   -1    0    0  501  502  0.00000000000E+00  0.00000000000E+00  0.14142222469E+03  0.14142222469E+03  0.00000000000E+00 0. -1.
         21   -1    0    0  502  503 -0.00000000000E+00 -0.00000000000E+00 -0.14672029554E+04  0.14672029554E+04  0.00000000000E+00 0.  1.
         -6    2    1    2    0  503 -0.39120944596E+02 -0.18499575429E+03 -0.13281191611E+04  0.13523254016E+04  0.17067398217E+03 0.  0.
        -24    2    3    3    0    0  0.36172715798E+02 -0.13767257849E+03 -0.76786333796E+03  0.78503597311E+03  0.80032300056E+02 0.  0.
          6    2    1    2  501    0  0.39120944596E+02  0.18499575429E+03  0.23384303884E+01  0.25629977854E+03  0.17300355722E+03 0.  0.
         24    2    5    5    0    0  0.23041864790E+02  0.90051970821E+02  0.68089419479E+02  0.13960298598E+03  0.78819665492E+02 0.  0.
          5    1    5    5  501    0  0.16079079806E+02  0.94943783473E+02 -0.65750989091E+02  0.11669679256E+03  0.47000000000E+01 0. -1.
        -13    1    6    6    0    0 -0.39493176862E+01  0.57512035367E+02 -0.20761692397E+01  0.57684848972E+02  0.00000000000E+00 0.  1.
         14    1    6    6    0    0  0.26991182476E+02  0.32539935454E+02  0.70165588719E+02  0.81918137009E+02  0.00000000000E+00 0. -1.
         -5    1    3    3    0  503 -0.75293660394E+02 -0.47323175799E+02 -0.56025582317E+03  0.56728942847E+03  0.47000000000E+01 0.  1.
         13    1    4    4    0    0  0.24579781420E+02 -0.36508044434E+02 -0.97370870295E+02  0.10685546006E+03  0.00000000000E+00 0. -1.
        -14    1    4    4    0    0  0.11592934378E+02 -0.10116453406E+03 -0.67049246767E+03  0.67818051305E+03  0.00000000000E+00 0.  1.
</event>
<event>
12    1  0.8271773E-002  0.2795546E+03  0.7818608E-02  0.1095993E+00
         21   -1    0    0  501  502  0.00000000000E+00  0.00000000000E+00  0.29849168501E+03  0.29849168501E+03  0.00000000000E+00 0. -1.
         21   -1    0    0  502  503 -0.00000000000E+00 -0.00000000000E+00 -0.51254278770E+03  0.51254278770E+03  0.00000000000E+00 0.  1.
         -6    2    1    2    0  503 -0.19701396896E+03 -0.98407432511E+02 -0.39092736437E+03  0.48059855985E+03  0.17219827172E+03 0.  0.
        -24    2    3    3    0    0 -0.14000865255E+03 -0.32331454815E+02 -0.14077481456E+03  0.21561926047E+03  0.77629706362E+02 0.  0.
          6    2    1    2  501    0  0.19701396896E+03  0.98407432511E+02  0.17687626168E+03  0.33043591285E+03  0.17147639435E+03 0.  0.
         24    2    5    5    0    0  0.39295119263E+02  0.60130223107E+01  0.27813564008E+02  0.94525462848E+02  0.81124632194E+02 0.  0.
          5    1    5    5  501    0  0.15771884969E+03  0.92394410201E+02  0.14906269767E+03  0.23591045001E+03  0.47000000000E+01 0. -1.
        -11    1    6    6    0    0  0.28619844469E+02  0.24239710286E+02 -0.19818653305E+02  0.42419783958E+02  0.00000000000E+00 0.  1.
         12    1    6    6    0    0  0.10675274794E+02 -0.18226687975E+02  0.47632217313E+02  0.52105678890E+02  0.00000000000E+00 0. -1.
         -5    1    3    3    0  503 -0.57005316404E+02 -0.66075977696E+02 -0.25015254981E+03  0.26497929939E+03  0.47000000000E+01 0.  1.
         11    1    4    4    0    0 -0.31667286485E+02 -0.25590701779E+02 -0.38651551705E+01  0.40897927519E+02  0.00000000000E+00 0. -1.
        -12    1    4    4    0    0 -0.10834136607E+03 -0.67407530361E+01 -0.13690965939E+03  0.17472133295E+03  0.00000000000E+00 0.  1.
</event>
<event>
12    1  0.8271773E-002  0.1783649E+03  0.7818608E-02  0.1171454E+00
         21   -1    0    0  503  502  0.00000000000E+00  0.00000000000E+00  0.52958411459E+03  0.52958411459E+03  0.00000000000E+00 0. -1.
         21   -1    0    0  501  503 -0.00000000000E+00 -0.00000000000E+00 -0.13305312762E+03  0.13305312762E+03  0.00000000000E+00 0. -1.
          6    2    1    2  501    0 -0.56682367057E+01  0.11289625547E+01 -0.49618204156E+02  0.18513783149E+03  0.17827127362E+03 0.  0.
         24    2    3    3    0    0 -0.71543283431E+02 -0.18660069065E+02 -0.14777897910E+02  0.10789105490E+03  0.77171587253E+02 0.  0.
         -6    2    1    2    0  502  0.56682367057E+01 -0.11289625547E+01  0.44614919113E+03  0.47749941072E+03  0.17006817173E+03 0.  0.
        -24    2    5    5    0    0  0.50863951925E+01 -0.15543727492E+02  0.45337359304E+03  0.46069447185E+03  0.80151747611E+02 0.  0.
          5    1    3    3  501    0  0.65875046725E+02  0.19789031620E+02 -0.34840306246E+02  0.77246776585E+02  0.47000000000E+01 0. -1.
        -11    1    4    4    0    0 -0.54280811344E+02 -0.47643026886E+02 -0.16602554902E+02  0.74107417444E+02  0.00000000000E+00 0.  1.
         12    1    4    4    0    0 -0.17262472087E+02  0.28982957821E+02  0.18246569915E+01  0.33783637455E+02  0.00000000000E+00 0. -1.
         -5    1    5    5    0  502  0.58184151316E+00  0.14414764938E+02 -0.72244019106E+01  0.16804938879E+02  0.47000000000E+01 0.  1.
         11    1    6    6    0    0  0.35330485706E+02  0.12773014353E+02  0.27607163889E+03  0.27861612106E+03  0.00000000000E+00 0. -1.
        -12    1    6    6    0    0 -0.30244090514E+02 -0.28316741846E+02  0.17730195415E+03  0.18207835078E+03  0.00000000000E+00 0.  1.
</event>
<event>
12    1  0.8271773E-002  0.1758034E+03  0.7818608E-02  0.1176773E+00
         21   -1    0    0  501  502  0.00000000000E+00  0.00000000000E+00  0.57941035904E+02  0.57941035904E+02  0.00000000000E+00 0.  1.
         21   -1    0    0  502  503 -0.00000000000E+00 -0.00000000000E+00 -0.66915407069E+03  0.66915407069E+03  0.00000000000E+00 0.  1.
         -6    2    1    2    0  503 -0.25860523251E+02 -0.24612804843E+02 -0.51107044225E+03  0.54046260644E+03  0.17214027767E+03 0.  0.
        -24    2    3    3    0    0  0.13476274370E+02 -0.75981959052E+02 -0.23323837599E+03  0.25515764558E+03  0.68923261612E+02 0.  0.
          6    2    1    2  501    0  0.25860523251E+02  0.24612804843E+02 -0.10014259253E+03  0.18663250015E+03  0.15339033362E+03 0.  0.
         24    2    5    5    0    0  0.47638341590E+01  0.14315822497E+02 -0.12689878986E+03  0.15072870883E+03  0.79926240420E+02 0.  0.
          5    1    5    5  501    0  0.21096689092E+02  0.10296982346E+02  0.26756197323E+02  0.35903791321E+02  0.47000000000E+01 0. -1.
        -11    1    6    6    0    0  0.19771406675E+02 -0.26444623128E+02 -0.30301878167E+02  0.44815515558E+02  0.00000000000E+00 0.  1.
         12    1    6    6    0    0 -0.15007572515E+02  0.40760445625E+02 -0.96596911690E+02  0.10591319327E+03  0.00000000000E+00 0. -1.
         -5    1    3    3    0  503 -0.39336797621E+02  0.51369154209E+02 -0.27783206626E+03  0.28530496086E+03  0.47000000000E+01 0.  1.
         11    1    4    4    0    0  0.72314730237E+01 -0.84984508555E+02 -0.16199397604E+03  0.18307569246E+03  0.00000000000E+00 0. -1.
        -12    1    4    4    0    0  0.62448013464E+01  0.90025495026E+01 -0.71244399950E+02  0.72081953120E+02  0.00000000000E+00 0.  1.
</event>
<event>
12    1  0.8271773E-002  0.2705859E+03  0.7818608E-02  0.1101031E+00
         21   -1    0    0  501  502  0.00000000000E+00  0.00000000000E+00  0.36192847979E+03  0.36192847979E+03  0.00000000000E+00 0. -1.
         21   -1    0    0  502  503 -0.00000000000E+00 -0.00000000000E+00 -0.23128733743E+03  0.23128733743E+03  0.00000000000E+00 0.  1.
         -6    2    1    2    0  503  0.94357299853E+02 -0.18586139548E+03  0.17121229614E+03  0.32020369063E+03  0.17253693742E+03 0.  0.
        -24    2    3    3    0    0  0.17872065456E+02 -0.17363905968E+03  0.13399833241E+03  0.23414356240E+03  0.79985754706E+02 0.  0.
          6    2    1    2  501    0 -0.94357299853E+02  0.18586139548E+03 -0.40571153783E+02  0.27301212660E+03  0.17158625931E+03 0.  0.
         24    2    5    5    0    0 -0.81472561133E+02  0.85681777965E+02 -0.80166616019E+02  0.16442178224E+03  0.81416772590E+02 0.  0.
          5    1    5    5  501    0 -0.12884738721E+02  0.10017961752E+03  0.39595462236E+02  0.10859034436E+03  0.47000000000E+01 0. -1.
        -13    1    6    6    0    0 -0.31457281533E+02  0.61085556473E+01  0.10609263469E+02  0.33755466000E+02  0.00000000000E+00 0.  1.
         14    1    6    6    0    0 -0.50015279600E+02  0.79573222317E+02 -0.90775879487E+02  0.13066631624E+03  0.00000000000E+00 0. -1.
         -5    1    3    3    0  503  0.76485234397E+02 -0.12222335802E+02  0.37213963737E+02  0.86060128226E+02  0.47000000000E+01 0.  1.
         11    1    4    4    0    0  0.21602722468E+02 -0.23328479240E+02  0.56879787959E+02  0.65162917676E+02  0.00000000000E+00 0. -1.
        -12    1    4    4    0    0 -0.37306570127E+01 -0.15031058044E+03  0.77118544448E+02  0.16898064473E+03  0.00000000000E+00 0.  1.
</event>
<event>
12    1  0.8271773E-002  0.2306341E+03  0.7818608E-02  0.1126500E+00
         21   -1    0    0  501  502  0.00000000000E+00  0.00000000000E+00  0.74095018922E+03  0.74095018922E+03  0.00000000000E+00 0.  1.
         21   -1    0    0  502  503 -0.00000000000E+00 -0.00000000000E+00 -0.14965969017E+03  0.14965969017E+03  0.00000000000E+00 0.  1.
         -6    2    1    2    0  503 -0.10782691842E+03 -0.10760471959E+03 -0.26144114820E+02  0.23211119292E+03  0.17316659934E+03 0.  0.
        -24    2    3    3    0    0 -0.13327098908E+02  0.38503065352E+01 -0.28839155504E+02  0.85886051517E+02  0.79701195282E+02 0.  0.
          6    2    1    2  501    0  0.10782691842E+03  0.10760471959E+03  0.61743461387E+03  0.65849868646E+03  0.17084963463E+03 0.  0.
         24    2    5    5    0    0  0.42082277667E+02  0.13053044201E+03  0.40464397541E+03  0.43455697004E+03  0.79334097301E+02 0.  0.
          5    1    5    5  501    0  0.65744640750E+02 -0.22925722418E+02  0.21279063846E+03  0.22394171642E+03  0.47000000000E+01 0. -1.
        -11    1    6    6    0    0  0.40147872278E+02  0.60535067434E+02  0.11081846315E+03  0.13250312379E+03  0.00000000000E+00 0.  1.
         12    1    6    6    0    0  0.19344053894E+01  0.69995374571E+02  0.29382551226E+03  0.30205384626E+03  0.00000000000E+00 0. -1.
         -5    1    3    3    0  503 -0.94499819509E+02 -0.11145502612E+03  0.26950406848E+01  0.14622514141E+03  0.47000000000E+01 0.  1.
         11    1    4    4    0    0  0.33065962352E+02 -0.41086500665E+01 -0.16720757232E+02  0.37280324489E+02  0.00000000000E+00 0. -1.
        -12    1    4    4    0    0 -0.46393061260E+02  0.79589566016E+01 -0.12118398272E+02  0.48605727028E+02  0.00000000000E+00 0.  1.
</event>
<event>
12    1  0.8271773E-002  0.2775831E+03  0.7818608E-02  0.1097104E+00
         21   -1    0    0  503  502  0.00000000000E+00  0.00000000000E+00  0.90454034342E+02  0.90454034342E+02  0.00000000000E+00 0. -1.
         21   -1    0    0  501  503 -0.00000000000E+00 -0.00000000000E+00 -0.10071961605E+04  0.10071961605E+04  0.00000000000E+00 0.  1.
          6    2    1    2  501    0 -0.21671493999E+03 -0.18434216503E+02 -0.67482019070E+03  0.72944016591E+03  0.17145110179E+03 0.  0.
         24    2    3    3    0    0 -0.21428145280E+03  0.30446009726E+00 -0.46345421603E+03  0.51717918242E+03  0.82267020525E+02 0.  0.
         -6    2    1    2    0  502  0.21671493999E+03  0.18434216503E+02 -0.24192193547E+03  0.36821002895E+03  0.17247381542E+03 0.  0.
        -24    2    5    5    0    0  0.19879669472E+03 -0.34402748395E+02 -0.16149649476E+03  0.27021436636E+03  0.78936753398E+02 0.  0.
          5    1    3    3  501    0 -0.24334871904E+01 -0.18738676600E+02 -0.21136597467E+03  0.21226098348E+03  0.47000000000E+01 0. -1.
        -11    1    4    4    0    0 -0.15149759483E+03  0.20049130731E+02 -0.24253674616E+03  0.28666629052E+03  0.00000000000E+00 0.  1.
         12    1    4    4    0    0 -0.62783857970E+02 -0.19744670634E+02 -0.22091746987E+03  0.23051289191E+03  0.00000000000E+00 0. -1.
         -5    1    5    5    0  502  0.17918245264E+02  0.52836964898E+02 -0.80425440712E+02  0.97995662591E+02  0.47000000000E+01 0.  1.
         13    1    6    6    0    0  0.80504542197E+02 -0.30107456853E+02 -0.24939125098E+02  0.89495252573E+02  0.00000000000E+00 0. -1.
        -14    1    6    6    0    0  0.11829215253E+03 -0.42952915422E+01 -0.13655736966E+03  0.18071911379E+03  0.00000000000E+00 0.  1.
</event>
<event>
12    1  0.8271773E-002  0.2361223E+03  0.7818608E-02  0.1122461E+00
         21   -1    0    0  503  502  0.00000000000E+00  0.00000000000E+00  0.85043186013E+02  0.85043186013E+02  0.00000000000E+00 0. -1.
         21   -1    0    0  501  503 -0.00000000000E+00 -0.00000000000E+00 -0.67449615887E+03  0.67449615887E+03  0.00000000000E+00 0. -1.
          6    2    1    2  501    0  0.35063831633E+02 -0.15751049000E+03 -0.36007267551E+03  0.43058803904E+03  0.17237952594E+03 0.  0.
         24    2    3    3    0    0  0.49024425259E+02 -0.65451124526E+02 -0.29811961379E+03  0.31865012409E+03  0.77300410627E+02 0.  0.
         -6    2    1    2    0  502 -0.35063831633E+02  0.15751049000E+03 -0.22938029735E+03  0.32895130585E+03  0.17191455453E+03 0.  0.
        -24    2    5    5    0    0  0.42238295647E+01  0.51200845645E+02 -0.18277027091E+03  0.20631425856E+03  0.80754157930E+02 0.  0.
          5    1    3    3  501    0 -0.13960593626E+02 -0.92059365471E+02 -0.61953061719E+02  0.11193791494E+03  0.47000000000E+01 0. -1.
        -13    1    4    4    0    0  0.31412339455E+02  0.89255715363E+01 -0.56834051639E+02  0.65547771305E+02  0.00000000000E+00 0.  1.
         14    1    4    4    0    0  0.17612085805E+02 -0.74376696063E+02 -0.24128556215E+03  0.25310235279E+03  0.00000000000E+00 0. -1.
         -5    1    5    5    0  502 -0.39287661198E+02  0.10630964435E+03 -0.46610026437E+02  0.12263704729E+03  0.47000000000E+01 0.  1.
         13    1    6    6    0    0  0.61197049815E+01  0.68256486029E+02 -0.96526446642E+02  0.11837970086E+03  0.00000000000E+00 0. -1.
        -14    1    6    6    0    0 -0.18958754168E+01 -0.17055640384E+02 -0.86243824271E+02  0.87934557697E+02  0.00000000000E+00 0.  1.
</event>
<event>
12    1  0.8271773E-002  0.2025424E+03  0.7818608E-02  0.1147860E+00
         21   -1    0    0  501  502  0.00000000000E+00  0.00000000000E+00  0.21514291365E+03  0.21514291365E+03  0.00000000000E+00 0.  1.
         21   -1    0    0  502  503 -0.00000000000E+00 -0.00000000000E+00 -0.20740949324E+03  0.20740949324E+03  0.00000000000E+00 0.  1.
         -6    2    1    2    0  503 -0.92313940353E+02 -0.54385655562E+02 -0.58128866049E+02  0.20957053821E+03  0.17047340645E+03 0.  0.
        -24    2    3    3    0    0 -0.45090425583E+02 -0.41347673888E+02 -0.10037925547E+03  0.14470733817E+03  0.84388637724E+02 0.  0.
          6    2    1    2  501    0  0.92313940353E+02  0.54385655562E+02  0.65862286459E+02  0.21298186867E+03  0.17188301979E+03 0.  0.
         24    2    5    5    0    0  0.11493961709E+03  0.55473598739E+02  0.79943762145E+01  0.15066100616E+03  0.79664251649E+02 0.  0.
          5    1    5    5  501    0 -0.22625676740E+02 -0.10879431771E+01  0.57867910244E+02  0.62320862513E+02  0.47000000000E+01 0. -1.
        -11    1    6    6    0    0  0.51123508052E+02  0.68217791253E+02  0.75656664299E+01  0.85583406263E+02  0.00000000000E+00 0.  1.
         12    1    6    6    0    0  0.63816109041E+02 -0.12744192514E+02  0.42870978455E+00  0.65077599895E+02  0.00000000000E+00 0. -1.
         -5    1    3    3    0  503 -0.47223514770E+02 -0.13037981674E+02  0.42250389422E+02  0.64863200042E+02  0.47000000000E+01 0.  1.
         13    1    4    4    0    0  0.99484449576E+01  0.12113973987E+02 -0.51257764179E+02  0.53601103640E+02  0.00000000000E+00 0. -1.
        -14    1    4    4    0    0 -0.55038870541E+02 -0.53461647875E+02 -0.49121491292E+02  0.91106234533E+02  0.00000000000E+00 0.  1.
</event>
<event>
12    1  0.8271773E-002  0.2626578E+03  0.7818608E-02  0.1106183E+00
         21   -1    0    0  503  502  0.00000000000E+00  0.00000000000E+00  0.12092894454E+04  0.12092894454E+04  0.00000000000E+00 0. -1.
         21   -1    0    0  501  503 -0.00000000000E+00 -0.00000000000E+00 -0.60630053678E+02  0.60630053678E+02  0.00000000000E+00 0.  1.
          6    2    1    2  501    0 -0.46420086508E+02  0.19582255751E+03  0.40588286184E+03  0.48345633123E+03  0.16878337659E+03 0.  0.
         24    2    3    3    0    0 -0.91620506414E+02  0.11361324916E+03  0.22987357079E+03  0.28394991811E+03  0.80519624124E+02 0.  0.
         -6    2    1    2    0  502  0.46420086508E+02 -0.19582255751E+03  0.74277652991E+03  0.78646316788E+03  0.16219137641E+03 0.  0.
        -24    2    5    5    0    0  0.21388356189E+02 -0.17342202739E+03  0.71959584304E+03  0.74538025761E+03  0.85093417804E+02 0.  0.
          5    1    3    3  501    0  0.45200419906E+02  0.82209308345E+02  0.17600929105E+03  0.19950641312E+03  0.47000000000E+01 0. -1.
        -13    1    4    4    0    0 -0.12501714583E+02 -0.87673529511E+01  0.51562762200E+01  0.16116653801E+02  0.00000000000E+00 0.  1.
         14    1    4    4    0    0 -0.79118791831E+02  0.12238060211E+03  0.22471729457E+03  0.26783326431E+03  0.00000000000E+00 0. -1.
         -5    1    5    5    0  502  0.25031730318E+02 -0.22400530117E+02  0.23180686878E+02  0.41082910271E+02  0.47000000000E+01 0.  1.
         11    1    6    6    0    0  0.24625382760E+02 -0.14052479782E+03  0.41176818203E+03  0.43578281748E+03  0.00000000000E+00 0. -1.
        -12    1    6    6    0    0 -0.32370265703E+01 -0.32897229574E+02  0.30782766101E+03  0.30959744013E+03  0.00000000000E+00 0.  1.
</event>
<event>
12    1  0.8271773E-002  0.2165865E+03  0.7818608E-02  0.1136678E+00
         21   -1    0    0  501  502  0.00000000000E+00  0.00000000000E+00  0.35149623256E+03  0.35149623256E+03  0.00000000000E+00 0.  1.
         21   -1    0    0  502  503 -0.00000000000E+00 -0.00000000000E+00 -0.32519236127E+03  0.32519236127E+03  0.00000000000E+00 0.  1.
         -6    2    1    2    0  503  0.11833703294E+03 -0.56793648682E+02 -0.24712248221E+03  0.32860193237E+03  0.17228040181E+03 0.  0.
        -24    2    3    3    0    0  0.12201963583E+03 -0.87979945748E+02 -0.15270884695E+03  0.22899183644E+03  0.80548164698E+02 0.  0.
          6    2    1    2  501    0 -0.11833703294E+03  0.56793648682E+02  0.27342635350E+03  0.34808666146E+03  0.17080158430E+03 0.  0.
         24    2    5    5    0    0 -0.69245661051E+02  0.40687420257E+02  0.27376346364E+03  0.29620625060E+03  0.79632161385E+02 0.  0.
          5    1    5    5  501    0 -0.49091371894E+02  0.16106228425E+02 -0.33711013386E+00  0.51880410867E+02  0.47000000000E+01 0. -1.
        -11    1    6    6    0    0 -0.55405020508E+02  0.62320594537E+02  0.17053184128E+03  0.18982803189E+03  0.00000000000E+00 0.  1.
         12    1    6    6    0    0 -0.13840640543E+02 -0.21633174280E+02  0.10323162236E+03  0.10637821871E+03  0.00000000000E+00 0. -1.
         -5    1    3    3    0  503 -0.36826028867E+01  0.31186297066E+02 -0.94413635257E+02  0.99610095930E+02  0.47000000000E+01 0.  1.
         13    1    4    4    0    0  0.15300433567E+02 -0.57585785627E+02 -0.56942180698E+02  0.82417461234E+02  0.00000000000E+00 0. -1.
        -14    1    4    4    0    0  0.10671920226E+03 -0.30394160121E+02 -0.95766666256E+02  0.14657437521E+03  0.00000000000E+00 0.  1.
</event>
<event>
12    1  0.8271773E-002  0.1765900E+03  0.7818608E-02  0.1171185E+00
         21   -1    0    0  503  502  0.00000000000E+00  0.00000000000E+00  0.12532409802E+03  0.12532409802E+03  0.00000000000E+00 0.  1.
         21   -1    0    0  501  503 -0.00000000000E+00 -0.00000000000E+00 -0.15975352134E+04  0.15975352134E+04  0.00000000000E+00 0.  1.
          6    2    1    2  501    0  0.14999576896E+02  0.34354848757E+02 -0.15277308620E+04  0.15379029928E+04  0.17256530842E+03 0.  0.
         24    2    3    3    0    0  0.99097792740E+01  0.90219615895E+02 -0.10532556226E+04  0.10601000825E+04  0.78911315339E+02 0.  0.
         -6    2    1    2    0  502 -0.14999576896E+02 -0.34354848757E+02  0.55519746669E+02  0.18495631855E+03  0.17239824408E+03 0.  0.
        -24    2    5    5    0    0  0.27928316000E+02  0.24441470900E+02  0.68305120212E+02  0.11089305526E+03  0.79084157216E+02 0.  0.
          5    1    3    3  501    0  0.50897976216E+01 -0.55864767137E+02 -0.47447523945E+03  0.47780291031E+03  0.47000000000E+01 0. -1.
        -11    1    4    4    0    0 -0.75647356517E+01  0.61073424175E+02 -0.93595496976E+03  0.93797595587E+03  0.00000000000E+00 0.  1.
         12    1    4    4    0    0  0.17474514926E+02  0.29146191720E+02 -0.11730065280E+03  0.12212412666E+03  0.00000000000E+00 0. -1.
         -5    1    5    5    0  502 -0.42927892895E+02 -0.58796319657E+02 -0.12785373543E+02  0.74063263298E+02  0.47000000000E+01 0.  1.
         13    1    6    6    0    0 -0.23521124808E+02  0.10431118277E+02  0.46780231165E+02  0.53389526768E+02  0.00000000000E+00 0. -1.
        -14    1    6    6    0    0  0.51449440808E+02  0.14010352623E+02  0.21524889048E+02  0.57503528488E+02  0.00000000000E+00 0.  1.
</event>
<event>
12    1  0.8271773E-002  0.2128151E+03  0.7818608E-02  0.1139493E+00
         21   -1    0    0  503  502  0.00000000000E+00  0.00000000000E+00  0.54450644697E+03  0.54450644697E+03  0.00000000000E+00 0. -1.
         21   -1    0    0  501  503 -0.00000000000E+00 -0.00000000000E+00 -0.84026609533E+02  0.84026609533E+02  0.00000000000E+00 0. -1.
          6    2    1    2  501    0 -0.11363600402E+03  0.52284778421E+02  0.19425800963E+03  0.28814306329E+03  0.17217262021E+03 0.  0.
         24    2    3    3    0    0 -0.52582209399E+02  0.47337349241E+02  0.19938047607E+03  0.22649590150E+03  0.80883284937E+02 0.  0.
         -6    2    1    2    0  502  0.11363600402E+03 -0.52284778421E+02  0.26622182781E+03  0.34038999322E+03  0.17130220785E+03 0.  0.
        -24    2    5    5    0    0  0.98824582502E+02 -0.96978347766E+02  0.17066990034E+03  0.23376375728E+03  0.79662922930E+02 0.  0.
          5    1    3    3  501    0 -0.61053794624E+02  0.49474291800E+01 -0.51224664425E+01  0.61647161783E+02  0.47000000000E+01 0. -1.
        -13    1    4    4    0    0 -0.73284745318E+01 -0.17361941484E+02  0.10040280702E+02  0.21353004183E+02  0.00000000000E+00 0.  1.
         14    1    4    4    0    0 -0.45253734867E+02  0.64699290725E+02  0.18934019537E+03  0.20514289732E+03  0.00000000000E+00 0. -1.
         -5    1    5    5    0  502  0.14811421521E+02  0.44693569346E+02  0.95551927468E+02  0.10662623594E+03  0.47000000000E+01 0.  1.
         13    1    6    6    0    0  0.84521441740E+02 -0.50416082607E+02  0.15305764825E+03  0.18196785207E+03  0.00000000000E+00 0. -1.
        -14    1    6    6    0    0  0.14303140762E+02 -0.46562265159E+02  0.17612252099E+02  0.51795905208E+02  0.00000000000E+00 0.  1.
</event>
<event>
12    1  0.8271773E-002  0.1928851E+03  0.7818608E-02  0.1155998E+00
         21   -1    0    0  501  502  0.00000000000E+00  0.00000000000E+00  0.24018276574E+04  0.24018276574E+04  0.00000000000E+00 0.  1.
         21   -1    0    0  502  503 -0.00000000000E+00 -0.00000000000E+00 -0.39799032420E+02  0.39799032420E+02  0.00000000000E+00 0.  1.
         -6    2    1    2    0  503 -0.58751134310E+02  0.65731006849E+02  0.22671355996E+03  0.29766373842E+03  0.17155874170E+03 0.  0.
        -24    2    3    3    0    0  0.28114460336E+02  0.40956929036E+02  0.15860507525E+03  0.18443723024E+03  0.79960171879E+02 0.  0.
          6    2    1    2  501    0  0.58751134310E+02 -0.65731006849E+02  0.21353150651E+04  0.21439629514E+04  0.17098084411E+03 0.  0.
         24    2    5    5    0    0  0.83856386673E+02 -0.94314435676E+02  0.14693442016E+04  0.14768898167E+04  0.79397994823E+02 0.  0.
          5    1    5    5  501    0 -0.25105252363E+02  0.28583428827E+02  0.66597086347E+03  0.66707313474E+03  0.47000000000E+01 0. -1.
        -11    1    6    6    0    0  0.18035185628E+02 -0.77471894052E+02  0.89930714214E+03  0.90281808699E+03  0.00000000000E+00 0.  1.
         12    1    6    6    0    0  0.65821201045E+02 -0.16842541624E+02  0.57003705945E+03  0.57407172971E+03  0.00000000000E+00 0. -1.
         -5    1    3    3    0  503 -0.86865594646E+02  0.24774077813E+02  0.68108484715E+02  0.11322650818E+03  0.47000000000E+01 0.  1.
         11    1    4    4    0    0 -0.23392319983E+02 -0.37343075579E+01  0.60386247321E+02  0.64866359175E+02  0.00000000000E+00 0. -1.
        -12    1    4    4    0    0  0.51506780319E+02  0.44691236594E+02  0.98218827928E+02  0.11957087106E+03  0.00000000000E+00 0.  1.
</event>
<event>
12    1  0.8271773E-002  0.1751416E+03  0.7818608E-02  0.1173575E+00
         21   -1    0    0  501  502  0.00000000000E+00  0.00000000000E+00  0.18383500308E+03  0.18383500308E+03  0.00000000000E+00 0.  1.
         21   -1    0    0  502  503 -0.00000000000E+00 -0.00000000000E+00 -0.45683661923E+03  0.45683661923E+03  0.00000000000E+00 0.  1.
         -6    2    1    2    0  503  0.26349335082E+00  0.82367852588E+01 -0.39277775939E+03  0.42849030877E+03  0.17106040565E+03 0.  0.
        -24    2    3    3    0    0  0.61181083161E+02 -0.81127125952E+01 -0.29088428228E+03  0.30856270767E+03  0.82391369971E+02 0.  0.
          6    2    1    2  501    0 -0.26349335082E+00 -0.82367852588E+01  0.11977614325E+03  0.21218131354E+03  0.17494762434E+03 0.  0.
         24    2    5    5    0    0 -0.52700366587E+02  0.31444956398E+02  0.45513476437E+02  0.11287723518E+03  0.83088385254E+02 0.  0.
          5    1    5    5  501    0  0.52436873236E+02 -0.39681741657E+02  0.74262666810E+02  0.99304078353E+02  0.47000000000E+01 0. -1.
        -13    1    6    6    0    0 -0.45487376323E+02  0.26822331456E+02  0.69569612645E+02  0.87341112159E+02  0.00000000000E+00 0.  1.
         14    1    6    6    0    0 -0.72129902640E+01  0.46226249426E+01 -0.24056136208E+02  0.25536123025E+02  0.00000000000E+00 0. -1.
         -5    1    3    3    0  503 -0.60917589810E+02  0.16349497854E+02 -0.10189347712E+03  0.11992760111E+03  0.47000000000E+01 0.  1.
         13    1    4    4    0    0  0.15910869239E+02  0.35383645851E+02 -0.13637435226E+03  0.14178547919E+03  0.00000000000E+00 0. -1.
        -14    1    4    4    0    0  0.45270213921E+02 -0.43496358446E+02 -0.15450993002E+03  0.16677722848E+03  0.00000000000E+00 0.  1.
</event>
<event>
12    1  0.8271773E-002  0.1734165E+03  0.7818608E-02  0.1174358E+00
         21   -1    0    0  503  502  0.00000000000E+00  0.00000000000E+00  0.40691535547E+03  0.40691535547E+03  0.00000000000E+00 0. -1.
         21   -1    0    0  501  503 -0.00000000000E+00 -0.00000000000E+00 -0.97829492821E+02  0.97829492821E+02  0.00000000000E+00 0. -1.
          6    2    1    2  501    0 -0.20314045326E+02 -0.15044833002E+02  0.29658407375E+02  0.17593435497E+03  0.17156418243E+03 0.  0.
         24    2    3    3    0    0  0.53063702014E+02 -0.18731007287E+02  0.30571665292E+02  0.10230823376E+03  0.79785593123E+02 0.  0.
         -6    2    1    2    0  502  0.20314045326E+02  0.15044833002E+02  0.27942745528E+03  0.32881049332E+03  0.17145737172E+03 0.  0.
        -24    2    5    5    0    0  0.42617352538E+02  0.16880209718E+02  0.28941172254E+03  0.30385890593E+03  0.80435746746E+02 0.  0.
          5    1    3    3  501    0 -0.73377747340E+02  0.36861742859E+01 -0.91325791707E+00  0.73626121218E+02  0.47000000000E+01 0. -1.
        -11    1    4    4    0    0  0.20296827065E+01  0.56861353334E+01  0.43794806627E+02  0.44209013045E+02  0.00000000000E+00 0.  1.
         12    1    4    4    0    0  0.51034019308E+02 -0.24417142621E+02 -0.13223141334E+02  0.58099220711E+02  0.00000000000E+00 0. -1.
         -5    1    5    5    0  502 -0.22303307212E+02 -0.18353767164E+01 -0.99842672635E+01  0.24951587386E+02  0.47000000000E+01 0.  1.
         11    1    6    6    0    0 -0.92649158907E+01  0.35848672270E+02  0.12856257406E+03  0.13378827086E+03  0.00000000000E+00 0. -1.
        -12    1    6    6    0    0  0.51882268429E+02 -0.18968462552E+02  0.16084914848E+03  0.17007063508E+03  0.00000000000E+00 0.  1.
</event>
<event>
12    1  0.8271773E-002  0.1763698E+03  0.7818608E-02  0.1172541E+00
         21   -1    0    0  503  502  0.00000000000E+00  0.00000000000E+00  0.50528761524E+02  0.50528761524E+02  0.00000000000E+00 0. -1.
         21   -1    0    0  501  503 -0.00000000000E+00 -0.00000000000E+00 -0.11410155977E+04  0.11410155977E+04  0.00000000000E+00 0. -1.
          6    2    1    2  501    0 -0.93139469454E+00  0.34256820574E+02 -0.95184077948E+03  0.96720305029E+03  0.16824527856E+03 0.  0.
         24    2    3    3    0    0 -0.15387065759E+02 -0.49882101230E+01 -0.22098454493E+03  0.23513606945E+03  0.78696620155E+02 0.  0.
         -6    2    1    2    0  502  0.93139469454E+00 -0.34256820574E+02 -0.13864605674E+03  0.22434130898E+03  0.17300837151E+03 0.  0.
        -24    2    5    5    0    0 -0.27336531835E+02 -0.72168588099E+02 -0.13738910121E+03  0.17680134974E+03  0.80170824234E+02 0.  0.
          5    1    3    3  501    0  0.14455671065E+02  0.39245030697E+02 -0.73085623455E+03  0.73206698085E+03  0.47000000000E+01 0. -1.
        -13    1    4    4    0    0  0.17075105801E+02 -0.19047941572E+02 -0.24257156297E+02  0.35253268612E+02  0.00000000000E+00 0.  1.
         14    1    4    4    0    0 -0.32462171560E+02  0.14059731449E+02 -0.19672738863E+03  0.19988280083E+03  0.00000000000E+00 0. -1.
         -5    1    5    5    0  502  0.28267926530E+02  0.37911767526E+02 -0.12569555316E+01  0.47539959238E+02  0.47000000000E+01 0.  1.
         11    1    6    6    0    0 -0.23130721823E+02 -0.41513878220E+02 -0.13927959637E+02  0.49521918749E+02  0.00000000000E+00 0. -1.
        -12    1    6    6    0    0 -0.42058100121E+01 -0.30654709880E+02 -0.12346114157E+03  0.12727943099E+03  0.00000000000E+00 0.  1.
</event>
<event>
12    1  0.8271773E-002  0.2451686E+03  0.7818608E-02  0.1116703E+00
         21   -1    0    0  503  502  0.00000000000E+00  0.00000000000E+00  0.82675081599E+02  0.82675081599E+02  0.00000000000E+00 0.  1.
         21   -1    0    0  501  503 -0.00000000000E+00 -0.00000000000E+00 -0.72443462252E+03  0.72443462252E+03  0.00000000000E+00 0.  1.
          6    2    1    2  501    0  0.32107416933E+02  0.16951525355E+03 -0.34546325538E+03  0.42253311550E+03  0.17153152908E+03 0.  0.
         24    2    3    3    0    0  0.81737349242E+01  0.13462460948E+03 -0.13280538498E+03  0.20565610422E+03  0.80414970639E+02 0.  0.
         -6    2    1    2    0  502 -0.32107416933E+02 -0.16951525355E+03 -0.29629628554E+03  0.38457658862E+03  0.17418770416E+03 0.  0.
        -24    2    5    5    0    0 -0.42599182050E+01 -0.92040316996E+01 -0.83415813898E+02  0.11659271552E+03  0.80825752088E+02 0.  0.
          5    1    3    3  501    0  0.23933682008E+02  0.34890644065E+02 -0.21265787040E+03  0.21687701127E+03  0.47000000000E+01 0. -1.
        -11    1    4    4    0    0 -0.90054781615E+01  0.64348356094E+02 -0.11349434165E+03  0.13077757895E+03  0.00000000000E+00 0.  1.
         12    1    4    4    0    0  0.17179213086E+02  0.70276253390E+02 -0.19311043331E+02  0.74878525275E+02  0.00000000000E+00 0. -1.
         -5    1    5    5    0  502 -0.27847498728E+02 -0.16031122185E+03 -0.21288047164E+03  0.26798387310E+03  0.47000000000E+01 0.  1.
         11    1    6    6    0    0 -0.27329478270E+02 -0.51047466806E+01 -0.88373020504E+02  0.92643130205E+02  0.00000000000E+00 0. -1.
        -12    1    6    6    0    0  0.23069560064E+02 -0.40992850191E+01  0.49572066068E+01  0.23949585311E+02  0.00000000000E+00 0.  1.
</event>
<event>
12    1  0.8271773E-002  0.2019699E+03  0.7818608E-02  0.1149159E+00
         21   -1    0    0  501  502  0.00000000000E+00  0.00000000000E+00  0.25941219406E+03  0.25941219406E+03  0.00000000000E+00 0.  1.
         21   -1    0    0  502  503 -0.00000000000E+00 -0.00000000000E+00 -0.16875732635E+03  0.16875732635E+03  0.00000000000E+00 0. -1.
         -6    2    1    2    0  503  0.94554929059E+02 -0.36715792163E+02 -0.18895221804E+02  0.20285181313E+03  0.17465149492E+03 0.  0.
        -24    2    3    3    0    0  0.24622550959E+02  0.83900998175E+01  0.47774640450E+02  0.96118315429E+02  0.79244245848E+02 0.  0.
          6    2    1    2  501    0 -0.94554929059E+02  0.36715792163E+02  0.10955008951E+03  0.22531770728E+03  0.16875474245E+03 0.  0.
         24    2    5    5    0    0 -0.10896308713E+03  0.46693288465E+02  0.33745003227E+02  0.14737127338E+03  0.80785824444E+02 0.  0.
          5    1    5    5  501    0  0.14408158068E+02 -0.99774963016E+01  0.75805086284E+02  0.77946433901E+02  0.47000000000E+01 0. -1.
        -11    1    6    6    0    0 -0.33884322497E+02  0.53036269188E+02 -0.40703768039E+01  0.63067908858E+02  0.00000000000E+00 0.  1.
         12    1    6    6    0    0 -0.75078764630E+02 -0.63429807230E+01  0.37815380031E+02  0.84303364522E+02  0.00000000000E+00 0. -1.
         -5    1    3    3    0  503  0.69932378099E+02 -0.45105891980E+02 -0.66669862254E+02  0.10673349770E+03  0.47000000000E+01 0.  1.
         13    1    4    4    0    0 -0.10659658584E+02  0.45586842672E+01 -0.17982262110E+02  0.21395599407E+02  0.00000000000E+00 0. -1.
        -14    1    4    4    0    0  0.35282209544E+02  0.38314155503E+01  0.65756902560E+02  0.74722716022E+02  0.00000000000E+00 0.  1.
</event>
<event>
12    1  0.8271773E-002  0.1918555E+03  0.7818608E-02  0.1158444E+00
         21   -1    0    0  501  502  0.00000000000E+00  0.00000000000E+00  0.12486555888E+04  0.12486555888E+04  0.00000000000E+00 0. -1.
         21   -1    0    0  502  503 -0.00000000000E+00 -0.00000000000E+00 -0.95071193651E+02  0.95071193651E+02  0.00000000000E+00 0. -1.
         -6    2    1    2    0  503  0.63193611002E+02  0.54079465550E+01  0.10778730736E+02  0.18492856010E+03  0.17337737149E+03 0.  0.
        -24    2    3    3    0    0  0.10201536098E+03 -0.25394859890E+02  0.26745284697E+02  0.13265082104E+03  0.76347215297E+02 0.  0.
          6    2    1    2  501    0 -0.63193611002E+02 -0.54079465550E+01  0.11428056644E+04  0.11587982223E+04  0.18106864764E+03 0.  0.
         24    2    5    5    0    0 -0.11442845052E+03  0.25190850122E+01  0.84200561011E+03  0.85352685245E+03  0.80214863509E+02 0.  0.
          5    1    5    5  501    0  0.51234839523E+02 -0.79270315671E+01  0.30080005429E+03  0.30527136988E+03  0.47000000000E+01 0. -1.
        -11    1    6    6    0    0 -0.47182560250E+02 -0.24551507125E+02  0.18378779796E+03  0.19132936307E+03  0.00000000000E+00 0.  1.
         12    1    6    6    0    0 -0.67245890274E+02  0.27070592137E+02  0.65821781214E+03  0.66219748938E+03  0.00000000000E+00 0. -1.
         -5    1    3    3    0  503 -0.38821749976E+02  0.30802806445E+02 -0.15966553960E+02  0.52277739063E+02  0.47000000000E+01 0.  1.
         11    1    4    4    0    0  0.20797532495E+02 -0.35454839096E+02 -0.10965092202E+02  0.42541934843E+02  0.00000000000E+00 0. -1.
        -12    1    4    4    0    0  0.81217828483E+02  0.10059979205E+02  0.37710376899E+02  0.90108886193E+02  0.00000000000E+00 0.  1.
</event>
<event>
12    1  0.8271773E-002  0.1944057E+03  0.7818608E-02  0.1154918E+00
         21   -1    0    0  503  502  0.00000000000E+00  0.00000000000E+00  0.14029033650E+04  0.14029033650E+04  0.00000000000E+00 0.  1.
         21   -1    0    0  501  503 -0.00000000000E+00 -0.00000000000E+00 -0.13598750124E+03  0.13598750124E+03  0.00000000000E+00 0.  1.
          6    2    1    2  501    0  0.81572132511E+02  0.36151120175E+02 -0.56850949337E+02  0.20092518609E+03  0.17081564236E+03 0.  0.
         24    2    3    3    0    0  0.85263861140E+02 -0.17091895306E+02 -0.80274340141E+02  0.14245132189E+03  0.79286509083E+02 0.  0.
         -6    2    1    2    0  502 -0.81572132511E+02 -0.36151120175E+02  0.13237668131E+04  0.13379656801E+04  0.17272136377E+03 0.  0.
        -24    2    5    5    0    0 -0.90288311647E+02  0.18022359709E+02  0.60583690764E+03  0.61792666950E+03  0.79487266610E+02 0.  0.
          5    1    3    3  501    0 -0.36917286289E+01  0.53243015481E+02  0.23423390804E+02  0.58473864200E+02  0.47000000000E+01 0. -1.
        -11    1    4    4    0    0  0.58549886953E+02 -0.10620952887E+02 -0.20525720516E+01  0.59540800754E+02  0.00000000000E+00 0.  1.
         12    1    4    4    0    0  0.26713974187E+02 -0.64709424185E+01 -0.78221768089E+02  0.82910521140E+02  0.00000000000E+00 0. -1.
         -5    1    5    5    0  502  0.87161791361E+01 -0.54173479884E+02  0.71792990545E+03  0.72003901064E+03  0.47000000000E+01 0.  1.
         11    1    6    6    0    0 -0.32138036204E+02 -0.13988017994E+02  0.73081626076E+02  0.81052094904E+02  0.00000000000E+00 0. -1.
        -12    1    6    6    0    0 -0.58150275443E+02  0.32010377702E+02  0.53275528157E+03  0.53687457460E+03  0.00000000000E+00 0.  1.
</event>
<event>
12    1  0.8271773E-002  0.2308657E+03  0.7818608E-02  0.1126254E+00
         21   -1    0    0  501  502  0.00000000000E+00  0.00000000000E+00  0.10505123321E+03  0.10505123321E+03  0.00000000000E+00 0.  1.
         21   -1    0    0  502  503 -0.00000000000E+00 -0.00000000000E+00 -0.80238917146E+03  0.80238917146E+03  0.00000000000E+00 0.  1.
         -6    2    1    2    0  503 -0.68127492240E+02 -0.13806491339E+03 -0.62447877886E+03  0.66535065185E+03  0.17033634128E+03 0.  0.
        -24    2    3    3    0    0 -0.30565593140E+02 -0.48972737151E+02 -0.49013816982E+03  0.49976743601E+03  0.78736777374E+02 0.  0.
          6    2    1    2  501    0  0.68127492240E+02  0.13806491339E+03 -0.72859159396E+02  0.24208975282E+03  0.17203405420E+03 0.  0.
         24    2    5    5    0    0  0.40067076039E+02  0.17072653181E+03 -0.64326971809E+02  0.19794163281E+03  0.65498179011E+02 0.  0.
          5    1    5    5  501    0  0.28060416201E+02 -0.32661618417E+02 -0.85321875867E+01  0.44148120005E+02  0.47000000000E+01 0. -1.
        -11    1    6    6    0    0 -0.13949242737E+02  0.82593141176E+02 -0.26197513277E+02  0.87763990589E+02  0.00000000000E+00 0.  1.
         12    1    6    6    0    0  0.54016318776E+02  0.88133390632E+02 -0.38129458532E+02  0.11017764223E+03  0.00000000000E+00 0. -1.
         -5    1    3    3    0  503 -0.37561899100E+02 -0.89092176240E+02 -0.13434060904E+03  0.16558321584E+03  0.47000000000E+01 0.  1.
         11    1    4    4    0    0  0.17393948690E+02  0.89589317989E+01 -0.15881674880E+03  0.16001741033E+03  0.00000000000E+00 0. -1.
        -12    1    4    4    0    0 -0.47959541830E+02 -0.57931668950E+02 -0.33132142102E+03  0.33975002567E+03  0.00000000000E+00 0.  1.
</event>
<event>
12    1  0.8271773E-002  0.2051865E+03  0.7818608E-02  0.1145993E+00
         21   -1    0    0  501  502  0.00000000000E+00  0.00000000000E+00  0.67887376497E+02  0.67887376497E+02  0.00000000000E+00 0. -1.
         21   -1    0    0  502  503 -0.00000000000E+00 -0.00000000000E+00 -0.61868304304E+03  0.61868304304E+03  0.00000000000E+00 0.  1.
         -6    2    1    2    0  503 -0.50940461777E+02  0.10105520683E+03 -0.30929586819E+03  0.36967351770E+03  0.16789130453E+03 0.  0.
        -24    2    3    3    0    0 -0.66858711034E+02  0.42659908499E+02 -0.28096744836E+03  0.30268104875E+03  0.79894650630E+02 0.  0.
          6    2    1    2  501    0  0.50940461777E+02 -0.10105520683E+03 -0.24149979835E+03  0.31689690183E+03  0.17115609342E+03 0.  0.
         24    2    5    5    0    0 -0.34713219136E+02 -0.92906538855E+02 -0.13557730174E+03  0.18035160118E+03  0.65641928326E+02 0.  0.
          5    1    5    5  501    0  0.85653680913E+02 -0.81486679750E+01 -0.10592249661E+03  0.13654530066E+03  0.47000000000E+01 0. -1.
        -13    1    6    6    0    0  0.64859747969E+01  0.70946099883E+01 -0.51184726383E+01  0.10890368318E+02  0.00000000000E+00 0.  1.
         14    1    6    6    0    0 -0.41199193933E+02 -0.10000114884E+03 -0.13045882910E+03  0.16946123286E+03  0.00000000000E+00 0. -1.
         -5    1    3    3    0  503  0.15918249257E+02  0.58395298331E+02 -0.28328419832E+02  0.66992468955E+02  0.47000000000E+01 0.  1.
         11    1    4    4    0    0 -0.39790365832E+02 -0.93576674700E+01 -0.51021693607E+02  0.65376237059E+02  0.00000000000E+00 0. -1.
        -12    1    4    4    0    0 -0.27068345202E+02  0.52017575969E+02 -0.22994575475E+03  0.23730481169E+03  0.00000000000E+00 0.  1.
</event>
<event>
12    1  0.8271773E-002  0.2258526E+03  0.7818608E-02  0.1130873E+00
         21   -1    0    0  503  502  0.00000000000E+00  0.00000000000E+00  0.30619069804E+03  0.30619069804E+03  0.00000000000E+00 0. -1.
         21   -1    0    0  501  503 -0.00000000000E+00 -0.00000000000E+00 -0.18249206623E+03  0.18249206623E+03  0.00000000000E+00 0. -1.
          6    2    1    2  501    0 -0.58955276826E+02 -0.12082549274E+03  0.14560693554E+03  0.26872061600E+03  0.18147965568E+03 0.  0.
         24    2    3    3    0    0 -0.11111481832E+03 -0.73916843062E+02  0.98606519020E+02  0.18415012271E+03  0.79861251939E+02 0.  0.
         -6    2    1    2    0  502  0.58955276826E+02  0.12082549274E+03 -0.21908303727E+02  0.21996214827E+03  0.17271030235E+03 0.  0.
        -24    2    5    5    0    0  0.23473544230E+02  0.74481241343E+02  0.53651665026E+02  0.12436851949E+03  0.80564042158E+02 0.  0.
          5    1    3    3  501    0  0.52159541492E+02 -0.46908649677E+02  0.47000416517E+02  0.84570493294E+02  0.47000000000E+01 0. -1.
        -11    1    4    4    0    0 -0.50364664431E+02 -0.11883306253E+00  0.54178934813E+01  0.50655375967E+02  0.00000000000E+00 0.  1.
         12    1    4    4    0    0 -0.60750153887E+02 -0.73798010000E+02  0.93188625538E+02  0.13349474674E+03  0.00000000000E+00 0. -1.
         -5    1    5    5    0  502  0.35481732597E+02  0.46344251397E+02 -0.75559968753E+02  0.95593628781E+02  0.47000000000E+01 0.  1.
         13    1    6    6    0    0  0.20660217362E+02  0.75635671895E+02  0.82212776147E+01  0.78836469036E+02  0.00000000000E+00 0. -1.
        -14    1    6    6    0    0  0.28133268680E+01 -0.11544305524E+01  0.45430387411E+02  0.45532050452E+02  0.00000000000E+00 0.  1.
</event>
<event>
12    1  0.8271773E-002  0.2164339E+03  0.7818608E-02  0.1136586E+00
         21   -1    0    0  501  502  0.00000000000E+00  0.00000000000E+00  0.10599202352E+04  0.10599202352E+04  0.00000000000E+00 0. -1.
         21   -1    0    0  502  503 -0.00000000000E+00 -0.00000000000E+00 -0.44198278754E+02  0.44198278754E+02  0.00000000000E+00 0. -1.
         -6    2    1    2    0  503 -0.40014059667E+02  0.12458202566E+03  0.51974262768E+03  0.56300625525E+03  0.17240022719E+03 0.  0.
        -24    2    3    3    0    0 -0.91796185304E+02  0.68611516475E+02  0.33543139541E+03  0.36348982291E+03  0.80477018470E+02 0.  0.
          6    2    1    2  501    0  0.40014059667E+02 -0.12458202566E+03  0.49597932881E+03  0.54111225874E+03  0.17229386486E+03 0.  0.
         24    2    5    5    0    0  0.12463214973E+01 -0.68087809113E+02  0.12391340529E+03  0.16276099937E+03  0.80617044340E+02 0.  0.
          5    1    5    5  501    0  0.38767738170E+02 -0.56494216549E+02  0.37206592352E+03  0.37835125938E+03  0.47000000000E+01 0. -1.
        -13    1    6    6    0    0 -0.29155449925E+02 -0.18233019376E+02  0.87325260886E+02  0.93851928295E+02  0.00000000000E+00 0.  1.
         14    1    6    6    0    0  0.30401771422E+02 -0.49854789737E+02  0.36588144402E+02  0.68909071073E+02  0.00000000000E+00 0. -1.
         -5    1    3    3    0  503  0.51782125637E+02  0.55970509187E+02  0.18431123227E+03  0.19951643234E+03  0.47000000000E+01 0.  1.
         11    1    4    4    0    0 -0.77837489440E+02  0.71022349105E+02  0.33279934269E+03  0.34908201232E+03  0.00000000000E+00 0. -1.
        -12    1    4    4    0    0 -0.13958695865E+02 -0.24108326302E+01  0.26320527179E+01  0.14407810580E+02  0.00000000000E+00 0.  1.
</event>
<event>
12    1  0.8271773E-002  0.2644259E+03  0.7818608E-02  0.1104809E+00
         21   -1    0    0  501  502  0.00000000000E+00  0.00000000000E+00  0.62903044790E+03  0.62903044790E+03  0.00000000000E+00 0. -1.
         21   -1    0    0  502  503 -0.00000000000E+00 -0.00000000000E+00 -0.11923138387E+03  0.11923138387E+03  0.00000000000E+00 0. -1.
         -6    2    1    2    0  503  0.17899468790E+03  0.84677733786E+02  0.15169569429E+03  0.30311122390E+03  0.17220747224E+03 0.  0.
        -24    2    3    3    0    0  0.19332549966E+03  0.37650854707E+02  0.12999925352E+03  0.24916935646E+03  0.79957655071E+02 0.  0.
          6    2    1    2  501    0 -0.17899468790E+03 -0.84677733786E+02  0.35810336974E+03  0.44515060787E+03  0.17524732058E+03 0.  0.
         24    2    5    5    0    0 -0.34411745734E+02 -0.47975118858E+02  0.72231505987E+02  0.12266631121E+03  0.79648309297E+02 0.  0.
          5    1    5    5  501    0 -0.14458294216E+03 -0.36702614928E+02  0.28587186376E+03  0.32248429666E+03  0.47000000000E+01 0. -1.
        -13    1    6    6    0    0 -0.20035612501E+01 -0.15908589677E+02 -0.16437657551E+02  0.22962884596E+02  0.00000000000E+00 0.  1.
         14    1    6    6    0    0 -0.32408184484E+02 -0.32066529181E+02  0.88669163538E+02  0.99703426610E+02  0.00000000000E+00 0. -1.
         -5    1    3    3    0  503 -0.14330811758E+02  0.47026879079E+02  0.21696440764E+02  0.53941867444E+02  0.47000000000E+01 0.  1.
         13    1    4    4    0    0  0.98026029233E+02  0.59083766239E+02  0.62187630253E+02  0.13025857053E+03  0.00000000000E+00 0. -1.
        -14    1    4    4    0    0  0.95299470424E+02 -0.21432911532E+02  0.67811623271E+02  0.11891078593E+03  0.00000000000E+00 0.  1.
</event>
<event>
12    1  0.8271773E-002  0.2165495E+03  0.7818608E-02  0.1136605E+00
         21   -1    0    0  501  502  0.00000000000E+00  0.00000000000E+00  0.52309360883E+03  0.52309360883E+03  0.00000000000E+00 0. -1.
         21   -1    0    0  502  503 -0.00000000000E+00 -0.00000000000E+00 -0.89713600970E+02  0.89713600970E+02  0.00000000000E+00 0. -1.
         -6    2    1    2    0  503  0.96309851665E+02  0.89427914101E+02  0.23568809472E+03  0.32006649467E+03  0.17210677984E+03 0.  0.
        -24    2    3    3    0    0 -0.15774585932E+02  0.23354553518E+02  0.11963013426E+03  0.14565276151E+03  0.78160637021E+02 0.  0.
          6    2    1    2  501    0 -0.96309851665E+02 -0.89427914101E+02  0.19769191314E+03  0.29274071513E+03  0.17129534269E+03 0.  0.
         24    2    5    5    0    0 -0.75802305090E+02 -0.92421573002E+02  0.63215111106E+02  0.15659512488E+03  0.78981936228E+02 0.  0.
          5    1    5    5  501    0 -0.20507546575E+02  0.29936589010E+01  0.13447680204E+03  0.13614559025E+03  0.47000000000E+01 0. -1.
        -11    1    6    6    0    0  0.51724473372E+01 -0.48844588330E+02  0.35330431507E+02  0.60504441250E+02  0.00000000000E+00 0.  1.
         12    1    6    6    0    0 -0.80974752427E+02 -0.43576984672E+02  0.27884679599E+02  0.96090683628E+02  0.00000000000E+00 0. -1.
         -5    1    3    3    0  503  0.11208443760E+03  0.66073360583E+02  0.11605796046E+03  0.17441373316E+03  0.47000000000E+01 0.  1.
         13    1    4    4    0    0  0.13846570702E+02 -0.23706798022E+02  0.37882053806E+02  0.46784503773E+02  0.00000000000E+00 0. -1.
        -14    1    4    4    0    0 -0.29621156634E+02  0.47061351540E+02  0.81748080456E+02  0.98868257734E+02  0.00000000000E+00 0.  1.
</event>
<event>
12    1  0.8271773E-002  0.1866262E+03  0.7818608E-02  0.1162266E+00
         21   -1    0    0  503  502  0.00000000000E+00  0.00000000000E+00  0.29312462703E+03  0.29312462703E+03  0.00000000000E+00 0. -1.
         21   -1    0    0  501  503 -0.00000000000E+00 -0.00000000000E+00 -0.13195464925E+03  0.13195464925E+03  0.00000000000E+00 0. -1.
          6    2    1    2  501    0 -0.16002498322E+01 -0.70939176969E+02  0.80672245671E+01  0.18368790885E+03  0.16923723029E+03 0.  0.
         24    2    3    3    0    0 -0.16670146483E+02 -0.11067877258E+03 -0.76180293370E+01  0.13814172971E+03  0.80606566931E+02 0.  0.
         -6    2    1    2    0  502  0.16002498322E+01  0.70939176969E+02  0.15310275320E+03  0.24139136743E+03  0.17261057790E+03 0.  0.
        -24    2    5    5    0    0  0.40957588297E+02  0.94875593551E+02  0.70895580536E+02  0.14704063151E+03  0.76914638953E+02 0.  0.
          5    1    3    3  501    0  0.15069896651E+02  0.39739595612E+02  0.15685253904E+02  0.45546179143E+02  0.47000000000E+01 0. -1.
        -11    1    4    4    0    0 -0.26620050488E+02 -0.46155553423E+02  0.31633440140E+02  0.61964802386E+02  0.00000000000E+00 0.  1.
         12    1    4    4    0    0  0.99499040048E+01 -0.64523219159E+02 -0.39251469477E+02  0.76176927323E+02  0.00000000000E+00 0. -1.
         -5    1    5    5    0  502 -0.39357338465E+02 -0.23936416582E+02  0.82207172669E+02  0.94350735917E+02  0.47000000000E+01 0.  1.
         13    1    6    6    0    0  0.41190049491E+01  0.59389697272E+02  0.74966062062E+02  0.95728850431E+02  0.00000000000E+00 0. -1.
        -14    1    6    6    0    0  0.36838583348E+02  0.35485896279E+02 -0.40704815265E+01  0.51311781081E+02  0.00000000000E+00 0.  1.
</event>
<event>
12    1  0.8271773E-002  0.1930263E+03  0.7818608E-02  0.1155907E+00
         21   -1    0    0  503  502  0.00000000000E+00  0.00000000000E+00  0.25081257699E+03  0.25081257699E+03  0.00000000000E+00 0.  1.
         21   -1    0    0  501  503 -0.00000000000E+00 -0.00000000000E+00 -0.28273700513E+03  0.28273700513E+03  0.00000000000E+00 0.  1.
          6    2    1    2  501    0 -0.81834482791E+02  0.25668672654E+02 -0.20007982565E+03  0.27755075559E+03  0.17218223476E+03 0.  0.
         24    2    3    3    0    0 -0.40082965893E+02 -0.49541452793E+02 -0.69095438201E+02  0.12077463531E+03  0.75837545158E+02 0.  0.
         -6    2    1    2    0  502  0.81834482791E+02 -0.25668672654E+02  0.16815539752E+03  0.25599882652E+03  0.17292599035E+03 0.  0.
        -24    2    5    5    0    0  0.65091624957E+02  0.36068286160E+02  0.47964704738E+02  0.11976495407E+03  0.80654760658E+02 0.  0.
          5    1    3    3  501    0 -0.41751516898E+02  0.75210125447E+02 -0.13098438745E+03  0.15677612028E+03  0.47000000000E+01 0. -1.
        -13    1    4    4    0    0  0.16583616085E+02 -0.13093085510E+02 -0.44119331252E+02  0.48917896528E+02  0.00000000000E+00 0.  1.
         14    1    4    4    0    0 -0.56666581978E+02 -0.36448367283E+02 -0.24976106949E+02  0.71856738786E+02  0.00000000000E+00 0. -1.
         -5    1    5    5    0  502  0.16742857833E+02 -0.61736958814E+02  0.12019069278E+03  0.13623387245E+03  0.47000000000E+01 0.  1.
         13    1    6    6    0    0 -0.32785841745E+01  0.54141318494E+01 -0.18533344643E+02  0.19584350935E+02  0.00000000000E+00 0. -1.
        -14    1    6    6    0    0  0.68370209132E+02  0.30654154310E+02  0.66498049381E+02  0.10018060314E+03  0.00000000000E+00 0.  1.
</event>
<event>
12    1  0.8271773E-002  0.1818950E+03  0.7818608E-02  0.1166000E+00
         21   -1    0    0  501  502  0.00000000000E+00  0.00000000000E+00  0.24341712830E+03  0.24341712830E+03  0.00000000000E+00 0. -1.
         21   -1    0    0  502  503 -0.00000000000E+00 -0.00000000000E+00 -0.14390285307E+03  0.14390285307E+03  0.00000000000E+00 0. -1.
         -6    2    1    2    0  503 -0.10790965168E+02 -0.56913279849E+02  0.39930052147E+01  0.18193881704E+03  0.17242454206E+03 0.  0.
        -24    2    3    3    0    0 -0.20657814622E+02  0.30115262977E+02  0.29431905783E+02  0.90612207301E+02  0.77528450679E+02 0.  0.
          6    2    1    2  501    0  0.10790965168E+02  0.56913279849E+02  0.95521270018E+02  0.20538116433E+03  0.17234135686E+03 0.  0.
         24    2    5    5    0    0  0.22117022634E+01  0.54611509930E+02 -0.12912203697E+02  0.96483000352E+02  0.78453398326E+02 0.  0.
          5    1    5    5  501    0  0.85792629043E+01  0.23017699188E+01  0.10843347372E+03  0.10889816398E+03  0.47000000000E+01 0. -1.
        -13    1    6    6    0    0 -0.36294725399E+02  0.41004310474E+02 -0.82444825396E+01  0.55377179971E+02  0.00000000000E+00 0.  1.
         14    1    6    6    0    0  0.38506427662E+02  0.13607199457E+02 -0.46677211577E+01  0.41105820381E+02  0.00000000000E+00 0. -1.
         -5    1    3    3    0  503  0.98668494547E+01 -0.87028542826E+02 -0.25438900568E+02  0.91326609741E+02  0.47000000000E+01 0.  1.
         11    1    4    4    0    0  0.21223395816E+01 -0.15755588693E+01 -0.24165944581E+02  0.24310071751E+02  0.00000000000E+00 0. -1.
        -12    1    4    4    0    0 -0.22780154204E+02  0.31690821847E+02  0.53597850364E+02  0.66302135550E+02  0.00000000000E+00 0.  1.
</event>
<event>
12    1  0.8271773E-002  0.1862853E+03  0.7818608E-02  0.1161879E+00
         21   -1    0    0  501  502  0.00000000000E+00  0.00000000000E+00  0.13341033246E+02  0.13341033246E+02  0.00000000000E+00 0.  1.
         21   -1    0    0  502  503 -0.00000000000E+00 -0.00000000000E+00 -0.26522801178E+04  0.26522801178E+04  0.00000000000E+00 0.  1.
         -6    2    1    2    0  503  0.69294061729E+02 -0.13562613132E+02 -0.11322001136E+04  0.11474228975E+04  0.17238502525E+03 0.  0.
        -24    2    3    3    0    0  0.39339099169E+02 -0.18547273670E+02 -0.26636822949E+03  0.28104590784E+03  0.78378584735E+02 0.  0.
          6    2    1    2  501    0 -0.69294061729E+02  0.13562613132E+02 -0.15067389710E+04  0.15181982536E+04  0.17227303652E+03 0.  0.
         24    2    5    5    0    0 -0.73639615116E+02  0.36659161284E+02 -0.56270250574E+03  0.57385759893E+03  0.76887885010E+02 0.  0.
          5    1    5    5  501    0  0.43455533868E+01 -0.23096548151E+02 -0.94403646523E+03  0.94434065467E+03  0.47000000000E+01 0. -1.
        -11    1    6    6    0    0 -0.45514875922E+02  0.42482447623E+00 -0.11301273834E+03  0.12183457404E+03  0.00000000000E+00 0.  1.
         12    1    6    6    0    0 -0.28124739194E+02  0.36234336807E+02 -0.44968976740E+03  0.45202302489E+03  0.00000000000E+00 0. -1.
         -5    1    3    3    0  503  0.29954962560E+02  0.49846605383E+01 -0.86583188411E+03  0.86637698963E+03  0.47000000000E+01 0.  1.
         11    1    4    4    0    0 -0.81997369757E+01  0.22171572050E+02 -0.11204882900E+03  0.11451530192E+03  0.00000000000E+00 0. -1.
        -12    1    4    4    0    0  0.47538836145E+02 -0.40718845720E+02 -0.15431940050E+03  0.16653060592E+03  0.00000000000E+00 0.  1.
</event>
<event>
12    1  0.8271773E-002  0.1788999E+03  0.7818608E-02  0.1169045E+00
         21   -1    0    0  501  502  0.00000000000E+00  0.00000000000E+00  0.88615504606E+03  0.88615504606E+03  0.00000000000E+00 0. -1.
         21   -1    0    0  502  503 -0.00000000000E+00 -0.00000000000E+00 -0.12927125943E+03  0.12927125943E+03  0.00000000000E+00 0. -1.
         -6    2    1    2    0  503  0.83926915931E+01  0.45402695451E+02 -0.53087794584E+02  0.18593300503E+03  0.17210731071E+03 0.  0.
        -24    2    3    3    0    0  0.40357470584E+02 -0.30268959491E+02 -0.15708649156E+02  0.95560238275E+02  0.79624507159E+02 0.  0.
          6    2    1    2  501    0 -0.83926915931E+01 -0.45402695451E+02  0.80997158121E+03  0.82949330045E+03  0.17283903234E+03 0.  0.
         24    2    5    5    0    0  0.37684843305E+01 -0.90908814872E+02  0.68557296772E+03  0.69639256363E+03  0.81692683363E+02 0.  0.
          5    1    5    5  501    0 -0.12161175924E+02  0.45506119420E+02  0.12439861349E+03  0.13310073683E+03  0.47000000000E+01 0. -1.
        -11    1    6    6    0    0  0.11375834537E+02 -0.41750558316E+02  0.55469383163E+03  0.55637915632E+03  0.00000000000E+00 0.  1.
         12    1    6    6    0    0 -0.76073502069E+01 -0.49158256555E+02  0.13087913608E+03  0.14001340731E+03  0.00000000000E+00 0. -1.
         -5    1    3    3    0  503 -0.31964778991E+02  0.75671654943E+02 -0.37379145429E+02  0.90372766753E+02  0.47000000000E+01 0.  1.
         11    1    4    4    0    0  0.50426211492E+02  0.72925975664E+01 -0.23155921162E+02  0.55965895593E+02  0.00000000000E+00 0. -1.
        -12    1    4    4    0    0 -0.10068740908E+02 -0.37561557058E+02  0.74472720063E+01  0.39594342682E+02  0.00000000000E+00 0.  1.
</event>
<event>
12    1  0.8271773E-002  0.2416900E+03  0.7818608E-02  0.1119211E+00
         21   -1    0    0  501  502  0.00000000000E+00  0.00000000000E+00  0.20073485800E+03  0.20073485800E+03  0.00000000000E+00 0. -1.
         21   -1    0    0  502  503 -0.00000000000E+00 -0.00000000000E+00 -0.40035243095E+03  0.40035243095E+03  0.00000000000E+00 0. -1.
         -6    2    1    2    0  503  0.39974644663E+02  0.15966899175E+03 -0.25916586398E+03  0.35216955240E+03  0.17252330115E+03 0.  0.
        -24    2    3    3    0    0  0.27623811533E+01  0.16893948238E+03 -0.24941530467E+03  0.31232161696E+03  0.82393074702E+02 0.  0.
          6    2    1    2  501    0 -0.39974644663E+02 -0.15966899175E+03  0.59548291032E+02  0.24891773654E+03  0.17697988998E+03 0.  0.
         24    2    5    5    0    0  0.11556951611E+02 -0.15757283897E+02 -0.76988748963E+01  0.81853807467E+02  0.79113323757E+02 0.  0.
          5    1    5    5  501    0 -0.51531596274E+02 -0.14391170786E+03  0.67247165929E+02  0.16706392908E+03  0.47000000000E+01 0. -1.
        -11    1    6    6    0    0 -0.57807104328E+01  0.13850837471E+02  0.28355589860E+02  0.32082733488E+02  0.00000000000E+00 0.  1.
         12    1    6    6    0    0  0.17337662044E+02 -0.29608121368E+02 -0.36054464756E+02  0.49771073978E+02  0.00000000000E+00 0. -1.
         -5    1    3    3    0  503  0.37212263509E+02 -0.92704906241E+01 -0.97505593093E+01  0.39847935439E+02  0.47000000000E+01 0.  1.
         11    1    4    4    0    0  0.29927845527E+02  0.15419089948E+03 -0.20794313320E+03  0.26059711446E+03  0.00000000000E+00 0. -1.
        -12    1    4    4    0    0 -0.27165464373E+02  0.14748582902E+02 -0.41472171475E+02  0.51724502503E+02  0.00000000000E+00 0.  1.
</event>
<event>
12    1  0.8271773E-002  0.1721195E+03  0.7818608E-02  0.1175766E+00
         21   -1    0    0  503  502  0.00000000000E+00  0.00000000000E+00  0.86101395807E+03  0.86101395807E+03  0.00000000000E+00 0.  1.
         21   -1    0    0  501  503 -0.00000000000E+00 -0.00000000000E+00 -0.36707161480E+02  0.36707161480E+02  0.00000000000E+00 0.  1.
          6    2    1    2  501    0 -0.71778006020E+01 -0.10131517668E+02  0.29820435987E+03  0.34431228249E+03  0.17167102014E+03 0.  0.
         24    2    3    3    0    0 -0.31380701780E+02 -0.31252423876E+02  0.71480996907E+02  0.11527637609E+03  0.78852061002E+02 0.  0.
         -6    2    1    2    0  502  0.71778006020E+01  0.10131517668E+02  0.52610243672E+03  0.55340883706E+03  0.17124076192E+03 0.  0.
        -24    2    5    5    0    0  0.34127559450E+02  0.41920832668E+02  0.48541342359E+03  0.49497480725E+03  0.80323231324E+02 0.  0.
          5    1    3    3  501    0  0.24202901178E+02  0.21120906208E+02  0.22672336296E+03  0.22903590640E+03  0.47000000000E+01 0. -1.
        -13    1    4    4    0    0  0.26485423194E+02 -0.84542115083E+01  0.27474019369E+02  0.39086737831E+02  0.00000000000E+00 0.  1.
         14    1    4    4    0    0 -0.57866124974E+02 -0.22798212368E+02  0.44006977537E+02  0.76189638263E+02  0.00000000000E+00 0. -1.
         -5    1    5    5    0  502 -0.26949758848E+02 -0.31789315000E+02  0.40689013132E+02  0.58434029810E+02  0.47000000000E+01 0.  1.
         11    1    6    6    0    0  0.49513791649E+02  0.37066515196E+02  0.20572906083E+03  0.21482548401E+03  0.00000000000E+00 0. -1.
        -12    1    6    6    0    0 -0.15386232199E+02  0.48543174715E+01  0.27968436276E+03  0.28014932324E+03  0.00000000000E+00 0.  1.
</event>
<event>
12    1  0.8271773E-002  0.1759310E+03  0.7818608E-02  0.1172184E+00
         21   -1    0    0  501  502  0.00000000000E+00  0.00000000000E+00  0.26445077529E+03  0.26445077529E+03  0.00000000000E+00 0. -1.
         21   -1    0    0  502  503 -0.00000000000E+00 -0.00000000000E+00 -0.29784350454E+03  0.29784350454E+03  0.00000000000E+00 0. -1.
         -6    2    1    2    0  503 -0.29789506788E+02  0.39640510197E+01 -0.23638886453E+03  0.29467169977E+03  0.17334528248E+03 0.  0.
        -24    2    3    3    0    0 -0.44954844600E+01  0.19499344891E+02 -0.34257226380E+02  0.90318030705E+02  0.81137878204E+02 0.  0.
          6    2    1    2  501    0  0.29789506788E+02 -0.39640510197E+01  0.20299613528E+03  0.26762258005E+03  0.17178849205E+03 0.  0.
         24    2    5    5    0    0  0.61040535131E+02 -0.26298035947E+02  0.60965053944E+02  0.12041404864E+03  0.79782652779E+02 0.  0.
          5    1    5    5  501    0 -0.31251028343E+02  0.22333984927E+02  0.14203108133E+03  0.14720853141E+03  0.47000000000E+01 0. -1.
        -11    1    6    6    0    0  0.21699712640E+02 -0.51780567467E+02  0.25643476435E+02  0.61722707163E+02  0.00000000000E+00 0.  1.
         12    1    6    6    0    0  0.39340822492E+02  0.25482531520E+02  0.35321577509E+02  0.58691341480E+02  0.00000000000E+00 0. -1.
         -5    1    3    3    0  503 -0.25294022328E+02 -0.15535293871E+02 -0.20213163815E+03  0.20435366907E+03  0.47000000000E+01 0.  1.
         13    1    4    4    0    0 -0.48451300749E+01 -0.20401338473E+02 -0.44438614673E+02  0.49137362272E+02  0.00000000000E+00 0. -1.
        -14    1    4    4    0    0  0.34964561493E+00  0.39900683364E+02  0.10181388294E+02  0.41180668433E+02  0.00000000000E+00 0.  1.
</event>
<event>
12    1  0.8271773E-002  0.2119765E+03  0.7818608E-02  0.1140354E+00
         21   -1    0    0  503  502  0.00000000000E+00  0.00000000000E+00  0.83920802378E+02  0.83920802378E+02  0.00000000000E+00 0. -1.
         21   -1    0    0  501  503 -0.00000000000E+00 -0.00000000000E+00 -0.11592883689E+04  0.11592883689E+04  0.00000000000E+00 0.  1.
          6    2    1    2  501    0 -0.12502254542E+03 -0.11009845239E+01 -0.99630610131E+03  0.10186068440E+04  0.17117887146E+03 0.  0.
         24    2    3    3    0    0 -0.12163534015E+03  0.47967431840E+02 -0.59802733062E+03  0.61727499645E+03  0.79345463555E+02 0.  0.
         -6    2    1    2    0  502  0.12502254542E+03  0.11009845239E+01 -0.79061465197E+02  0.22460232730E+03  0.16900781378E+03 0.  0.
        -24    2    5    5    0    0  0.94828489239E+02  0.48888098449E+02 -0.96221998744E+02  0.16534135196E+03  0.81832762913E+02 0.  0.
          5    1    3    3  501    0 -0.33872052636E+01 -0.49068416364E+02 -0.39827877069E+03  0.40133184751E+03  0.47000000000E+01 0. -1.
        -11    1    4    4    0    0 -0.17562959815E+02  0.22009206524E+02 -0.39305803202E+02  0.48350893421E+02  0.00000000000E+00 0.  1.
         12    1    4    4    0    0 -0.10407238034E+03  0.25958225316E+02 -0.55872152742E+03  0.56892410303E+03  0.00000000000E+00 0. -1.
         -5    1    5    5    0  502  0.30194056179E+02 -0.47787113925E+02  0.17160533547E+02  0.59260975333E+02  0.47000000000E+01 0.  1.
         13    1    6    6    0    0  0.45843322246E+02  0.16708213681E+02  0.42985001066E+01  0.48982156977E+02  0.00000000000E+00 0. -1.
        -14    1    6    6    0    0  0.48985166993E+02  0.32179884769E+02 -0.10052049885E+03  0.11635919499E+03  0.00000000000E+00 0.  1.
</event>
<event>
12    1  0.8271773E-002  0.1908524E+03  0.7818608E-02  0.1158082E+00
         21   -1    0    0  501  502  0.00000000000E+00  0.00000000000E+00  0.39678879181E+03  0.39678879181E+03  0.00000000000E+00 0.  1.
         21   -1    0    0  502  503 -0.00000000000E+00 -0.00000000000E+00 -0.91047477297E+02  0.91047477297E+02  0.00000000000E+00 0.  1.
         -6    2    1    2    0  503 -0.17730536797E+02  0.78574692661E+02  0.16052047271E+03  0.24938214810E+03  0.17302103736E+03 0.  0.
        -24    2    3    3    0    0 -0.51112010472E+02  0.87007285086E+02  0.56577638456E+02  0.13978454688E+03  0.78460086037E+02 0.  0.
          6    2    1    2  501    0  0.17730536797E+02 -0.78574692661E+02  0.14522084180E+03  0.23845412101E+03  0.17112253116E+03 0.  0.
         24    2    5    5    0    0  0.61841081404E+01  0.16260112331E+02  0.26652119125E+02  0.86113738149E+02  0.80016285827E+02 0.  0.
          5    1    5    5  501    0  0.11546428656E+02 -0.94834804992E+02  0.11856872268E+03  0.15234038286E+03  0.47000000000E+01 0. -1.
        -13    1    6    6    0    0 -0.90404898774E+01 -0.21936201180E+02 -0.14608404569E+02  0.27862750465E+02  0.00000000000E+00 0.  1.
         14    1    6    6    0    0  0.15224598018E+02  0.38196313511E+02  0.41260523693E+02  0.58250987684E+02  0.00000000000E+00 0. -1.
         -5    1    3    3    0  503  0.33381473676E+02 -0.84325924246E+01  0.10394283426E+03  0.10959760122E+03  0.47000000000E+01 0.  1.
         13    1    4    4    0    0 -0.13381493078E+02 -0.13613405874E+02  0.16030808933E+02  0.24927414858E+02  0.00000000000E+00 0. -1.
        -14    1    4    4    0    0 -0.37730517394E+02  0.10062069096E+03  0.40546829523E+02  0.11485713202E+03  0.00000000000E+00 0.  1.
</event>
<event>
12    1  0.8271773E-002  0.1765435E+03  0.7818608E-02  0.1171327E+00
         21   -1    0    0  501  502  0.00000000000E+00  0.00000000000E+00  0.22331547089E+03  0.22331547089E+03  0.00000000000E+00 0. -1.
         21   -1    0    0  502  503 -0.00000000000E+00 -0.00000000000E+00 -0.18881025754E+03  0.18881025754E+03  0.00000000000E+00 0. -1.
         -6    2    1    2    0  503 -0.31503774517E+02 -0.21347338095E+02 -0.88423794183E+02  0.19744964531E+03  0.17239315069E+03 0.  0.
        -24    2    3    3    0    0 -0.76310839322E+02 -0.34554332109E+02 -0.94697009314E+02  0.15008361344E+03  0.80871635229E+02 0.  0.
          6    2    1    2  501    0  0.31503774517E+02  0.21347338095E+02  0.12292900754E+03  0.21467608312E+03  0.17183155448E+03 0.  0.
         24    2    5    5    0    0  0.64401219641E+01 -0.30738313288E+02  0.84167036844E+01  0.86316200389E+02  0.79958279583E+02 0.  0.
          5    1    5    5  501    0  0.25063652553E+02  0.52085651384E+02  0.11451230386E+03  0.12835988273E+03  0.47000000000E+01 0. -1.
        -13    1    6    6    0    0  0.42316957438E+02 -0.11049900782E+02  0.11660999577E+02  0.45263717316E+02  0.00000000000E+00 0.  1.
         14    1    6    6    0    0 -0.35876835474E+02 -0.19688412506E+02 -0.32442958927E+01  0.41052483073E+02  0.00000000000E+00 0. -1.
         -5    1    3    3    0  503  0.44807064805E+02  0.13206994014E+02  0.62732151307E+01  0.47366031873E+02  0.47000000000E+01 0.  1.
         13    1    4    4    0    0 -0.18233754978E+02  0.26327289775E+02 -0.30791246556E+02  0.44426308331E+02  0.00000000000E+00 0. -1.
        -14    1    4    4    0    0 -0.58077084344E+02 -0.60881621884E+02 -0.63905762758E+02  0.10565730511E+03  0.00000000000E+00 0.  1.
</event>
<event>
12    1  0.8271773E-002  0.2450878E+03  0.7818608E-02  0.1117733E+00
         21   -1    0    0  501  502  0.00000000000E+00  0.00000000000E+00  0.25919652146E+03  0.25919652146E+03  0.00000000000E+00 0. -1.
         21   -1    0    0  502  503 -0.00000000000E+00 -0.00000000000E+00 -0.37705408767E+03  0.37705408767E+03  0.00000000000E+00 0.  1.
         -6    2    1    2    0  503  0.74110887395E+02  0.15753370616E+03 -0.26187026804E+03  0.35866982682E+03  0.17250714531E+03 0.  0.
        -24    2    3    3    0    0  0.57503149539E+02  0.17266163077E+03 -0.26935331363E+03  0.33452946579E+03  0.78994335075E+02 0.  0.
          6    2    1    2  501    0 -0.74110887395E+02 -0.15753370616E+03  0.14401270183E+03  0.27758078231E+03  0.16125179134E+03 0.  0.
         24    2    5    5    0    0 -0.40820134697E+02 -0.88447830010E+02  0.15010399408E+02  0.12743146820E+03  0.80772303210E+02 0.  0.
          5    1    5    5  501    0 -0.33290752698E+02 -0.69085876152E+02  0.12900230242E+03  0.15014931411E+03  0.47000000000E+01 0. -1.
        -13    1    6    6    0    0 -0.58182242157E+02 -0.45388043077E+02  0.28466857568E+02  0.79092412636E+02  0.00000000000E+00 0.  1.
         14    1    6    6    0    0  0.17362107460E+02 -0.43059786933E+02 -0.13456458160E+02  0.48339055559E+02  0.00000000000E+00 0. -1.
         -5    1    3    3    0  503  0.16607737855E+02 -0.15127924605E+02  0.74830455866E+01  0.24140361032E+02  0.47000000000E+01 0.  1.
         11    1    4    4    0    0  0.16439251912E+02 -0.35076087072E+01 -0.15846041867E+02  0.23100852043E+02  0.00000000000E+00 0. -1.
        -12    1    4    4    0    0  0.41063897627E+02  0.17616923947E+03 -0.25350727176E+03  0.31142861375E+03  0.00000000000E+00 0.  1.
</event>
<event>
12    1  0.8271773E-002  0.2138354E+03  0.7818608E-02  0.1140298E+00
         21   -1    0    0  503  502  0.00000000000E+00  0.00000000000E+00  0.11314920849E+03  0.11314920849E+03  0.00000000000E+00 0.  1.
         21   -1    0    0  501  503 -0.00000000000E+00 -0.00000000000E+00 -0.47598555788E+03  0.47598555788E+03  0.00000000000E+00 0.  1.
          6    2    1    2  501    0  0.43234216154E+02 -0.11769966922E+03 -0.31134074447E+03  0.37770180136E+03  0.17321426615E+03 0.  0.
         24    2    3    3    0    0 -0.15160397903E+02 -0.43326492934E+02 -0.24550772914E+03  0.26238755155E+03  0.80412433651E+02 0.  0.
         -6    2    1    2    0  502 -0.43234216154E+02  0.11769966922E+03 -0.51495604918E+02  0.21143296502E+03  0.16226426529E+03 0.  0.
        -24    2    5    5    0    0 -0.75570126745E+01  0.25593045788E+02 -0.71507122539E+02  0.11054171780E+03  0.79963056268E+02 0.  0.
          5    1    3    3  501    0  0.58394614057E+02 -0.74373176282E+02 -0.65833015336E+02  0.11531424981E+03  0.47000000000E+01 0. -1.
        -11    1    4    4    0    0  0.31964512282E+01 -0.63393064234E+02 -0.14538738727E+03  0.15863918264E+03  0.00000000000E+00 0.  1.
         12    1    4    4    0    0 -0.18356849131E+02  0.20066571300E+02 -0.10012034187E+03  0.10374836890E+03  0.00000000000E+00 0. -1.
         -5    1    5    5    0  502 -0.35677203479E+02  0.92106623428E+02  0.20011517621E+02  0.10089124722E+03  0.47000000000E+01 0.  1.
         13    1    6    6    0    0  0.11223480982E+02 -0.23424095499E+02 -0.44460556373E+02  0.51491706598E+02  0.00000000000E+00 0. -1.
        -14    1    6    6    0    0 -0.18780493657E+02  0.49017141287E+02 -0.27046566165E+02  0.59050011205E+02  0.00000000000E+00 0.  1.
</event>
<event>
12    1  0.8271773E-002  0.1784811E+03  0.7818608E-02  0.1169436E+00
         21   -1    0    0  501  502  0.00000000000E+00  0.00000000000E+00  0.80255773699E+03  0.80255773699E+03  0.00000000000E+00 0. -1.
         21   -1    0    0  502  503 -0.00000000000E+00 -0.00000000000E+00 -0.45223670317E+02  0.45223670317E+02  0.00000000000E+00 0. -1.
         -6    2    1    2    0  503  0.11734040184E+02 -0.45103296572E+02  0.22913630590E+03  0.29044614202E+03  0.17228905847E+03 0.  0.
        -24    2    3    3    0    0 -0.50324633812E+02 -0.63029669877E+02  0.13519103438E+03  0.17633900850E+03  0.79457674830E+02 0.  0.
          6    2    1    2  501    0 -0.11734040184E+02  0.45103296572E+02  0.52819776076E+03  0.55733526528E+03  0.17163253884E+03 0.  0.
         24    2    5    5    0    0 -0.30945742735E+02  0.79069719218E+01  0.49812886905E+03  0.50557732549E+03  0.80348632048E+02 0.  0.
          5    1    5    5  501    0  0.19211702551E+02  0.37196324650E+02  0.30068891713E+02  0.51757939789E+02  0.47000000000E+01 0. -1.
        -11    1    6    6    0    0 -0.36852066451E+02  0.33891925656E+02  0.19666787050E+03  0.20294085028E+03  0.00000000000E+00 0.  1.
         12    1    6    6    0    0  0.59063237158E+01 -0.25984953734E+02  0.30146099855E+03  0.30263647521E+03  0.00000000000E+00 0. -1.
         -5    1    3    3    0  503  0.62058673997E+02  0.17926373305E+02  0.93945271521E+02  0.11410713352E+03  0.47000000000E+01 0.  1.
         13    1    4    4    0    0 -0.53771755537E+02 -0.54280813340E+02  0.14427927393E+03  0.16326149968E+03  0.00000000000E+00 0. -1.
        -14    1    4    4    0    0  0.34471217244E+01 -0.87488565368E+01 -0.90882395522E+01  0.13077508824E+02  0.00000000000E+00 0.  1.
</event>
<event>
12    1  0.8271773E-002  0.2298343E+03  0.7818608E-02  0.1126804E+00
         21   -1    0    0  503  502  0.00000000000E+00  0.00000000000E+00  0.11677334508E+04  0.11677334508E+04  0.00000000000E+00 0.  1.
         21   -1    0    0  501  503 -0.00000000000E+00 -0.00000000000E+00 -0.48718514821E+02  0.48718514821E+02  0.00000000000E+00 0.  1.
          6    2    1    2  501    0  0.15195817259E+03  0.18791073084E+02  0.39536910954E+03  0.45718448744E+03  0.17104540955E+03 0.  0.
         24    2    3    3    0    0  0.58205377667E+02 -0.65340082191E+02  0.14485938982E+03  0.17674760056E+03  0.50973318081E+02 0.  0.
         -6    2    1    2    0  502 -0.15195817259E+03 -0.18791073084E+02  0.72364582640E+03  0.75926747814E+03  0.17140429008E+03 0.  0.
        -24    2    5    5    0    0 -0.56759825116E+02  0.49526143686E+02  0.29292617088E+03  0.31286913684E+03  0.80042729496E+02 0.  0.
          5    1    3    3  501    0  0.93752794925E+02  0.84131155274E+02  0.25050971973E+03  0.28043688688E+03  0.47000000000E+01 0. -1.
        -13    1    4    4    0    0  0.45922653115E+02 -0.60714645464E+02  0.14483528649E+03  0.16362279320E+03  0.00000000000E+00 0.  1.
         14    1    4    4    0    0  0.12282724552E+02 -0.46254367268E+01  0.24103330970E-01  0.13124807362E+02  0.00000000000E+00 0. -1.
         -5    1    5    5    0  502 -0.95198347476E+02 -0.68317216769E+02  0.43071965552E+03  0.44639834130E+03  0.47000000000E+01 0.  1.
         13    1    6    6    0    0  0.10170687827E+02 -0.56332942411E+01  0.59248521095E+01  0.13049167307E+02  0.00000000000E+00 0. -1.
        -14    1    6    6    0    0 -0.66930512943E+02  0.55159437927E+02  0.28700131877E+03  0.29981996953E+03  0.00000000000E+00 0.  1.
</event>
<event>
12    1  0.8271773E-002  0.2438192E+03  0.7818608E-02  0.1117357E+00
         21   -1    0    0  503  502  0.00000000000E+00  0.00000000000E+00  0.18015701540E+03  0.18015701540E+03  0.00000000000E+00 0.  1.
         21   -1    0    0  501  503 -0.00000000000E+00 -0.00000000000E+00 -0.34453578118E+03  0.34453578118E+03  0.00000000000E+00 0. -1.
          6    2    1    2  501    0 -0.78362631420E+02  0.15360144514E+03 -0.26923935456E+02  0.24479701247E+03  0.17165830322E+03 0.  0.
         24    2    3    3    0    0  0.21977108335E+02  0.54020604857E+02  0.50157068574E+01  0.99791364732E+02  0.80820418953E+02 0.  0.
         -6    2    1    2    0  502  0.78362631420E+02 -0.15360144514E+03 -0.13745483033E+03  0.27989578411E+03  0.17237666208E+03 0.  0.
        -24    2    5    5    0    0  0.96680151367E+01 -0.32391910118E+02 -0.10896530342E+03  0.13761280962E+03  0.76948954928E+02 0.  0.
          5    1    3    3  501    0 -0.10033973976E+03  0.99580840282E+02 -0.31939642314E+02  0.14500564774E+03  0.47000000000E+01 0. -1.
        -13    1    4    4    0    0 -0.57858799703E+01  0.66418002705E+02  0.13923880238E+02  0.68108016644E+02  0.00000000000E+00 0.  1.
         14    1    4    4    0    0  0.27762988305E+02 -0.12397397848E+02 -0.89081733811E+01  0.31683348087E+02  0.00000000000E+00 0. -1.
         -5    1    5    5    0  502  0.68694616283E+02 -0.12120953502E+03 -0.28489526917E+02  0.14228297449E+03  0.47000000000E+01 0.  1.
         11    1    6    6    0    0  0.26872346281E+02 -0.15721454367E+02 -0.57575878206E+01  0.31661284553E+02  0.00000000000E+00 0. -1.
        -12    1    6    6    0    0 -0.17204331144E+02 -0.16670455752E+02 -0.10320771559E+03  0.10595152506E+03  0.00000000000E+00 0.  1.
</event>
<event>
12    1  0.8271773E-002  0.2022422E+03  0.7818608E-02  0.1147939E+00
         21   -1    0    0  501  502  0.00000000000E+00  0.00000000000E+00  0.39735840798E+02  0.39735840798E+02  0.00000000000E+00 0.  1.
         21   -1    0    0  502  503 -0.00000000000E+00 -0.00000000000E+00 -0.11731736760E+04  0.11731736760E+04  0.00000000000E+00 0. -1.
         -6    2    1    2    0  503 -0.56279751241E+02 -0.89325159983E+02 -0.78000065452E+03  0.80569981996E+03  0.17206040867E+03 0.  0.
        -24    2    3    3    0    0 -0.61984193008E+02  0.34835590122E+01 -0.51987540320E+03  0.52941512015E+03  0.78458646579E+02 0.  0.
          6    2    1    2  501    0  0.56279751241E+02  0.89325159983E+02 -0.35343718066E+03  0.40720969681E+03  0.17249783158E+03 0.  0.
         24    2    5    5    0    0  0.70411121082E+02  0.63828252039E+02 -0.35607744838E+03  0.37756431029E+03  0.82048080028E+02 0.  0.
          5    1    5    5  501    0 -0.14131369841E+02  0.25496907944E+02  0.26402677147E+01  0.29645386519E+02  0.47000000000E+01 0. -1.
        -11    1    6    6    0    0  0.88228725692E+02  0.56011052214E+02 -0.27508135704E+03  0.29426399541E+03  0.00000000000E+00 0.  1.
         12    1    6    6    0    0 -0.17817604611E+02  0.78171998245E+01 -0.80996091338E+02  0.83300314880E+02  0.00000000000E+00 0. -1.
         -5    1    3    3    0  503  0.57044417674E+01 -0.92808718995E+02 -0.26012525132E+03  0.27628469981E+03  0.47000000000E+01 0.  1.
         13    1    4    4    0    0  0.10757419687E+02 -0.40784741244E+01 -0.13289524905E+02  0.17577471425E+02  0.00000000000E+00 0. -1.
        -14    1    4    4    0    0 -0.72741612695E+02  0.75620331366E+01 -0.50658587830E+03  0.51183764873E+03  0.00000000000E+00 0.  1.
</event>
<event>
12    1  0.8271773E-002  0.2061906E+03  0.7818608E-02  0.1144989E+00
         21   -1    0    0  501  502  0.00000000000E+00  0.00000000000E+00  0.35029479310E+03  0.35029479310E+03  0.00000000000E+00 0. -1.
         21   -1    0    0  502  503 -0.00000000000E+00 -0.00000000000E+00 -0.12049364987E+03  0.12049364987E+03  0.00000000000E+00 0. -1.
         -6    2    1    2    0  503 -0.11112159861E+03 -0.13351928264E+02  0.12385002894E+03  0.23896907887E+03  0.17100031381E+03 0.  0.
        -24    2    3    3    0    0 -0.63371848374E+02 -0.17803363871E+02 -0.25141198716E+01  0.10372913643E+03  0.80127785530E+02 0.  0.
          6    2    1    2  501    0  0.11112159861E+03  0.13351928264E+02  0.10595111429E+03  0.23181936410E+03  0.17317128886E+03 0.  0.
         24    2    5    5    0    0  0.29665500071E+02  0.70117933496E+02  0.76106561598E+02  0.12803948809E+03  0.69320525815E+02 0.  0.
          5    1    5    5  501    0  0.81456098541E+02 -0.56766005232E+02  0.29844552692E+02  0.10377987601E+03  0.47000000000E+01 0. -1.
        -13    1    6    6    0    0  0.20451734407E+01  0.40322066333E+02 -0.15427404988E+01  0.40403363919E+02  0.00000000000E+00 0.  1.
         14    1    6    6    0    0  0.27620326630E+02  0.29795867163E+02  0.77649302097E+02  0.87636124168E+02  0.00000000000E+00 0. -1.
         -5    1    3    3    0  503 -0.47749750237E+02  0.44514356067E+01  0.12636414881E+03  0.13523994244E+03  0.47000000000E+01 0.  1.
         11    1    4    4    0    0 -0.62643283193E+02 -0.95977509658E+01  0.30051045978E+02  0.70138171613E+02  0.00000000000E+00 0. -1.
        -12    1    4    4    0    0 -0.72856518094E+00 -0.82056129047E+01 -0.32565165850E+02  0.33590964815E+02  0.00000000000E+00 0.  1.
</event>
<event>
12    1  0.8271773E-002  0.1959324E+03  0.7818608E-02  0.1153225E+00
         21   -1    0    0  503  502  0.00000000000E+00  0.00000000000E+00  0.68462832142E+02  0.68462832142E+02  0.00000000000E+00 0.  1.
         21   -1    0    0  501  503 -0.00000000000E+00 -0.00000000000E+00 -0.62815847355E+03  0.62815847355E+03  0.00000000000E+00 0. -1.
          6    2    1    2  501    0 -0.41319846531E+02  0.83178595858E+02 -0.39402543169E+03  0.44003582795E+03  0.17248037724E+03 0.  0.
         24    2    3    3    0    0  0.11865505774E+02  0.19805391480E+02 -0.31887930458E+03  0.32817039471E+03  0.74018601162E+02 0.  0.
         -6    2    1    2    0  502  0.41319846531E+02 -0.83178595858E+02 -0.16567020972E+03  0.25658547774E+03  0.17252095663E+03 0.  0.
        -24    2    5    5    0    0  0.33915057067E+02  0.21809770785E+02 -0.92113722072E+02  0.12809409705E+03  0.79355294142E+02 0.  0.
          5    1    3    3  501    0 -0.53185352305E+02  0.63373204378E+02 -0.75146127112E+02  0.11186543324E+03  0.47000000000E+01 0. -1.
        -11    1    4    4    0    0 -0.50071197815E+01  0.32353239764E+02 -0.59267823399E+02  0.67708775370E+02  0.00000000000E+00 0.  1.
         12    1    4    4    0    0  0.16872625555E+02 -0.12547848284E+02 -0.25961148118E+03  0.26046161934E+03  0.00000000000E+00 0. -1.
         -5    1    5    5    0  502  0.74047894641E+01 -0.10498836664E+03 -0.73556487644E+02  0.12849138069E+03  0.47000000000E+01 0.  1.
         13    1    6    6    0    0  0.28499100905E+02 -0.12956443777E+01  0.42569694246E+01  0.28844396950E+02  0.00000000000E+00 0. -1.
        -14    1    6    6    0    0  0.54159561619E+01  0.23105415163E+02 -0.96370691496E+02  0.99249700103E+02  0.00000000000E+00 0.  1.
</event>
<event>
12    1  0.8271773E-002  0.2062081E+03  0.7818608E-02  0.1145982E+00
         21   -1    0    0  501  502  0.00000000000E+00  0.00000000000E+00  0.49339842370E+03  0.49339842370E+03  0.00000000000E+00 0. -1.
         21   -1    0    0  502  503 -0.00000000000E+00 -0.00000000000E+00 -0.14933864574E+03  0.14933864574E+03  0.00000000000E+00 0. -1.
         -6    2    1    2    0  503  0.86992207265E+02  0.73472561486E+02 -0.39894638069E+02  0.21003177802E+03  0.17191830681E+03 0.  0.
        -24    2    3    3    0    0  0.71897849736E+02  0.10106307638E+03 -0.71331686760E+02  0.16531652144E+03  0.82814832731E+02 0.  0.
          6    2    1    2  501    0 -0.86992207265E+02 -0.73472561486E+02  0.38395441604E+03  0.43270529142E+03  0.16385058502E+03 0.  0.
         24    2    5    5    0    0 -0.70080728227E+02 -0.53649811298E+02  0.12659607477E+03  0.17398856338E+03  0.80348262697E+02 0.  0.
          5    1    5    5  501    0 -0.16911479038E+02 -0.19822750188E+02  0.25735834126E+03  0.25871672804E+03  0.47000000000E+01 0. -1.
        -13    1    6    6    0    0 -0.67972693100E+02 -0.18787227515E+02  0.11887495184E+03  0.13821903306E+03  0.00000000000E+00 0.  1.
         14    1    6    6    0    0 -0.21080351276E+01 -0.34862583783E+02  0.77211229336E+01  0.35769530322E+02  0.00000000000E+00 0. -1.
         -5    1    3    3    0  503  0.15094357529E+02 -0.27590514890E+02  0.31437048691E+02  0.44715256585E+02  0.47000000000E+01 0.  1.
         11    1    4    4    0    0  0.30472136961E+02  0.87425251264E+02 -0.14551863825E+02  0.93720234903E+02  0.00000000000E+00 0. -1.
        -12    1    4    4    0    0  0.41425712775E+02  0.13637825112E+02 -0.56779822935E+02  0.71596286532E+02  0.00000000000E+00 0.  1.
</event>
<event>
12    1  0.8271773E-002  0.1840541E+03  0.7818608E-02  0.1164854E+00
         21   -1    0    0  503  502  0.00000000000E+00  0.00000000000E+00  0.12666261186E+04  0.12666261186E+04  0.00000000000E+00 0.  1.
         21   -1    0    0  501  503 -0.00000000000E+00 -0.00000000000E+00 -0.26646906590E+02  0.26646906590E+02  0.00000000000E+00 0.  1.
          6    2    1    2  501    0  0.18737721123E+02 -0.63735683337E+02  0.54150269353E+03  0.57192750064E+03  0.17164661186E+03 0.  0.
         24    2    3    3    0    0 -0.41571346325E+02  0.74213975707E+01  0.25731592158E+03  0.27278752483E+03  0.80114269784E+02 0.  0.
         -6    2    1    2    0  502 -0.18737721123E+02  0.63735683337E+02  0.69847651846E+03  0.72134552453E+03  0.16750098328E+03 0.  0.
        -24    2    5    5    0    0  0.33669377317E+02 -0.10813588811E+02  0.32101588727E+03  0.33301227068E+03  0.81212141183E+02 0.  0.
          5    1    3    3  501    0  0.60309067448E+02 -0.71157080907E+02  0.28418677195E+03  0.29913997581E+03  0.47000000000E+01 0. -1.
        -13    1    4    4    0    0 -0.34392194338E+02 -0.33260592436E+02  0.11390609840E+03  0.12354630425E+03  0.00000000000E+00 0.  1.
         14    1    4    4    0    0 -0.71791519874E+01  0.40681990007E+02  0.14340982318E+03  0.14924122057E+03  0.00000000000E+00 0. -1.
         -5    1    5    5    0  502 -0.52407098440E+02  0.74549272148E+02  0.37746063119E+03  0.38833325385E+03  0.47000000000E+01 0.  1.
         13    1    6    6    0    0  0.16486075266E+02 -0.39495280775E+02  0.25942268953E+03  0.26292926754E+03  0.00000000000E+00 0. -1.
        -14    1    6    6    0    0  0.17183302051E+02  0.28681691964E+02  0.61593197732E+02  0.70083003147E+02  0.00000000000E+00 0.  1.
</event>
<event>
12    1  0.8271773E-002  0.2593145E+03  0.7818608E-02  0.1108779E+00
         21   -1    0    0  503  502  0.00000000000E+00  0.00000000000E+00  0.19894885844E+03  0.19894885844E+03  0.00000000000E+00 0.  1.
         21   -1    0    0  501  503 -0.00000000000E+00 -0.00000000000E+00 -0.33174333764E+03  0.33174333764E+03  0.00000000000E+00 0.  1.
          6    2    1    2  501    0  0.87798394766E+02  0.16181283358E+03 -0.35995811983E+02  0.25389988290E+03  0.17110669427E+03 0.  0.
         24    2    3    3    0    0  0.34590312064E+02  0.14631156643E+03 -0.72761872301E+02  0.18722738078E+03  0.84594550012E+02 0.  0.
         -6    2    1    2    0  502 -0.87798394766E+02 -0.16181283358E+03 -0.96798667222E+02  0.27679231318E+03  0.18262544025E+03 0.  0.
        -24    2    5    5    0    0  0.61797228700E+01 -0.10309336164E+03 -0.10634930610E+03  0.16546770816E+03  0.73504811732E+02 0.  0.
          5    1    3    3  501    0  0.53208082702E+02  0.15501267143E+02  0.36766060318E+02  0.66672502122E+02  0.47000000000E+01 0. -1.
        -11    1    4    4    0    0  0.47247297085E+02  0.96440656205E+02 -0.12700219917E+02  0.10814066227E+03  0.00000000000E+00 0.  1.
         12    1    4    4    0    0 -0.12656985021E+02  0.49870910228E+02 -0.60061652384E+02  0.79086718505E+02  0.00000000000E+00 0. -1.
         -5    1    5    5    0  502 -0.93978117636E+02 -0.58719471938E+02  0.95506388798E+01  0.11132460502E+03  0.47000000000E+01 0.  1.
         11    1    6    6    0    0  0.21789241934E+02 -0.56705945578E+01 -0.42054765046E+02  0.47702515340E+02  0.00000000000E+00 0. -1.
        -12    1    6    6    0    0 -0.15609519064E+02 -0.97422767080E+02 -0.64294541055E+02  0.11776519282E+03  0.00000000000E+00 0.  1.
</event>
<event>
12    1  0.8271773E-002  0.1914631E+03  0.7818608E-02  0.1157211E+00
         21   -1    0    0  503  502  0.00000000000E+00  0.00000000000E+00  0.14318797730E+04  0.14318797730E+04  0.00000000000E+00 0.  1.
         21   -1    0    0  501  503 -0.00000000000E+00 -0.00000000000E+00 -0.47331044248E+02  0.47331044248E+02  0.00000000000E+00 0. -1.
          6    2    1    2  501    0  0.69830224436E+02 -0.48395488669E+02  0.19043742438E+03  0.26984737619E+03  0.17126824068E+03 0.  0.
         24    2    3    3    0    0  0.16165050912E+02  0.20268841786E+02  0.34482042191E+02  0.91132764701E+02  0.80274745406E+02 0.  0.
         -6    2    1    2    0  502 -0.69830224436E+02  0.48395488669E+02  0.11941113043E+04  0.12093634410E+04  0.17158013220E+03 0.  0.
        -24    2    5    5    0    0 -0.12531385695E+02  0.73379680010E+02  0.98645489510E+03  0.99245184374E+03  0.79534828908E+02 0.  0.
          5    1    3    3  501    0  0.53665173524E+02 -0.68664330456E+02  0.15595538219E+03  0.17871461149E+03  0.47000000000E+01 0. -1.
        -13    1    4    4    0    0  0.11687363569E+02  0.32439208820E+02  0.56143540903E+02  0.65886219509E+02  0.00000000000E+00 0.  1.
         14    1    4    4    0    0  0.44776873426E+01 -0.12170367033E+02 -0.21661498712E+02  0.25246545192E+02  0.00000000000E+00 0. -1.
         -5    1    5    5    0  502 -0.57298838741E+02 -0.24984191341E+02  0.20765640924E+03  0.21691159729E+03  0.47000000000E+01 0.  1.
         13    1    6    6    0    0 -0.33688967921E+02  0.40722755562E+01  0.22322431252E+03  0.22578889186E+03  0.00000000000E+00 0. -1.
        -14    1    6    6    0    0  0.21157582226E+02  0.69307404454E+02  0.76323058258E+03  0.76666295188E+03  0.00000000000E+00 0.  1.
</event>
<event>
12    1  0.8271773E-002  0.2152576E+03  0.7818608E-02  0.1138364E+00
         21   -1    0    0  501  502  0.00000000000E+00  0.00000000000E+00  0.27763813463E+03  0.27763813463E+03  0.00000000000E+00 0. -1.
         21   -1    0    0  502  503 -0.00000000000E+00 -0.00000000000E+00 -0.20916036006E+03  0.20916036006E+03  0.00000000000E+00 0. -1.
         -6    2    1    2    0  503 -0.89646570165E+02 -0.81687106633E+02  0.14845145082E+03  0.26148361820E+03  0.17783857401E+03 0.  0.
        -24    2    3    3    0    0 -0.29873190615E+02 -0.99687570587E+02  0.40775413664E+02  0.13693205224E+03  0.79105836224E+02 0.  0.
          6    2    1    2  501    0  0.89646570165E+02  0.81687106633E+02 -0.79973676255E+02  0.22531487648E+03  0.17222576386E+03 0.  0.
         24    2    5    5    0    0  0.55892331931E+02  0.26380250200E+02 -0.11517517299E+03  0.15142690494E+03  0.76452054886E+02 0.  0.
          5    1    5    5  501    0  0.33754238234E+02  0.55306856433E+02  0.35201496732E+02  0.73887971547E+02  0.47000000000E+01 0. -1.
        -11    1    6    6    0    0  0.49776732528E+02  0.16582210111E+02 -0.20946340644E+02  0.56492848925E+02  0.00000000000E+00 0.  1.
         12    1    6    6    0    0  0.61155994031E+01  0.97980400890E+01 -0.94228832343E+02  0.94934056010E+02  0.00000000000E+00 0. -1.
         -5    1    3    3    0  503 -0.59773379550E+02  0.18000463955E+02  0.10767603716E+03  0.12455156596E+03  0.47000000000E+01 0.  1.
         13    1    4    4    0    0  0.89107286897E+01 -0.75186496262E+02  0.49194333524E+02  0.90291155474E+02  0.00000000000E+00 0. -1.
        -14    1    4    4    0    0 -0.38783919305E+02 -0.24501074325E+02 -0.84189198604E+01  0.46640896768E+02  0.00000000000E+00 0.  1.
</event>
<event>
12    1  0.8271773E-002  0.1806005E+03  0.7818608E-02  0.1167507E+00
         21   -1    0    0  503  502  0.00000000000E+00  0.00000000000E+00  0.24973776597E+02  0.24973776597E+02  0.00000000000E+00 0.  1.
         21   -1    0    0  501  503 -0.00000000000E+00 -0.00000000000E+00 -0.12976480215E+04  0.12976480215E+04  0.00000000000E+00 0.  1.
          6    2    1    2  501    0 -0.32978312926E+02  0.43605841061E+02 -0.63965511399E+03  0.66434391092E+03  0.17089508076E+03 0.  0.
         24    2    3    3    0    0 -0.48558537278E+02 -0.33337598754E+02 -0.33036184087E+03  0.34520843010E+03  0.80997452289E+02 0.  0.
         -6    2    1    2    0  502  0.32978312926E+02 -0.43605841061E+02 -0.63301913088E+03  0.65827788714E+03  0.17212645973E+03 0.  0.
        -24    2    5    5    0    0  0.37267587387E+02 -0.28412741990E+02 -0.15820791387E+03  0.18318104445E+03  0.79557489014E+02 0.  0.
          5    1    3    3  501    0  0.15580224352E+02  0.76943439815E+02 -0.30929327312E+03  0.31913548082E+03  0.47000000000E+01 0. -1.
        -11    1    4    4    0    0 -0.51323356890E+02  0.10801278546E+02 -0.13334125180E+03  0.14328518421E+03  0.00000000000E+00 0.  1.
         12    1    4    4    0    0  0.27648196121E+01 -0.44138877299E+02 -0.19702058907E+03  0.20192324590E+03  0.00000000000E+00 0. -1.
         -5    1    5    5    0  502 -0.42892744610E+01 -0.15193099071E+02 -0.47481121701E+03  0.47509684269E+03  0.47000000000E+01 0.  1.
         13    1    6    6    0    0 -0.13499267902E+02 -0.33987337195E+02 -0.95778415992E+02  0.10252255505E+03  0.00000000000E+00 0. -1.
        -14    1    6    6    0    0  0.50766855288E+02  0.55745952055E+01 -0.62429497875E+02  0.80658489401E+02  0.00000000000E+00 0.  1.
</event>
<event>
12    1  0.8271773E-002  0.1989467E+03  0.7818608E-02  0.1151045E+00
         21   -1    0    0  503  502  0.00000000000E+00  0.00000000000E+00  0.71073794404E+03  0.71073794404E+03  0.00000000000E+00 0. -1.
         21   -1    0    0  501  503 -0.00000000000E+00 -0.00000000000E+00 -0.71844902328E+02  0.71844902328E+02  0.00000000000E+00 0. -1.
          6    2    1    2  501    0 -0.24381013248E+02  0.97263782322E+02  0.13200611037E+03  0.23875806122E+03  0.17182875621E+03 0.  0.
         24    2    3    3    0    0  0.43292535096E+02  0.75454021519E+02  0.44539459348E+02  0.12594015549E+03  0.79433030701E+02 0.  0.
         -6    2    1    2    0  502  0.24381013248E+02 -0.97263782322E+02  0.50688693134E+03  0.54382478515E+03  0.16957699910E+03 0.  0.
        -24    2    5    5    0    0  0.41915009786E+02 -0.11190581232E+01  0.17402461748E+03  0.19688003593E+03  0.81969876917E+02 0.  0.
          5    1    3    3  501    0 -0.67673548344E+02  0.21809760803E+02  0.87466651025E+02  0.11281790573E+03  0.47000000000E+01 0. -1.
        -11    1    4    4    0    0  0.26954762354E+02  0.36479806180E+02 -0.19371107690E+02  0.49321144407E+02  0.00000000000E+00 0.  1.
         12    1    4    4    0    0  0.16337772742E+02  0.38974215339E+02  0.63910567038E+02  0.76619011078E+02  0.00000000000E+00 0. -1.
         -5    1    5    5    0  502 -0.17533996538E+02 -0.96144724199E+02  0.33286231386E+03  0.34694474923E+03  0.47000000000E+01 0.  1.
         13    1    6    6    0    0  0.26347468875E+02  0.20139454642E+02  0.16608096903E+03  0.16935960269E+03  0.00000000000E+00 0. -1.
        -14    1    6    6    0    0  0.15567540911E+02 -0.21258512765E+02  0.79436484501E+01  0.27520433239E+02  0.00000000000E+00 0.  1.
</event>
<event>
12    1  0.8271773E-002  0.2096037E+03  0.7818608E-02  0.1142039E+00
         21   -1    0    0  501  502  0.00000000000E+00  0.00000000000E+00  0.44441710930E+03  0.44441710930E+03  0.00000000000E+00 0.  1.
         21   -1    0    0  502  503 -0.00000000000E+00 -0.00000000000E+00 -0.98559654520E+02  0.98559654520E+02  0.00000000000E+00 0.  1.
         -6    2    1    2    0  503  0.78979359038E+01  0.11834714724E+03  0.16495885145E+03  0.26610493751E+03  0.17184874291E+03 0.  0.
        -24    2    3    3    0    0 -0.12173603983E+02  0.11736442090E+01  0.10826530866E+03  0.13431440552E+03  0.78545581653E+02 0.  0.
          6    2    1    2  501    0 -0.78979359038E+01 -0.11834714724E+03  0.18089860333E+03  0.27687182632E+03  0.17281573675E+03 0.  0.
         24    2    5    5    0    0 -0.59789326891E+00 -0.15264958583E+03  0.16225468918E+03  0.23687640845E+03  0.80508354773E+02 0.  0.
          5    1    5    5  501    0 -0.73000426349E+01  0.34302438588E+02  0.18643914148E+02  0.39995417867E+02  0.47000000000E+01 0. -1.
        -11    1    6    6    0    0  0.61081854468E+01  0.58543932937E+01  0.27344704417E+02  0.28623708879E+02  0.00000000000E+00 0.  1.
         12    1    6    6    0    0 -0.67060787157E+01 -0.15850397912E+03  0.13490998477E+03  0.20825269957E+03  0.00000000000E+00 0. -1.
         -5    1    3    3    0  503  0.20071539887E+02  0.11717350303E+03  0.56693542793E+02  0.13179053198E+03  0.47000000000E+01 0.  1.
         13    1    4    4    0    0  0.26808138951E+02  0.19858326387E+02  0.29819348470E+02  0.44746206365E+02  0.00000000000E+00 0. -1.
        -14    1    4    4    0    0 -0.38981742934E+02 -0.18684682178E+02  0.78445960188E+02  0.89568199157E+02  0.00000000000E+00 0.  1.
</event>
<event>
12    1  0.8271773E-002  0.2075286E+03  0.7818608E-02  0.1144608E+00
         21   -1    0    0  501  502  0.00000000000E+00  0.00000000000E+00  0.62057464973E+02  0.62057464973E+02  0.00000000000E+00 0. -1.
         21   -1    0    0  502  503 -0.00000000000E+00 -0.00000000000E+00 -0.71952579679E+03  0.71952579679E+03  0.00000000000E+00 0. -1.
         -6    2    1    2    0  503  0.23328761252E+02 -0.11193551584E+03 -0.42025677970E+03  0.46640484608E+03  0.16686500159E+03 0.  0.
        -24    2    3    3    0    0  0.81480621685E+01 -0.47982133949E+01 -0.26051996948E+03  0.27341056187E+03  0.82421278048E+02 0.  0.
          6    2    1    2  501    0 -0.23328761252E+02  0.11193551584E+03 -0.23721155211E+03  0.31517841568E+03  0.17318869030E+03 0.  0.
         24    2    5    5    0    0  0.72892951513E+01  0.64662190439E+01 -0.15551518055E+03  0.17821993631E+03  0.86501031819E+02 0.  0.
          5    1    5    5  501    0 -0.30618056403E+02  0.10546929679E+03 -0.81696371567E+02  0.13695847937E+03  0.47000000000E+01 0. -1.
        -11    1    6    6    0    0  0.25146642249E+02 -0.31508518224E+02 -0.47272396399E+02  0.62127448027E+02  0.00000000000E+00 0.  1.
         12    1    6    6    0    0 -0.17857347097E+02  0.37974737268E+02 -0.10824278415E+03  0.11609248828E+03  0.00000000000E+00 0. -1.
         -5    1    3    3    0  503  0.15180699084E+02 -0.10713730244E+03 -0.15973681023E+03  0.19299428422E+03  0.47000000000E+01 0.  1.
         11    1    4    4    0    0  0.34485583532E+02 -0.30111243490E+02 -0.16165572989E+03  0.16801344429E+03  0.00000000000E+00 0. -1.
        -12    1    4    4    0    0 -0.26337521364E+02  0.25313030095E+02 -0.98864239583E+02  0.10539711757E+03  0.00000000000E+00 0.  1.
</event>
<event>
12    1  0.8271773E-002  0.1811959E+03  0.7818608E-02  0.1166950E+00
         21   -1    0    0  501  502  0.00000000000E+00  0.00000000000E+00  0.71488996424E+02  0.71488996424E+02  0.00000000000E+00 0.  1.
         21   -1    0    0  502  503 -0.00000000000E+00 -0.00000000000E+00 -0.52097199737E+03  0.52097199737E+03  0.00000000000E+00 0.  1.
         -6    2    1    2    0  503 -0.53593246836E+02  0.12996653081E+02 -0.32858514307E+03  0.37463479049E+03  0.17129471942E+03 0.  0.
        -24    2    3    3    0    0  0.22971884871E+02 -0.29923008011E+02 -0.12962539603E+03  0.15712298014E+03  0.80385282777E+02 0.  0.
          6    2    1    2  501    0  0.53593246836E+02 -0.12996653081E+02 -0.12089785788E+03  0.21782620331E+03  0.17260015559E+03 0.  0.
         24    2    5    5    0    0  0.86882564028E+02 -0.54194148151E+02 -0.82648121965E+02  0.15232395498E+03  0.76722158271E+02 0.  0.
          5    1    5    5  501    0 -0.33289317193E+02  0.41197495070E+02 -0.38249735917E+02  0.65502248335E+02  0.47000000000E+01 0. -1.
        -13    1    6    6    0    0  0.64643771907E+02  0.48827616030E+01 -0.41628318226E+02  0.77042686126E+02  0.00000000000E+00 0.  1.
         14    1    6    6    0    0  0.22238792122E+02 -0.59076909754E+02 -0.41019803739E+02  0.75281268851E+02  0.00000000000E+00 0. -1.
         -5    1    3    3    0  503 -0.76565131706E+02  0.42919661091E+02 -0.19895974704E+03  0.21751181035E+03  0.47000000000E+01 0.  1.
         13    1    4    4    0    0  0.28116569562E+02 -0.14586075088E+01 -0.42733335341E+01  0.28476839699E+02  0.00000000000E+00 0. -1.
        -14    1    4    4    0    0 -0.51446846908E+01 -0.28464400502E+02 -0.12535206250E+03  0.12864614044E+03  0.00000000000E+00 0.  1.
</event>
<event>
12    1  0.8271773E-002  0.1753650E+03  0.7818608E-02  0.1172384E+00
         21   -1    0    0  501  502  0.00000000000E+00  0.00000000000E+00  0.77968811104E+02  0.77968811104E+02  0.00000000000E+00 0. -1.
         21   -1    0    0  502  503 -0.00000000000E+00 -0.00000000000E+00 -0.51657233063E+03  0.51657233063E+03  0.00000000000E+00 0. -1.
         -6    2    1    2    0  503 -0.33674143103E+02 -0.68558232262E+01 -0.36398580131E+03  0.40402790076E+03  0.17196491157E+03 0.  0.
        -24    2    3    3    0    0 -0.58848394305E+02 -0.14541786754E+02 -0.11187910004E+03  0.15050729848E+03  0.80379828281E+02 0.  0.
          6    2    1    2  501    0  0.33674143103E+02  0.68558232262E+01 -0.74617718219E+02  0.19051324098E+03  0.17189107274E+03 0.  0.
         24    2    5    5    0    0 -0.12091913615E+02 -0.52523341849E+02 -0.29935260392E+02  0.10311170077E+03  0.82649786494E+02 0.  0.
          5    1    5    5  501    0  0.45766056718E+02  0.59379165075E+02 -0.44682457828E+02  0.87401540204E+02  0.47000000000E+01 0. -1.
        -13    1    6    6    0    0 -0.45922090311E+02 -0.15794525099E+02 -0.17815251883E+02  0.51727058695E+02  0.00000000000E+00 0.  1.
         14    1    6    6    0    0  0.33830176695E+02 -0.36728816750E+02 -0.12120008509E+02  0.51384642077E+02  0.00000000000E+00 0. -1.
         -5    1    3    3    0  503  0.25174251202E+02  0.76859635276E+01 -0.25210670126E+03  0.25352060228E+03  0.47000000000E+01 0.  1.
         13    1    4    4    0    0 -0.30028945404E+02 -0.18632841808E+02 -0.11585820519E+03  0.12112821333E+03  0.00000000000E+00 0. -1.
        -14    1    4    4    0    0 -0.28819448901E+02  0.40910550539E+01  0.39791051412E+01  0.29379085148E+02  0.00000000000E+00 0.  1.
</event>
<event>
12    1  0.8271773E-002  0.1946085E+03  0.7818608E-02  0.1157017E+00
         21   -1    0    0  503  502  0.00000000000E+00  0.00000000000E+00  0.11546325381E+03  0.11546325381E+03  0.00000000000E+00 0.  1.
         21   -1    0    0  501  503 -0.00000000000E+00 -0.00000000000E+00 -0.50720495942E+03  0.50720495942E+03  0.00000000000E+00 0.  1.
          6    2    1    2  501    0 -0.50642324114E+02  0.39111160879E+02 -0.39435684967E+03  0.43976107043E+03  0.18378831924E+03 0.  0.
         24    2    3    3    0    0 -0.73720267204E+02  0.85622818662E+02 -0.26807309317E+03  0.30313895318E+03  0.85229670775E+02 0.  0.
         -6    2    1    2    0  502  0.50642324114E+02 -0.39111160879E+02  0.26151440497E+01  0.18290714280E+03  0.17132967055E+03 0.  0.
        -24    2    5    5    0    0  0.23676864622E+02  0.33744509016E+02 -0.35538999314E+02  0.96230079528E+02  0.79359447621E+02 0.  0.
          5    1    3    3  501    0  0.23077943090E+02 -0.46511657783E+02 -0.12628375650E+03  0.13662211725E+03  0.47000000000E+01 0. -1.
        -11    1    4    4    0    0 -0.40000622725E+02 -0.54676840524E+01 -0.11468250780E+03  0.12158134307E+03  0.00000000000E+00 0.  1.
         12    1    4    4    0    0 -0.33719644480E+02  0.91090502714E+02 -0.15339058537E+03  0.18155761011E+03  0.00000000000E+00 0. -1.
         -5    1    5    5    0  502  0.26965459492E+02 -0.72855669895E+02  0.38154143364E+02  0.86677063271E+02  0.47000000000E+01 0.  1.
         11    1    6    6    0    0 -0.22848049264E+02  0.46811332598E+01  0.95687415675E+01  0.25209267720E+02  0.00000000000E+00 0. -1.
        -12    1    6    6    0    0  0.46524913886E+02  0.29063375756E+02 -0.45107740882E+02  0.71020811808E+02  0.00000000000E+00 0.  1.
</event>
<event>
12    1  0.8271773E-002  0.1911893E+03  0.7818608E-02  0.1157464E+00
         21   -1    0    0  501  502  0.00000000000E+00  0.00000000000E+00  0.10748284200E+04  0.10748284200E+04  0.00000000000E+00 0.  1.
         21   -1    0    0  502  503 -0.00000000000E+00 -0.00000000000E+00 -0.56192293190E+02  0.56192293190E+02  0.00000000000E+00 0.  1.
         -6    2    1    2    0  503 -0.11212329360E+01 -0.84073000511E+02  0.15329072228E+03  0.24480628037E+03  0.17135501975E+03 0.  0.
        -24    2    3    3    0    0 -0.47381268767E+02  0.10722174521E+01  0.59382737367E+02  0.10978591640E+03  0.79249628783E+02 0.  0.
          6    2    1    2  501    0  0.11212329360E+01  0.84073000511E+02  0.86534540448E+03  0.88621443277E+03  0.17170854728E+03 0.  0.
         24    2    5    5    0    0  0.46779209857E+02  0.88535078002E+02  0.76982485795E+03  0.78014452280E+03  0.77255485354E+02 0.  0.
          5    1    5    5  501    0 -0.45657976921E+02 -0.44620774905E+01  0.95520546533E+02  0.10606990997E+03  0.47000000000E+01 0. -1.
        -13    1    6    6    0    0 -0.20831697816E+01  0.21168961192E+01  0.29677144315E+03  0.29678630412E+03  0.00000000000E+00 0.  1.
         14    1    6    6    0    0  0.48862379638E+02  0.86418181883E+02  0.47305341480E+03  0.48335821867E+03  0.00000000000E+00 0. -1.
         -5    1    3    3    0  503  0.46260035831E+02 -0.85145217964E+02  0.93907984913E+02  0.13502036397E+03  0.47000000000E+01 0.  1.
         11    1    4    4    0    0  0.91696657765E+01 -0.18515229927E+02  0.43048017040E+02  0.47749641682E+02  0.00000000000E+00 0. -1.
        -12    1    4    4    0    0 -0.56550934544E+02  0.19587447379E+02  0.16334720326E+02  0.62036274717E+02  0.00000000000E+00 0.  1.
</event>
<event>
12    1  0.8271773E-002  0.1988938E+03  0.7818608E-02  0.1150839E+00
         21   -1    0    0  501  502  0.00000000000E+00  0.00000000000E+00  0.83407489822E+03  0.83407489822E+03  0.00000000000E+00 0. -1.
         21   -1    0    0  502  503 -0.00000000000E+00 -0.00000000000E+00 -0.16032437572E+03  0.16032437572E+03  0.00000000000E+00 0. -1.
         -6    2    1    2    0  503 -0.46284380864E+02 -0.91580355941E+02 -0.80879151927E+02  0.21399893418E+03  0.16948422082E+03 0.  0.
        -24    2    3    3    0    0 -0.11426140642E+02 -0.97264641048E+02 -0.14301688900E+01  0.12692632704E+03  0.80729672517E+02 0.  0.
          6    2    1    2  501    0  0.46284380864E+02  0.91580355941E+02  0.75462967443E+03  0.78040033976E+03  0.17038057184E+03 0.  0.
         24    2    5    5    0    0  0.61576517256E+02  0.12563132964E+03  0.59951753676E+03  0.62079086793E+03  0.79906985665E+02 0.  0.
          5    1    5    5  501    0 -0.15292136392E+02 -0.34050973699E+02  0.15511213766E+03  0.15960947182E+03  0.47000000000E+01 0. -1.
        -11    1    6    6    0    0  0.10780874336E+02  0.18674658478E+02  0.26611134252E+03  0.26698355144E+03  0.00000000000E+00 0.  1.
         12    1    6    6    0    0  0.50795642920E+02  0.10695667116E+03  0.33340619424E+03  0.35380731650E+03  0.00000000000E+00 0. -1.
         -5    1    3    3    0  503 -0.34858240222E+02  0.56842851071E+01 -0.79448983037E+02  0.87072607140E+02  0.47000000000E+01 0.  1.
         11    1    4    4    0    0 -0.33099404806E+01  0.10374771846E+02 -0.14564090390E+02  0.18185277720E+02  0.00000000000E+00 0. -1.
        -12    1    4    4    0    0 -0.81162001618E+01 -0.10763941289E+03  0.13133921500E+02  0.10874104932E+03  0.00000000000E+00 0.  1.
</event>
<event>
12    1  0.8271773E-002  0.2350815E+03  0.7818608E-02  0.1123133E+00
         21   -1    0    0  503  502  0.00000000000E+00  0.00000000000E+00  0.63482341221E+03  0.63482341221E+03  0.00000000000E+00 0.  1.
         21   -1    0    0  501  503 -0.00000000000E+00 -0.00000000000E+00 -0.91995611619E+02  0.91995611619E+02  0.00000000000E+00 0.  1.
          6    2    1    2  501    0 -0.22074889062E+02  0.15863854915E+03  0.18688411185E+03  0.30031478287E+03  0.17207500557E+03 0.  0.
         24    2    3    3    0    0 -0.32859181556E+02  0.23383568105E+02  0.11815973299E+03  0.14814599135E+03  0.79743308068E+02 0.  0.
         -6    2    1    2    0  502  0.22074889062E+02 -0.15863854915E+03  0.35594368874E+03  0.42650424096E+03  0.17191994649E+03 0.  0.
        -24    2    5    5    0    0  0.30758420527E+02 -0.16972936495E+03  0.36317772257E+03  0.40998663947E+03  0.80229973269E+02 0.  0.
          5    1    3    3  501    0  0.10784292494E+02  0.13525498105E+03  0.68724378864E+02  0.15216879152E+03  0.47000000000E+01 0. -1.
        -13    1    4    4    0    0 -0.36749611369E+02  0.50165197491E+02  0.78845617735E+02  0.10041768973E+03  0.00000000000E+00 0.  1.
         14    1    4    4    0    0  0.38904298128E+01 -0.26781629385E+02  0.39314115256E+02  0.47728301614E+02  0.00000000000E+00 0. -1.
         -5    1    5    5    0  502 -0.86835314653E+01  0.11090815797E+02 -0.72340338306E+01  0.16517601497E+02  0.47000000000E+01 0.  1.
         11    1    6    6    0    0  0.15275637787E+02 -0.78314843175E+01  0.93504231152E+02  0.95066915905E+02  0.00000000000E+00 0. -1.
        -12    1    6    6    0    0  0.15482782741E+02 -0.16189788063E+03  0.26967349142E+03  0.31491972356E+03  0.00000000000E+00 0.  1.
</event>
<event>
12    1  0.8271773E-002  0.1907182E+03  0.7818608E-02  0.1157912E+00
         21   -1    0    0  503  502  0.00000000000E+00  0.00000000000E+00  0.36469917716E+03  0.36469917716E+03  0.00000000000E+00 0.  1.
         21   -1    0    0  501  503 -0.00000000000E+00 -0.00000000000E+00 -0.22183320157E+03  0.22183320157E+03  0.00000000000E+00 0.  1.
          6    2    1    2  501    0 -0.37692803880E+02 -0.69629635642E+02 -0.14630344357E+03  0.24037082894E+03  0.17350620790E+03 0.  0.
         24    2    3    3    0    0  0.64212749148E+01 -0.29738268263E+02 -0.50794818396E+01  0.87061760363E+02  0.81414689159E+02 0.  0.
         -6    2    1    2    0  502  0.37692803880E+02  0.69629635642E+02  0.28916941917E+03  0.34616154980E+03  0.17303130339E+03 0.  0.
        -24    2    5    5    0    0  0.70350720660E+02  0.58476389336E+02  0.28669641652E+03  0.31124536195E+03  0.79436314650E+02 0.  0.
          5    1    3    3  501    0 -0.44114078795E+02 -0.39891367380E+02 -0.14122396173E+03  0.15330906857E+03  0.47000000000E+01 0. -1.
        -13    1    4    4    0    0 -0.30861999054E+02  0.32663810680E+01 -0.17655611847E+02  0.35705081720E+02  0.00000000000E+00 0.  1.
         14    1    4    4    0    0  0.37283273969E+02 -0.33004649331E+02  0.12576130008E+02  0.51356678643E+02  0.00000000000E+00 0. -1.
         -5    1    5    5    0  502 -0.32657916780E+02  0.11153246306E+02  0.24730026469E+01  0.34916187845E+02  0.47000000000E+01 0.  1.
         13    1    6    6    0    0 -0.13695010837E+02  0.28753811936E+02  0.68577837676E+02  0.75612530992E+02  0.00000000000E+00 0. -1.
        -14    1    6    6    0    0  0.84045731497E+02  0.29722577400E+02  0.21811857884E+03  0.23563283096E+03  0.00000000000E+00 0.  1.
</event>
<event>
12    1  0.8271773E-002  0.2030261E+03  0.7818608E-02  0.1147524E+00
         21   -1    0    0  503  502  0.00000000000E+00  0.00000000000E+00  0.18516671718E+04  0.18516671718E+04  0.00000000000E+00 0.  1.
         21   -1    0    0  501  503 -0.00000000000E+00 -0.00000000000E+00 -0.27848168958E+02  0.27848168958E+02  0.00000000000E+00 0. -1.
          6    2    1    2  501    0 -0.64634325358E+02  0.84496668277E+02  0.48750038127E+03  0.52808733112E+03  0.17292288625E+03 0.  0.
         24    2    3    3    0    0 -0.64414092173E+01  0.11161198705E+03  0.29997763188E+03  0.32982354839E+03  0.79361615676E+02 0.  0.
         -6    2    1    2    0  502  0.64634325358E+02 -0.84496668277E+02  0.13363186216E+04  0.13514280097E+04  0.17115175695E+03 0.  0.
        -24    2    5    5    0    0  0.92062321044E+02 -0.30611046358E+02  0.10656896051E+04  0.10740868664E+04  0.92497324055E+02 0.  0.
          5    1    3    3  501    0 -0.58192916140E+02 -0.27115318774E+02  0.18752274939E+03  0.19826378273E+03  0.47000000000E+01 0. -1.
        -11    1    4    4    0    0  0.15344164057E+02 -0.52468712361E+01  0.57998481915E+02  0.60222893760E+02  0.00000000000E+00 0.  1.
         12    1    4    4    0    0 -0.21785573274E+02  0.11685885829E+03  0.24197914996E+03  0.26960065463E+03  0.00000000000E+00 0. -1.
         -5    1    5    5    0  502 -0.27427995686E+02 -0.53885621919E+02  0.27062901651E+03  0.27734114331E+03  0.47000000000E+01 0.  1.
         13    1    6    6    0    0 -0.90732245432E+01 -0.30981335745E+02  0.21591280368E+03  0.21831286119E+03  0.00000000000E+00 0. -1.
        -14    1    6    6    0    0  0.10113554559E+03  0.37028938684E+00  0.84977680142E+03  0.85577400517E+03  0.00000000000E+00 0.  1.
</event>
<event>
12    1  0.8271773E-002  0.1936543E+03  0.7818608E-02  0.1155971E+00
         21   -1    0    0  503  502  0.00000000000E+00  0.00000000000E+00  0.73241492627E+03  0.73241492627E+03  0.00000000000E+00 0. -1.
         21   -1    0    0  501  503 -0.00000000000E+00 -0.00000000000E+00 -0.67385969500E+02  0.67385969500E+02  0.00000000000E+00 0. -1.
          6    2    1    2  501    0 -0.23951818564E+02  0.85279493638E+02  0.13336274505E+03  0.23513314794E+03  0.17220828623E+03 0.  0.
         24    2    3    3    0    0 -0.25827313797E+01 -0.15430702803E+02  0.23270915550E+02  0.84330354606E+02  0.79531730191E+02 0.  0.
         -6    2    1    2    0  502  0.23951818564E+02 -0.85279493638E+02  0.53166621172E+03  0.56466774783E+03  0.16832831939E+03 0.  0.
        -24    2    5    5    0    0 -0.68787845581E+01 -0.80399903883E+02  0.18861580036E+03  0.22016809439E+03  0.79916252550E+02 0.  0.
          5    1    3    3  501    0 -0.21369087184E+02  0.10071019644E+03  0.11009182950E+03  0.15080279333E+03  0.47000000000E+01 0. -1.
        -11    1    4    4    0    0 -0.11586503369E+00  0.13152686135E+02 -0.24958832633E+02  0.28212584136E+02  0.00000000000E+00 0.  1.
         12    1    4    4    0    0 -0.24668663460E+01 -0.28583388938E+02  0.48229748183E+02  0.56117770470E+02  0.00000000000E+00 0. -1.
         -5    1    5    5    0  502  0.30830603122E+02 -0.48795897559E+01  0.34305041137E+03  0.34449965345E+03  0.47000000000E+01 0.  1.
         11    1    6    6    0    0 -0.28091749874E+02 -0.53043786423E+02  0.17119917530E+03  0.18141650231E+03  0.00000000000E+00 0. -1.
        -12    1    6    6    0    0  0.21212965315E+02 -0.27356117459E+02  0.17416625057E+02  0.38751592075E+02  0.00000000000E+00 0.  1.
</event>
<event>
12    1  0.8271773E-002  0.1941729E+03  0.7818608E-02  0.1155020E+00
         21   -1    0    0  503  502  0.00000000000E+00  0.00000000000E+00  0.55019314245E+03  0.55019314245E+03  0.00000000000E+00 0.  1.
         21   -1    0    0  501  503 -0.00000000000E+00 -0.00000000000E+00 -0.73571625452E+02  0.73571625452E+02  0.00000000000E+00 0.  1.
          6    2    1    2  501    0 -0.86053107657E+02 -0.19772950177E+02  0.15391581131E+03  0.24777650549E+03  0.17293644152E+03 0.  0.
         24    2    3    3    0    0 -0.10275565088E+03 -0.68159224634E+00  0.17130478643E+03  0.21666507105E+03  0.83900147806E+02 0.  0.
         -6    2    1    2    0  502  0.86053107657E+02  0.19772950177E+02  0.32270570568E+03  0.37598826241E+03  0.17155784474E+03 0.  0.
        -24    2    5    5    0    0  0.71257646605E+01  0.63945861110E+02  0.17079976367E+03  0.19913160647E+03  0.79630319278E+02 0.  0.
          5    1    3    3  501    0  0.16702543219E+02 -0.19091357931E+02 -0.17388975119E+02  0.31111434446E+02  0.47000000000E+01 0. -1.
        -11    1    4    4    0    0 -0.74326175720E+02 -0.15332408929E+02  0.49206382047E+02  0.90447394627E+02  0.00000000000E+00 0.  1.
         12    1    4    4    0    0 -0.28429475157E+02  0.14650816683E+02  0.12209840439E+03  0.12621767642E+03  0.00000000000E+00 0. -1.
         -5    1    5    5    0  502  0.78927342997E+02 -0.44172910933E+02  0.15190594201E+03  0.17685665594E+03  0.47000000000E+01 0.  1.
         11    1    6    6    0    0  0.10953970798E+02 -0.99749768336E+01  0.21722771170E+01  0.14973590984E+02  0.00000000000E+00 0. -1.
        -12    1    6    6    0    0 -0.38282061379E+01  0.73920837943E+02  0.16862748655E+03  0.18415801548E+03  0.00000000000E+00 0.  1.
</event>
<event>
12    1  0.8271773E-002  0.2249069E+03  0.7818608E-02  0.1132251E+00
         21   -1    0    0  503  502  0.00000000000E+00  0.00000000000E+00  0.15718013809E+03  0.15718013809E+03  0.00000000000E+00 0.  1.
         21   -1    0    0  501  503 -0.00000000000E+00 -0.00000000000E+00 -0.37140206442E+03  0.37140206442E+03  0.00000000000E+00 0. -1.
          6    2    1    2  501    0  0.10898230032E+03 -0.67911934236E+02 -0.21517369725E+03  0.30367333008E+03  0.17154765757E+03 0.  0.
         24    2    3    3    0    0  0.13010872814E+03 -0.94091204526E+02 -0.19238780498E+03  0.26277141042E+03  0.79084200191E+02 0.  0.
         -6    2    1    2    0  502 -0.10898230032E+03  0.67911934236E+02  0.95177091450E+00  0.22490887244E+03  0.18464539647E+03 0.  0.
        -24    2    5    5    0    0 -0.10307020340E+03  0.57354033478E+02 -0.65237750316E+02  0.15745841003E+03  0.81389402487E+02 0.  0.
          5    1    3    3  501    0 -0.21126427821E+02  0.26179270290E+02 -0.22785892272E+02  0.40901919661E+02  0.47000000000E+01 0. -1.
        -13    1    4    4    0    0 -0.25859636948E+00 -0.20016168653E+02 -0.15546762157E+01  0.20078119876E+02  0.00000000000E+00 0.  1.
         14    1    4    4    0    0  0.13036732451E+03 -0.74075035873E+02 -0.19083312876E+03  0.24269329054E+03  0.00000000000E+00 0. -1.
         -5    1    5    5    0  502 -0.59120969201E+01  0.10557900757E+02  0.66189521231E+02  0.67450462409E+02  0.47000000000E+01 0.  1.
         11    1    6    6    0    0 -0.36736486262E+02  0.65621210089E+02 -0.24118998850E+02  0.78977457176E+02  0.00000000000E+00 0. -1.
        -12    1    6    6    0    0 -0.66333717140E+02 -0.82671766111E+01 -0.41118751466E+02  0.78480952854E+02  0.00000000000E+00 0.  1.
</event>
<event>
12    1  0.8271773E-002  0.2545048E+03  0.7818608E-02  0.1110601E+00
         21   -1    0    0  503  502  0.00000000000E+00  0.00000000000E+00  0.22918858775E+03  0.22918858775E+03  0.00000000000E+00 0.  1.
         21   -1    0    0  501  503 -0.00000000000E+00 -0.00000000000E+00 -0.38893020878E+03  0.38893020878E+03  0.00000000000E+00 0. -1.
          6    2    1    2  501    0 -0.77494347918E+02 -0.17010534050E+03  0.82395580428E+02  0.26683099764E+03  0.17166405798E+03 0.  0.
         24    2    3    3    0    0 -0.91781453731E+02 -0.75761649365E+02  0.31260176085E+02  0.15847153554E+03  0.99861735437E+02 0.  0.
         -6    2    1    2    0  502  0.77494347918E+02  0.17010534050E+03 -0.24213720146E+03  0.35128779889E+03  0.17271795648E+03 0.  0.
        -24    2    5    5    0    0  0.11406238727E+03  0.12943188351E+03 -0.14877990809E+03  0.24298624843E+03  0.84522276452E+02 0.  0.
          5    1    3    3  501    0  0.14287105813E+02 -0.94343691137E+02  0.51135404343E+02  0.10835946210E+03  0.47000000000E+01 0. -1.
        -13    1    4    4    0    0 -0.88277662483E+02 -0.71054884690E+02  0.60629959135E+02  0.12852133783E+03  0.00000000000E+00 0.  1.
         14    1    4    4    0    0 -0.35037912475E+01 -0.47067646756E+01 -0.29369783050E+02  0.29950197716E+02  0.00000000000E+00 0. -1.
         -5    1    5    5    0  502 -0.36568039353E+02  0.40673456996E+02 -0.93357293373E+02  0.10830155046E+03  0.47000000000E+01 0.  1.
         13    1    6    6    0    0  0.87227514218E+01  0.36020346097E+01 -0.51202550351E+02  0.52064980632E+02  0.00000000000E+00 0. -1.
        -14    1    6    6    0    0  0.10533963585E+03  0.12582984890E+03 -0.97577357737E+02  0.19092126780E+03  0.00000000000E+00 0.  1.
</event>
<event>
12    1  0.8271773E-002  0.1994077E+03  0.7818608E-02  0.1150427E+00
         21   -1    0    0  501  502  0.00000000000E+00  0.00000000000E+00  0.18819551666E+04  0.18819551666E+04  0.00000000000E+00 0. -1.
         21   -1    0    0  502  503 -0.00000000000E+00 -0.00000000000E+00 -0.21832438189E+02  0.21832438189E+02  0.00000000000E+00 0.  1.
         -6    2    1    2    0  503  0.89407218334E+02 -0.42878439109E+02  0.74617466548E+03  0.77213230542E+03  0.17198678566E+03 0.  0.
        -24    2    3    3    0    0  0.82882121412E+02  0.24038110611E+02  0.60191613858E+03  0.61290600703E+03  0.76833968792E+02 0.  0.
          6    2    1    2  501    0 -0.89407218334E+02  0.42878439109E+02  0.11139480630E+04  0.11316552994E+04  0.17300641157E+03 0.  0.
         24    2    5    5    0    0 -0.22357436397E+02  0.51663141883E+02  0.93938204644E+03  0.94439017081E+03  0.79153208119E+02 0.  0.
          5    1    5    5  501    0 -0.67049781937E+02 -0.87847027745E+01  0.17456601652E+03  0.18726512859E+03  0.47000000000E+01 0. -1.
        -13    1    6    6    0    0 -0.22951206343E+02  0.18510480183E+02  0.97631212405E+02  0.10198651570E+03  0.00000000000E+00 0.  1.
         14    1    6    6    0    0  0.59376994564E+00  0.33152661700E+02  0.84175083403E+03  0.84240365511E+03  0.00000000000E+00 0. -1.
         -5    1    3    3    0  503  0.65250969219E+01 -0.66916549720E+02  0.14425852690E+03  0.15922629839E+03  0.47000000000E+01 0.  1.
         13    1    4    4    0    0  0.46159851317E+02  0.42915821651E+02  0.22265581299E+03  0.23140464706E+03  0.00000000000E+00 0. -1.
        -14    1    4    4    0    0  0.36722270095E+02 -0.18877711040E+02  0.37926032559E+03  0.38150135997E+03  0.00000000000E+00 0.  1.
</event>
<event>
12    1  0.8271773E-002  0.1761542E+03  0.7818608E-02  0.1172357E+00
         21   -1    0    0  503  502  0.00000000000E+00  0.00000000000E+00  0.36264822191E+03  0.36264822191E+03  0.00000000000E+00 0.  1.
         21   -1    0    0  501  503 -0.00000000000E+00 -0.00000000000E+00 -0.84653474071E+02  0.84653474071E+02  0.00000000000E+00 0.  1.
          6    2    1    2  501    0  0.13138899361E+02 -0.35135576619E+02  0.11914491258E+03  0.21010224371E+03  0.16893875575E+03 0.  0.
         24    2    3    3    0    0  0.32078464316E+02 -0.74697766960E+02  0.12165389124E+03  0.16591786865E+03  0.78232254362E+02 0.  0.
         -6    2    1    2    0  502 -0.13138899361E+02  0.35135576619E+02  0.15884983526E+03  0.23719945228E+03  0.17211383029E+03 0.  0.
        -24    2    5    5    0    0  0.57412538107E+02  0.20763878194E+01  0.85882676467E+02  0.13035043939E+03  0.79466294829E+02 0.  0.
          5    1    3    3  501    0 -0.18939564955E+02  0.39562190341E+02 -0.25089786521E+01  0.44184375056E+02  0.47000000000E+01 0. -1.
        -11    1    4    4    0    0 -0.20790053640E+02 -0.48468106275E+02  0.46110359432E+02  0.70053899986E+02  0.00000000000E+00 0.  1.
         12    1    4    4    0    0  0.52868517956E+02 -0.26229660685E+02  0.75543531804E+02  0.95863968663E+02  0.00000000000E+00 0. -1.
         -5    1    5    5    0  502 -0.70551437468E+02  0.33059188800E+02  0.72967158791E+02  0.10684901289E+03  0.47000000000E+01 0.  1.
         13    1    6    6    0    0  0.37540376317E+02  0.34782402045E+02  0.74572540824E+02  0.90444232492E+02  0.00000000000E+00 0. -1.
        -14    1    6    6    0    0  0.19872161790E+02 -0.32706014226E+02  0.11310135642E+02  0.39906206898E+02  0.00000000000E+00 0.  1.
</event>
<event>
12    1  0.8271773E-002  0.2631562E+03  0.7818608E-02  0.1105304E+00
         21   -1    0    0  503  502  0.00000000000E+00  0.00000000000E+00  0.22851397519E+03  0.22851397519E+03  0.00000000000E+00 0. -1.
         21   -1    0    0  501  503 -0.00000000000E+00 -0.00000000000E+00 -0.70327686732E+03  0.70327686732E+03  0.00000000000E+00 0. -1.
          6    2    1    2  501    0  0.47558934135E+02  0.19368229716E+03 -0.58893219093E+03  0.64493579502E+03  0.17124943722E+03 0.  0.
         24    2    3    3    0    0  0.18682167650E+02  0.11118251220E+03 -0.17814740521E+03  0.22492828041E+03  0.78394253209E+02 0.  0.
         -6    2    1    2    0  502 -0.47558934135E+02 -0.19368229716E+03  0.11416929879E+03  0.28685504749E+03  0.17168723026E+03 0.  0.
        -24    2    5    5    0    0 -0.51883047355E+01 -0.45431466539E+02 -0.52791845329E+01  0.91756074699E+02  0.79374875099E+02 0.  0.
          5    1    3    3  501    0  0.28876766485E+02  0.82499784955E+02 -0.41078478571E+03  0.42000751461E+03  0.47000000000E+01 0. -1.
        -11    1    4    4    0    0 -0.23255458595E+02  0.87079455616E+01 -0.20062872605E+02  0.31924340675E+02  0.00000000000E+00 0.  1.
         12    1    4    4    0    0  0.41937626245E+02  0.10247456664E+03 -0.15808453261E+03  0.19300393974E+03  0.00000000000E+00 0. -1.
         -5    1    5    5    0  502 -0.42370629400E+02 -0.14825083062E+03  0.11944848333E+03  0.19509897279E+03  0.47000000000E+01 0.  1.
         11    1    6    6    0    0 -0.35475580939E+01 -0.66241782734E+02  0.82988266036E+01  0.66853791749E+02  0.00000000000E+00 0. -1.
        -12    1    6    6    0    0 -0.16407466416E+01  0.20810316195E+02 -0.13578011136E+02  0.24902282950E+02  0.00000000000E+00 0.  1.
</event>
<event>
12    1  0.8271773E-002  0.2740926E+03  0.7818608E-02  0.1099134E+00
         21   -1    0    0  503  502  0.00000000000E+00  0.00000000000E+00  0.52347193064E+03  0.52347193064E+03  0.00000000000E+00 0.  1.
         21   -1    0    0  501  503 -0.00000000000E+00 -0.00000000000E+00 -0.25172133020E+03  0.25172133020E+03  0.00000000000E+00 0.  1.
          6    2    1    2  501    0  0.52465719720E+02  0.20534823086E+03 -0.11883204635E+03  0.29874371872E+03  0.17379932846E+03 0.  0.
         24    2    3    3    0    0  0.75921366876E+02  0.13822014269E+03 -0.13726201557E+03  0.22513596525E+03  0.83525326320E+02 0.  0.
         -6    2    1    2    0  502 -0.52465719720E+02 -0.20534823086E+03  0.39058264679E+03  0.47644954212E+03  0.17183950230E+03 0.  0.
        -24    2    5    5    0    0 -0.94052688561E+02 -0.16067033987E+03  0.32939757014E+03  0.38989728319E+03  0.94107735536E+02 0.  0.
          5    1    3    3  501    0 -0.23455647156E+02  0.67128088164E+02  0.18429969229E+02  0.73607753463E+02  0.47000000000E+01 0. -1.
        -11    1    4    4    0    0  0.15786221818E+02  0.93152296311E+02 -0.11045065637E+03  0.14534752354E+03  0.00000000000E+00 0.  1.
         12    1    4    4    0    0  0.60135145058E+02  0.45067846383E+02 -0.26811359208E+02  0.79788441715E+02  0.00000000000E+00 0. -1.
         -5    1    5    5    0  502  0.41586968841E+02 -0.44677890992E+02  0.61185076649E+02  0.86552258927E+02  0.47000000000E+01 0.  1.
         13    1    6    6    0    0 -0.49879086649E+02 -0.10820725525E+02  0.10126335395E+03  0.11339875766E+03  0.00000000000E+00 0. -1.
        -14    1    6    6    0    0 -0.44173601912E+02 -0.14984961434E+03  0.22813421619E+03  0.27649852553E+03  0.00000000000E+00 0.  1.
</event>
<event>
12    1  0.8271773E-002  0.1772506E+03  0.7818608E-02  0.1170826E+00
         21   -1    0    0  503  502  0.00000000000E+00  0.00000000000E+00  0.90250259590E+02  0.90250259590E+02  0.00000000000E+00 0. -1.
         21   -1    0    0  501  503 -0.00000000000E+00 -0.00000000000E+00 -0.48675665542E+03  0.48675665542E+03  0.00000000000E+00 0. -1.
          6    2    1    2  501    0  0.23138839510E+02 -0.31892332625E+02 -0.35314799754E+03  0.39453029094E+03  0.17142962267E+03 0.  0.
         24    2    3    3    0    0  0.39585383835E+02  0.18961305217E+02 -0.31795043854E+03  0.33036223455E+03  0.78231649206E+02 0.  0.
         -6    2    1    2    0  502 -0.23138839510E+02  0.31892332625E+02 -0.43358398292E+02  0.18247662407E+03  0.17281562677E+03 0.  0.
        -24    2    5    5    0    0  0.86495027281E+01 -0.36763714823E+02 -0.17947332079E+02  0.10252686585E+03  0.93612322199E+02 0.  0.
          5    1    3    3  501    0 -0.16446544325E+02 -0.50853637842E+02 -0.35197559000E+02  0.64168056395E+02  0.47000000000E+01 0. -1.
        -13    1    4    4    0    0  0.33577757977E+02  0.39033457008E+02 -0.11107452810E+03  0.12242804985E+03  0.00000000000E+00 0.  1.
         14    1    4    4    0    0  0.60076258580E+01 -0.20072151792E+02 -0.20687591044E+03  0.20793418470E+03  0.00000000000E+00 0. -1.
         -5    1    5    5    0  502 -0.31788342238E+02  0.68656047448E+02 -0.25411066213E+02  0.79949758220E+02  0.47000000000E+01 0.  1.
         11    1    6    6    0    0  0.19873304894E+02  0.13172301276E+02  0.25848059456E+02  0.35165038689E+02  0.00000000000E+00 0. -1.
        -12    1    6    6    0    0 -0.11223802166E+02 -0.49936016099E+02 -0.43795391535E+02  0.67361827162E+02  0.00000000000E+00 0.  1.
</event>
<event>
12    1  0.8271773E-002  0.1796207E+03  0.7818608E-02  0.1168259E+00
         21   -1    0    0  503  502  0.00000000000E+00  0.00000000000E+00  0.10774299782E+03  0.10774299782E+03  0.00000000000E+00 0.  1.
         21   -1    0    0  501  503 -0.00000000000E+00 -0.00000000000E+00 -0.32306840737E+03  0.32306840737E+03  0.00000000000E+00 0.  1.
          6    2    1    2  501    0 -0.36778246622E+02  0.35496521965E+02 -0.16654347364E+03  0.24468440027E+03  0.17181700913E+03 0.  0.
         24    2    3    3    0    0 -0.79879243667E+02 -0.16397680960E+02 -0.99338184917E+02  0.14934634346E+03  0.76070216328E+02 0.  0.
         -6    2    1    2    0  502  0.36778246622E+02 -0.35496521965E+02 -0.48781935898E+02  0.18612700492E+03  0.17219448944E+03 0.  0.
        -24    2    5    5    0    0 -0.89905266435E+01 -0.25495980938E+02  0.33817875765E+02  0.91050139628E+02  0.80097469322E+02 0.  0.
          5    1    3    3  501    0  0.43100997045E+02  0.51894202925E+02 -0.67205288727E+02  0.95338056810E+02  0.47000000000E+01 0. -1.
        -11    1    4    4    0    0 -0.56423799223E+02 -0.45261217842E+01 -0.10777615256E+03  0.12173672395E+03  0.00000000000E+00 0.  1.
         12    1    4    4    0    0 -0.23455444444E+02 -0.11871559176E+02  0.84379676462E+01  0.27609619507E+02  0.00000000000E+00 0. -1.
         -5    1    5    5    0  502  0.45768773266E+02 -0.10000541027E+02 -0.82599811663E+02  0.95076865292E+02  0.47000000000E+01 0.  1.
         11    1    6    6    0    0 -0.26720759563E+01  0.13483642569E+02 -0.20018928732E+02  0.24283865311E+02  0.00000000000E+00 0. -1.
        -12    1    6    6    0    0 -0.63184506872E+01 -0.38979623507E+02  0.53836804497E+02  0.66766274317E+02  0.00000000000E+00 0.  1.
</event>
<event>
12    1  0.8271773E-002  0.2196677E+03  0.7818608E-02  0.1134282E+00
         21   -1    0    0  503  502  0.00000000000E+00  0.00000000000E+00  0.14070042117E+04  0.14070042117E+04  0.00000000000E+00 0. -1.
         21   -1    0    0  501  503 -0.00000000000E+00 -0.00000000000E+00 -0.36540618261E+02  0.36540618261E+02  0.00000000000E+00 0.  1.
          6    2    1    2  501    0 -0.11205342313E+02  0.13730817316E+03  0.87025497137E+03  0.89755089373E+03  0.17109879465E+03 0.  0.
         24    2    3    3    0    0  0.26977026191E+02  0.84806588830E+01  0.34098223951E+03  0.35146835749E+03  0.80383064989E+02 0.  0.
         -6    2    1    2    0  502  0.11205342313E+02 -0.13730817316E+03  0.50020862209E+03  0.54599393625E+03  0.17006357252E+03 0.  0.
        -24    2    5    5    0    0  0.22972265281E-01 -0.65976091331E+02  0.11013915334E+03  0.14927036530E+03  0.76145674227E+02 0.  0.
          5    1    3    3  501    0 -0.38182368505E+02  0.12882751427E+03  0.52927273186E+03  0.54608253624E+03  0.47000000000E+01 0. -1.
        -13    1    4    4    0    0 -0.17364043143E+02  0.11645185736E+02  0.24271538086E+03  0.24361419591E+03  0.00000000000E+00 0.  1.
         14    1    4    4    0    0  0.44341069335E+02 -0.31645268528E+01  0.98266858657E+02  0.10785416158E+03  0.00000000000E+00 0. -1.
         -5    1    5    5    0  502  0.11182370048E+02 -0.71332081827E+02  0.39006946875E+03  0.39672357095E+03  0.47000000000E+01 0.  1.
         13    1    6    6    0    0 -0.24588550279E+02 -0.66857374606E+02  0.99671284250E+02  0.12251069442E+03  0.00000000000E+00 0. -1.
        -14    1    6    6    0    0  0.24611522545E+02  0.88128327560E+00  0.10467869092E+02  0.26759670878E+02  0.00000000000E+00 0.  1.
</event>
<event>
12    1  0.8271773E-002  0.1766249E+03  0.7818608E-02  0.1171218E+00
         21   -1    0    0  503  502  0.00000000000E+00  0.00000000000E+00  0.53766417925E+03  0.53766417925E+03  0.00000000000E+00 0. -1.
         21   -1    0    0  501  503 -0.00000000000E+00 -0.00000000000E+00 -0.59227621649E+02  0.59227621649E+02  0.00000000000E+00 0. -1.
          6    2    1    2  501    0 -0.40763793082E+02  0.26515393935E+01  0.19448050788E+03  0.26271472458E+03  0.17183608783E+03 0.  0.
         24    2    3    3    0    0  0.27656979249E+02 -0.44143420844E+02  0.12547050211E+03  0.15475342927E+03  0.74109559884E+02 0.  0.
         -6    2    1    2    0  502  0.40763793082E+02 -0.26515393935E+01  0.28395604972E+03  0.33417707631E+03  0.17139008919E+03 0.  0.
        -24    2    5    5    0    0  0.81749481619E+01  0.47662799470E+02  0.24758126813E+03  0.26390062048E+03  0.77514391768E+02 0.  0.
          5    1    3    3  501    0 -0.68420772331E+02  0.46794960238E+02  0.69010005769E+02  0.10796129532E+03  0.47000000000E+01 0. -1.
        -13    1    4    4    0    0  0.15789796346E+02 -0.64624682470E+02  0.98598871572E+02  0.11894286329E+03  0.00000000000E+00 0.  1.
         14    1    4    4    0    0  0.11867182903E+02  0.20481261626E+02  0.26871630535E+02  0.35810565975E+02  0.00000000000E+00 0. -1.
         -5    1    5    5    0  502  0.32588844920E+02 -0.50314338864E+02  0.36374781595E+02  0.70276455834E+02  0.47000000000E+01 0.  1.
         11    1    6    6    0    0  0.28430674728E+02  0.53887324317E+02  0.12010415816E+03  0.13467425810E+03  0.00000000000E+00 0. -1.
        -12    1    6    6    0    0 -0.20255726566E+02 -0.62245248463E+01  0.12747710996E+03  0.12922636238E+03  0.00000000000E+00 0.  1.
</event>
<event>
12    1  0.8271773E-002  0.2694566E+03  0.7818608E-02  0.1101678E+00
         21   -1    0    0  501  502  0.00000000000E+00  0.00000000000E+00  0.42020995358E+03  0.42020995358E+03  0.00000000000E+00 0. -1.
         21   -1    0    0  502  503 -0.00000000000E+00 -0.00000000000E+00 -0.18203323320E+03  0.18203323320E+03  0.00000000000E+00 0. -1.
         -6    2    1    2    0  503  0.12876769911E+03  0.16224226175E+03  0.49937463674E+02  0.27404486253E+03  0.17234606050E+03 0.  0.
        -24    2    3    3    0    0  0.11159785518E+03  0.89941404147E+02 -0.28667106156E+02  0.16577212381E+03  0.78198827341E+02 0.  0.
          6    2    1    2  501    0 -0.12876769911E+03 -0.16224226175E+03  0.18823925670E+03  0.32819832426E+03  0.17139559637E+03 0.  0.
         24    2    5    5    0    0 -0.77977713770E+02 -0.26642494689E+02  0.41096326675E+02  0.12170364807E+03  0.79577154512E+02 0.  0.
          5    1    5    5  501    0 -0.50789985336E+02 -0.13559976706E+03  0.14714293003E+03  0.20649467619E+03  0.47000000000E+01 0. -1.
        -13    1    6    6    0    0 -0.93028701013E+02 -0.21605239884E+02  0.24202045108E+02  0.98523421530E+02  0.00000000000E+00 0.  1.
         14    1    6    6    0    0  0.15050987243E+02 -0.50372548047E+01  0.16894281567E+02  0.23180226544E+02  0.00000000000E+00 0. -1.
         -5    1    3    3    0  503  0.17169843923E+02  0.72300857599E+02  0.78604569829E+02  0.10827273871E+03  0.47000000000E+01 0.  1.
         13    1    4    4    0    0  0.10506308829E+03  0.49153271850E+02 -0.89524291368E+00  0.11599611250E+03  0.00000000000E+00 0. -1.
        -14    1    4    4    0    0  0.65347668909E+01  0.40788132297E+02 -0.27771863242E+02  0.49776011316E+02  0.00000000000E+00 0.  1.
</event>
<event>
12    1  0.8271773E-002  0.2391330E+03  0.7818608E-02  0.1120434E+00
         21   -1    0    0  501  502  0.00000000000E+00  0.00000000000E+00  0.16217178584E+03  0.16217178584E+03  0.00000000000E+00 0.  1.
         21   -1    0    0  502  503 -0.00000000000E+00 -0.00000000000E+00 -0.35810444400E+03  0.35810444400E+03  0.00000000000E+00 0.  1.
         -6    2    1    2    0  503  0.55173662920E+02 -0.15648692492E+03 -0.13165178744E+03  0.27265427168E+03  0.17168537497E+03 0.  0.
        -24    2    3    3    0    0 -0.21459946351E+02 -0.94976390862E+02 -0.11974527123E+03  0.17355779849E+03  0.79387249081E+02 0.  0.
          6    2    1    2  501    0 -0.55173662920E+02  0.15648692492E+03 -0.64280870723E+02  0.24762195816E+03  0.17219846999E+03 0.  0.
         24    2    5    5    0    0 -0.63780579038E+02  0.18304350505E+03 -0.64127898902E+02  0.21931216563E+03  0.80078408900E+02 0.  0.
          5    1    5    5  501    0  0.86069161182E+01 -0.26556580121E+02 -0.15297182086E+00  0.28309792531E+02  0.47000000000E+01 0. -1.
        -13    1    6    6    0    0 -0.49941836440E+02  0.12506385302E+03 -0.81268132511E+02  0.15728847295E+03  0.00000000000E+00 0.  1.
         14    1    6    6    0    0 -0.13838742598E+02  0.57979652024E+02  0.17140233609E+02  0.62023692680E+02  0.00000000000E+00 0. -1.
         -5    1    3    3    0  503  0.76633609271E+02 -0.61510534062E+02 -0.11906516207E+02  0.99096473190E+02  0.47000000000E+01 0.  1.
         13    1    4    4    0    0 -0.12950548254E+02 -0.10539170275E+03 -0.84084039203E+02  0.13544465053E+03  0.00000000000E+00 0. -1.
        -14    1    4    4    0    0 -0.85093980968E+01  0.10415311889E+02 -0.35661232028E+02  0.38113147960E+02  0.00000000000E+00 0.  1.
</event>
<event>
12    1  0.8271773E-002  0.2332041E+03  0.7818608E-02  0.1124422E+00
         21   -1    0    0  503  502  0.00000000000E+00  0.00000000000E+00  0.26211518442E+03  0.26211518442E+03  0.00000000000E+00 0. -1.
         21   -1    0    0  501  503 -0.00000000000E+00 -0.00000000000E+00 -0.64543052678E+03  0.64543052678E+03  0.00000000000E+00 0. -1.
          6    2    1    2  501    0 -0.14554721853E+03 -0.60475681712E+02 -0.56549803432E+03  0.61169614945E+03  0.17188034071E+03 0.  0.
         24    2    3    3    0    0 -0.98921835543E+02 -0.72197512039E+01 -0.18421981951E+03  0.22387494377E+03  0.79657982630E+02 0.  0.
         -6    2    1    2    0  502  0.14554721853E+03  0.60475681712E+02  0.18218269197E+03  0.29584956175E+03  0.17174145985E+03 0.  0.
        -24    2    5    5    0    0  0.92150009875E+02 -0.27210957899E+02  0.13127716667E+03  0.18116010641E+03  0.79707145959E+02 0.  0.
          5    1    3    3  501    0 -0.46625382991E+02 -0.53255930508E+02 -0.38127821482E+03  0.38782120567E+03  0.47000000000E+01 0. -1.
        -11    1    4    4    0    0 -0.56214509914E+01  0.17371897685E+02 -0.29088936896E+01  0.18489056302E+02  0.00000000000E+00 0.  1.
         12    1    4    4    0    0 -0.93300384552E+02 -0.24591648889E+02 -0.18131092582E+03  0.20538588747E+03  0.00000000000E+00 0. -1.
         -5    1    5    5    0  502  0.53397208659E+02  0.87686639611E+02  0.50905525293E+02  0.11468945533E+03  0.47000000000E+01 0.  1.
         13    1    6    6    0    0  0.32211867851E+02 -0.55462860649E+01  0.10876095619E+03  0.11356633000E+03  0.00000000000E+00 0. -1.
        -14    1    6    6    0    0  0.59938142024E+02 -0.21664671834E+02  0.22516210484E+02  0.67593776411E+02  0.00000000000E+00 0.  1.
</event>
<event>
12    1  0.8271773E-002  0.2653107E+03  0.7818608E-02  0.1104009E+00
         21   -1    0    0  503  502  0.00000000000E+00  0.00000000000E+00  0.94290650892E+03  0.94290650892E+03  0.00000000000E+00 0. -1.
         21   -1    0    0  501  503 -0.00000000000E+00 -0.00000000000E+00 -0.88632336679E+02  0.88632336679E+02  0.00000000000E+00 0.  1.
          6    2    1    2  501    0 -0.66678694264E+02 -0.19066941337E+03  0.22201542941E+03  0.34587064609E+03  0.17185685750E+03 0.  0.
         24    2    3    3    0    0 -0.61186549097E+02 -0.59349406343E+02  0.16663053187E+03  0.20316575908E+03  0.79021805123E+02 0.  0.
         -6    2    1    2    0  502  0.66678694264E+02  0.19066941337E+03  0.63225874283E+03  0.68566819951E+03  0.17201421006E+03 0.  0.
        -24    2    5    5    0    0 -0.27235761299E+02  0.30457740863E+02  0.20368932083E+03  0.21856912602E+03  0.67923948349E+02 0.  0.
          5    1    3    3  501    0 -0.54921451676E+01 -0.13132000702E+03  0.55384897534E+02  0.14270488702E+03  0.47000000000E+01 0. -1.
        -13    1    4    4    0    0 -0.32131881499E+01 -0.54928473678E+02  0.10432648836E+03  0.11794692863E+03  0.00000000000E+00 0.  1.
         14    1    4    4    0    0 -0.57973360947E+02 -0.44209326649E+01  0.62304043509E+02  0.85218830446E+02  0.00000000000E+00 0. -1.
         -5    1    5    5    0  502  0.93914455564E+02  0.16021167250E+03  0.42856942201E+03  0.46709907348E+03  0.47000000000E+01 0.  1.
         13    1    6    6    0    0  0.22518138478E+02  0.92950912264E+01  0.49391160920E+02  0.55072243993E+02  0.00000000000E+00 0. -1.
        -14    1    6    6    0    0 -0.49753899778E+02  0.21162649637E+02  0.15429815991E+03  0.16349688203E+03  0.00000000000E+00 0.  1.
</event>
<event>
12    1  0.8271773E-002  0.1801402E+03  0.7818608E-02  0.1167803E+00
         21   -1    0    0  503  502  0.00000000000E+00  0.00000000000E+00  0.82042930612E+03  0.82042930612E+03  0.00000000000E+00 0. -1.
         21   -1    0    0  501  503 -0.00000000000E+00 -0.00000000000E+00 -0.19895955601E+03  0.19895955601E+03  0.00000000000E+00 0. -1.
          6    2    1    2  501    0 -0.38754522349E+02 -0.30163424712E+02 -0.14557134602E+03  0.23160637648E+03  0.17331691104E+03 0.  0.
         24    2    3    3    0    0 -0.12230267287E+02 -0.29342254956E+02 -0.17275944147E+03  0.19332461894E+03  0.80734356432E+02 0.  0.
         -6    2    1    2    0  502  0.38754522349E+02  0.30163424712E+02  0.76704109613E+03  0.78778248565E+03  0.17273522034E+03 0.  0.
        -24    2    5    5    0    0  0.32040560132E+02  0.63593668589E+02  0.29071620216E+03  0.31021557608E+03  0.81529388984E+02 0.  0.
          5    1    3    3  501    0 -0.26524255062E+02 -0.82116975640E+00  0.27188095447E+02  0.38281757540E+02  0.47000000000E+01 0. -1.
        -11    1    4    4    0    0 -0.30540148147E+02 -0.10485938003E+01 -0.19152506570E+02  0.36064091638E+02  0.00000000000E+00 0.  1.
         12    1    4    4    0    0  0.18309880860E+02 -0.28293661155E+02 -0.15360693490E+03  0.15726052730E+03  0.00000000000E+00 0. -1.
         -5    1    5    5    0  502  0.67139622164E+01 -0.33430243877E+02  0.47632489398E+03  0.47756690957E+03  0.47000000000E+01 0.  1.
         13    1    6    6    0    0  0.11716817325E+01  0.32946628200E+02  0.24463645963E+03  0.24684782869E+03  0.00000000000E+00 0. -1.
        -14    1    6    6    0    0  0.30868878400E+02  0.30647040388E+02  0.46079742528E+02  0.63367747393E+02  0.00000000000E+00 0.  1.
</event>
<event>
12    1  0.8271773E-002  0.3409593E+03  0.7818608E-02  0.1066433E+00
         21   -1    0    0  501  502  0.00000000000E+00  0.00000000000E+00  0.13994716482E+04  0.13994716482E+04  0.00000000000E+00 0. -1.
         21   -1    0    0  502  503 -0.00000000000E+00 -0.00000000000E+00 -0.12370716014E+03  0.12370716014E+03  0.00000000000E+00 0.  1.
         -6    2    1    2    0  503  0.11917608959E+03 -0.26904208211E+03  0.20108973747E+03  0.39584133078E+03  0.17224022284E+03 0.  0.
        -24    2    3    3    0    0  0.10238104528E+03 -0.12581057676E+03  0.16933653423E+03  0.24809934774E+03  0.81044709045E+02 0.  0.
          6    2    1    2  501    0 -0.11917608959E+03  0.26904208211E+03  0.10746747506E+04  0.11273374775E+04  0.17139832689E+03 0.  0.
         24    2    5    5    0    0 -0.15083074268E+02  0.83972762787E+02  0.52276393179E+03  0.53597155809E+03  0.81880758910E+02 0.  0.
          5    1    5    5  501    0 -0.10409301532E+03  0.18506931932E+03  0.55191081877E+03  0.59136591943E+03  0.47000000000E+01 0. -1.
        -13    1    6    6    0    0  0.45846437949E+01  0.95350666186E+02  0.42927830905E+03  0.43976429496E+03  0.00000000000E+00 0.  1.
         14    1    6    6    0    0 -0.19667718063E+02 -0.11377903399E+02  0.93485622743E+02  0.96207263131E+02  0.00000000000E+00 0. -1.
         -5    1    3    3    0  503  0.16795044307E+02 -0.14323150535E+03  0.31753203237E+02  0.14774198304E+03  0.47000000000E+01 0.  1.
         11    1    4    4    0    0 -0.12570051467E+02 -0.99889967756E+01  0.57917222402E+01  0.17068400539E+02  0.00000000000E+00 0. -1.
        -12    1    4    4    0    0  0.11495109675E+03 -0.11582157999E+03  0.16354481199E+03  0.23103094720E+03  0.00000000000E+00 0.  1.
</event>
<event>
12    1  0.8271773E-002  0.1795802E+03  0.7818608E-02  0.1168543E+00
         21   -1    0    0  501  502  0.00000000000E+00  0.00000000000E+00  0.10144269674E+04  0.10144269674E+04  0.00000000000E+00 0.  1.
         21   -1    0    0  502  503 -0.00000000000E+00 -0.00000000000E+00 -0.31551852525E+02  0.31551852525E+02  0.00000000000E+00 0.  1.
         -6    2    1    2    0  503 -0.26009453935E+02 -0.40118311809E+02  0.48453650545E+03  0.51627094982E+03  0.17168021984E+03 0.  0.
        -24    2    3    3    0    0  0.31349978247E+02 -0.71508860222E+02  0.32744744160E+03  0.34605187049E+03  0.80210546876E+02 0.  0.
          6    2    1    2  501    0  0.26009453935E+02  0.40118311809E+02  0.49833860940E+03  0.52970787008E+03  0.17309849035E+03 0.  0.
         24    2    5    5    0    0 -0.12565098062E+02 -0.23254341975E+02  0.13557238352E+03  0.15940324689E+03  0.79566813666E+02 0.  0.
          5    1    5    5  501    0  0.38574551997E+02  0.63372653784E+02  0.36276622588E+03  0.37030462318E+03  0.47000000000E+01 0. -1.
        -13    1    6    6    0    0 -0.16056417413E+02  0.25289307432E+02  0.26619937030E+02  0.40074663542E+02  0.00000000000E+00 0.  1.
         14    1    6    6    0    0  0.34913193511E+01 -0.48543649407E+02  0.10895244649E+03  0.11932858335E+03  0.00000000000E+00 0. -1.
         -5    1    3    3    0  503 -0.57359432182E+02  0.31390548413E+02  0.15708906385E+03  0.17021907934E+03  0.47000000000E+01 0.  1.
         11    1    4    4    0    0  0.47317433067E+02 -0.18034868382E+02  0.21001260324E+03  0.21603122336E+03  0.00000000000E+00 0. -1.
        -12    1    4    4    0    0 -0.15967454821E+02 -0.53473991840E+02  0.11743483836E+03  0.13002064712E+03  0.00000000000E+00 0.  1.
</event>
<event>
12    1  0.8271773E-002  0.1718702E+03  0.7818608E-02  0.1176869E+00
         21   -1    0    0  501  502  0.00000000000E+00  0.00000000000E+00  0.74309677151E+03  0.74309677151E+03  0.00000000000E+00 0.  1.
         21   -1    0    0  502  503 -0.00000000000E+00 -0.00000000000E+00 -0.41532833640E+02  0.41532833640E+02  0.00000000000E+00 0.  1.
         -6    2    1    2    0  503  0.53209728605E+01  0.15873156802E+02  0.24854277845E+03  0.30010144862E+03  0.16735320997E+03 0.  0.
        -24    2    3    3    0    0 -0.16201747597E+02 -0.50108907730E+02  0.11475874874E+03  0.14931313030E+03  0.79695929695E+02 0.  0.
          6    2    1    2  501    0 -0.53209728605E+01 -0.15873156802E+02  0.45302115942E+03  0.48452815653E+03  0.17105289745E+03 0.  0.
         24    2    5    5    0    0  0.41204997532E+02 -0.52260368312E+02  0.21275525522E+03  0.23706403831E+03  0.80657062428E+02 0.  0.
          5    1    5    5  501    0 -0.46525970392E+02  0.36387211510E+02  0.24026590420E+03  0.24746411821E+03  0.47000000000E+01 0. -1.
        -11    1    6    6    0    0 -0.20561223615E+02 -0.18290043543E+02  0.27737058328E+02  0.39072164184E+02  0.00000000000E+00 0.  1.
         12    1    6    6    0    0  0.61766221146E+02 -0.33970324769E+02  0.18501819689E+03  0.19799187413E+03  0.00000000000E+00 0. -1.
         -5    1    3    3    0  503  0.21522720457E+02  0.65982064532E+02  0.13378402971E+03  0.15078831832E+03  0.47000000000E+01 0.  1.
         13    1    4    4    0    0 -0.34735676454E+02  0.47779749775E+01  0.60577082820E+02  0.69992708381E+02  0.00000000000E+00 0. -1.
        -14    1    4    4    0    0  0.18533928857E+02 -0.54886882708E+02  0.54181665918E+02  0.79320421922E+02  0.00000000000E+00 0.  1.
</event>
<event>
12    1  0.8271773E-002  0.2047713E+03  0.7818608E-02  0.1146170E+00
         21   -1    0    0  501  502  0.00000000000E+00  0.00000000000E+00  0.96428024081E+02  0.96428024081E+02  0.00000000000E+00 0.  1.
         21   -1    0    0  502  503 -0.00000000000E+00 -0.00000000000E+00 -0.65344529296E+03  0.65344529296E+03  0.00000000000E+00 0.  1.
         -6    2    1    2    0  503 -0.14611446696E+02 -0.10957996000E+03 -0.49824283798E+03  0.53868099283E+03  0.17236596077E+03 0.  0.
        -24    2    3    3    0    0  0.14933528178E+02 -0.10142019824E+03 -0.19624509635E+03  0.23509539831E+03  0.79048349693E+02 0.  0.
          6    2    1    2  501    0  0.14611446696E+02  0.10957996000E+03 -0.58774430904E+02  0.21119232421E+03  0.17007792940E+03 0.  0.
         24    2    5    5    0    0  0.27602540444E+02  0.13501016433E+03 -0.76877670361E+02  0.17705611048E+03  0.80305948397E+02 0.  0.
          5    1    5    5  501    0 -0.12991093748E+02 -0.25430204329E+02  0.18103239457E+02  0.34136213730E+02  0.47000000000E+01 0. -1.
        -13    1    6    6    0    0 -0.25719322878E+02  0.70770134929E+02 -0.28142274170E+02  0.80385839317E+02  0.00000000000E+00 0.  1.
         14    1    6    6    0    0  0.53321863322E+02  0.64240029401E+02 -0.48735396191E+02  0.96670271167E+02  0.00000000000E+00 0. -1.
         -5    1    3    3    0  503 -0.29544974874E+02 -0.81597617592E+01 -0.30199774163E+03  0.30358559452E+03  0.47000000000E+01 0.  1.
         13    1    4    4    0    0  0.43198542472E+02 -0.39406270694E+02 -0.66578026809E+02  0.88609265292E+02  0.00000000000E+00 0. -1.
        -14    1    4    4    0    0 -0.28265014294E+02 -0.62013927547E+02 -0.12966706954E+03  0.14648613302E+03  0.00000000000E+00 0.  1.
</event>
<event>
12    1  0.8271773E-002  0.1891327E+03  0.7818608E-02  0.1160755E+00
         21   -1    0    0  503  502  0.00000000000E+00  0.00000000000E+00  0.14204159988E+02  0.14204159988E+02  0.00000000000E+00 0.  1.
         21   -1    0    0  501  503 -0.00000000000E+00 -0.00000000000E+00 -0.32222306487E+04  0.32222306487E+04  0.00000000000E+00 0.  1.
          6    2    1    2  501    0  0.37299714713E+02 -0.49812903723E+02 -0.23839445369E+04  0.23909277263E+04  0.17167190622E+03 0.  0.
         24    2    3    3    0    0  0.86118192652E+02 -0.37224133210E+02 -0.19587930185E+04  0.19627716514E+04  0.82465064407E+02 0.  0.
         -6    2    1    2    0  502 -0.37299714713E+02  0.49812903723E+02 -0.82408195188E+03  0.84550708243E+03  0.17860170474E+03 0.  0.
        -24    2    5    5    0    0 -0.76813826789E+02  0.80172897587E+02 -0.53559403634E+03  0.55270943611E+03  0.79364296182E+02 0.  0.
          5    1    3    3  501    0 -0.48818477938E+02 -0.12588770513E+02 -0.42515151833E+03  0.42815607490E+03  0.47000000000E+01 0. -1.
        -11    1    4    4    0    0  0.69097450555E+02 -0.16157472904E+02 -0.68013454731E+03  0.68382638443E+03  0.00000000000E+00 0.  1.
         12    1    4    4    0    0  0.17020742097E+02 -0.21066660305E+02 -0.12786584712E+04  0.12789452670E+04  0.00000000000E+00 0. -1.
         -5    1    5    5    0  502  0.39514112075E+02 -0.30359993864E+02 -0.28848791553E+03  0.29279764632E+03  0.47000000000E+01 0.  1.
         13    1    6    6    0    0  0.11579275082E+02  0.17313382415E+01 -0.12205683094E+03  0.12261707517E+03  0.00000000000E+00 0. -1.
        -14    1    6    6    0    0 -0.88393101871E+02  0.78441559346E+02 -0.41353720540E+03  0.43009236095E+03  0.00000000000E+00 0.  1.
</event>
<event>
12    1  0.8271773E-002  0.2592029E+03  0.7818608E-02  0.1107765E+00
         21   -1    0    0  503  502  0.00000000000E+00  0.00000000000E+00  0.44703250934E+03  0.44703250934E+03  0.00000000000E+00 0.  1.
         21   -1    0    0  501  503 -0.00000000000E+00 -0.00000000000E+00 -0.63872632260E+03  0.63872632260E+03  0.00000000000E+00 0. -1.
          6    2    1    2  501    0 -0.81530349446E+02 -0.17618315751E+03 -0.57080282556E+03  0.62650969242E+03  0.17032564738E+03 0.  0.
         24    2    3    3    0    0 -0.59968623653E+02 -0.19364658640E+03 -0.54866257403E+03  0.59070242911E+03  0.82483352056E+02 0.  0.
         -6    2    1    2    0  502  0.81530349446E+02  0.17618315751E+03  0.37910901230E+03  0.45924913952E+03  0.17175105843E+03 0.  0.
        -24    2    5    5    0    0 -0.72063242229E+01  0.13400930661E+03  0.26970658236E+03  0.31213077687E+03  0.81691835156E+02 0.  0.
          5    1    3    3  501    0 -0.21561725793E+02  0.17463428890E+02 -0.22140251526E+02  0.35807263305E+02  0.47000000000E+01 0. -1.
        -11    1    4    4    0    0 -0.79801784524E+02 -0.16218914492E+03 -0.47386804605E+03  0.50717311503E+03  0.00000000000E+00 0.  1.
         12    1    4    4    0    0  0.19833160870E+02 -0.31457441480E+02 -0.74794527986E+02  0.83529314083E+02  0.00000000000E+00 0. -1.
         -5    1    5    5    0  502  0.88736673669E+02  0.42173850894E+02  0.10940242994E+03  0.14711836265E+03  0.47000000000E+01 0.  1.
         13    1    6    6    0    0  0.18336855769E+02  0.12461089962E+03  0.19045468672E+03  0.22833550814E+03  0.00000000000E+00 0. -1.
        -14    1    6    6    0    0 -0.25543179992E+02  0.93984069883E+01  0.79251895645E+02  0.83795268729E+02  0.00000000000E+00 0.  1.
</event>
<event>
12    1  0.8271773E-002  0.2267593E+03  0.7818608E-02  0.1129017E+00
         21   -1    0    0  503  502  0.00000000000E+00  0.00000000000E+00  0.21515930724E+04  0.21515930724E+04  0.00000000000E+00 0.  1.
         21   -1    0    0  501  503 -0.00000000000E+00 -0.00000000000E+00 -0.35305342314E+02  0.35305342314E+02  0.00000000000E+00 0.  1.
          6    2    1    2  501    0 -0.14632541231E+03  0.77406210125E+01  0.43475313777E+03  0.49014316445E+03  0.17250793419E+03 0.  0.
         24    2    3    3    0    0 -0.17093589902E+03  0.87082582817E+01  0.42121567098E+03  0.46164815814E+03  0.80009156327E+02 0.  0.
         -6    2    1    2    0  502  0.14632541231E+03 -0.77406210125E+01  0.16815345923E+04  0.16967552503E+04  0.17305707330E+03 0.  0.
        -24    2    5    5    0    0  0.13457568436E+03 -0.53688297482E+02  0.14979522944E+04  0.15070876590E+04  0.80368447696E+02 0.  0.
          5    1    3    3  501    0  0.24610486710E+02 -0.96763726915E+00  0.13537466790E+02  0.28495006318E+02  0.47000000000E+01 0. -1.
        -13    1    4    4    0    0 -0.79637034031E+02 -0.26399065026E+02  0.13265744533E+03  0.15696166928E+03  0.00000000000E+00 0.  1.
         14    1    4    4    0    0 -0.91298864991E+02  0.35107323307E+02  0.28855822565E+03  0.30468648885E+03  0.00000000000E+00 0. -1.
         -5    1    5    5    0  502  0.11749727952E+02  0.45947676470E+02  0.18358229787E+03  0.18966759125E+03  0.47000000000E+01 0.  1.
         11    1    6    6    0    0  0.29538522593E+02 -0.17655794035E+02  0.12495565642E+03  0.12960774456E+03  0.00000000000E+00 0. -1.
        -12    1    6    6    0    0  0.10503716177E+03 -0.36032503447E+02  0.13729966380E+04  0.13774799144E+04  0.00000000000E+00 0.  1.
</event>
<event>
12    1  0.8271773E-002  0.2039468E+03  0.7818608E-02  0.1146937E+00
         21   -1    0    0  503  502  0.00000000000E+00  0.00000000000E+00  0.84490560301E+03  0.84490560301E+03  0.00000000000E+00 0.  1.
         21   -1    0    0  501  503 -0.00000000000E+00 -0.00000000000E+00 -0.15808363244E+03  0.15808363244E+03  0.00000000000E+00 0. -1.
          6    2    1    2  501    0 -0.10818116860E+03 -0.84622530397E+01 -0.74422115018E+02  0.21489858469E+03  0.16990578427E+03 0.  0.
         24    2    3    3    0    0 -0.66235414063E+01  0.38119195689E+02 -0.22396225988E+02  0.91559352742E+02  0.79903565347E+02 0.  0.
         -6    2    1    2    0  502  0.10818116860E+03  0.84622530397E+01  0.76124408559E+03  0.78809065077E+03  0.17268335477E+03 0.  0.
        -24    2    5    5    0    0  0.11489443567E+03 -0.21555848753E+02  0.37508158806E+03  0.40067650688E+03  0.78677058266E+02 0.  0.
          5    1    3    3  501    0 -0.10155762720E+03 -0.46581448729E+02 -0.52025889030E+02  0.12333923194E+03  0.47000000000E+01 0. -1.
        -11    1    4    4    0    0 -0.33135770752E+00  0.60718912427E+02 -0.28854859179E+02  0.67227219357E+02  0.00000000000E+00 0.  1.
         12    1    4    4    0    0 -0.62921836988E+01 -0.22599716738E+02  0.64586331906E+01  0.24332133384E+02  0.00000000000E+00 0. -1.
         -5    1    5    5    0  502 -0.67132670632E+01  0.30018101792E+02  0.38616249753E+03  0.38741414389E+03  0.47000000000E+01 0.  1.
         11    1    6    6    0    0  0.44705958028E+01  0.91982541522E+01  0.20498427556E+01  0.10430530265E+02  0.00000000000E+00 0. -1.
        -12    1    6    6    0    0  0.11042383986E+03 -0.30754102905E+02  0.37303174531E+03  0.39024597661E+03  0.00000000000E+00 0.  1.
</event>
<event>
12    1  0.8271773E-002  0.2196773E+03  0.7818608E-02  0.1134150E+00
         21   -1    0    0  501  502  0.00000000000E+00  0.00000000000E+00  0.41345622736E+03  0.41345622736E+03  0.00000000000E+00 0. -1.
         21   -1    0    0  502  503 -0.00000000000E+00 -0.00000000000E+00 -0.12512365080E+03  0.12512365080E+03  0.00000000000E+00 0.  1.
         -6    2    1    2    0  503  0.31143252276E+02 -0.13171468018E+03  0.74018123385E+02  0.23167794802E+03  0.17285059986E+03 0.  0.
        -24    2    3    3    0    0  0.19422564252E+02 -0.71530828647E+02 -0.28346227991E+02  0.11226261841E+03  0.79407124380E+02 0.  0.
          6    2    1    2  501    0 -0.31143252276E+02  0.13171468018E+03  0.21431445317E+03  0.30690193014E+03  0.17303020183E+03 0.  0.
         24    2    5    5    0    0 -0.10198390480E+02  0.13524140627E+03  0.92375502078E+02  0.18303779963E+03  0.81088578550E+02 0.  0.
          5    1    5    5  501    0 -0.20944861796E+02 -0.35267260873E+01  0.12193895109E+03  0.12386413051E+03  0.47000000000E+01 0. -1.
        -13    1    6    6    0    0 -0.43456910422E+02  0.85063735343E+02  0.71517368134E+02  0.11932759982E+03  0.00000000000E+00 0.  1.
         14    1    6    6    0    0  0.33258519941E+02  0.50177670926E+02  0.20858133944E+02  0.63710199811E+02  0.00000000000E+00 0. -1.
         -5    1    3    3    0  503  0.11720688025E+02 -0.60183851535E+02  0.10236435138E+03  0.11941532961E+03  0.47000000000E+01 0.  1.
         11    1    4    4    0    0  0.47280538695E+01 -0.54776760686E+02  0.20416579322E+02  0.58648825358E+02  0.00000000000E+00 0. -1.
        -12    1    4    4    0    0  0.14694510382E+02 -0.16754067961E+02 -0.48762807313E+02  0.53613793054E+02  0.00000000000E+00 0.  1.
</event>
<event>
12    1  0.8271773E-002  0.1745321E+03  0.7818608E-02  0.1173934E+00
         21   -1    0    0  503  502  0.00000000000E+00  0.00000000000E+00  0.37291106452E+03  0.37291106452E+03  0.00000000000E+00 0. -1.
         21   -1    0    0  501  503 -0.00000000000E+00 -0.00000000000E+00 -0.14925331772E+03  0.14925331772E+03  0.00000000000E+00 0. -1.
          6    2    1    2  501    0 -0.15701777097E+02  0.36421503067E+01 -0.66068694655E+02  0.18392944289E+03  0.17089516227E+03 0.  0.
         24    2    3    3    0    0  0.10262641033E+02  0.51373821543E+02 -0.71077512953E+01  0.10361165974E+03  0.89108162172E+02 0.  0.
         -6    2    1    2    0  502  0.15701777097E+02 -0.36421503067E+01  0.28972644146E+03  0.33823493934E+03  0.17378622572E+03 0.  0.
        -24    2    5    5    0    0 -0.13339637759E+02  0.60077960480E+02  0.20256514526E+03  0.22632945310E+03  0.80031718697E+02 0.  0.
          5    1    3    3  501    0 -0.25964418130E+02 -0.47731671236E+02 -0.58960943359E+02  0.80317783147E+02  0.47000000000E+01 0. -1.
        -13    1    4    4    0    0 -0.36761138042E+02  0.46343037974E+01 -0.17158874606E+01  0.37091809225E+02  0.00000000000E+00 0.  1.
         14    1    4    4    0    0  0.47023779075E+02  0.46739517746E+02 -0.53918638347E+01  0.66519850520E+02  0.00000000000E+00 0. -1.
         -5    1    5    5    0  502  0.29041414856E+02 -0.63720110786E+02  0.87161296201E+02  0.11190548624E+03  0.47000000000E+01 0.  1.
         13    1    6    6    0    0 -0.34794228456E+02  0.35187875070E+02  0.50309851511E+02  0.70568449359E+02  0.00000000000E+00 0. -1.
        -14    1    6    6    0    0  0.21454590697E+02  0.24890085410E+02  0.15225529374E+03  0.15576100374E+03  0.00000000000E+00 0.  1.
</event>
<event>
12    1  0.8271773E-002  0.2406166E+03  0.7818608E-02  0.1119484E+00
         21   -1    0    0  501  502  0.00000000000E+00  0.00000000000E+00  0.42865477217E+02  0.42865477217E+02  0.00000000000E+00 0. -1.
         21   -1    0    0  502  503 -0.00000000000E+00 -0.00000000000E+00 -0.14957260596E+04  0.14957260596E+04  0.00000000000E+00 0. -1.
         -6    2    1    2    0  503  0.13354761521E+03  0.10076594926E+03 -0.96966046025E+03  0.99906843309E+03  0.17293809225E+03 0.  0.
        -24    2    3    3    0    0 -0.10743148605E+01  0.44118331679E+02 -0.44703621966E+03  0.45639891719E+03  0.80690820893E+02 0.  0.
          6    2    1    2  501    0 -0.13354761521E+03 -0.10076594926E+03 -0.48320012213E+03  0.53952310373E+03  0.17208741782E+03 0.  0.
         24    2    5    5    0    0 -0.14517081796E+03 -0.93989314227E+02 -0.29703121863E+03  0.35280949347E+03  0.79614296880E+02 0.  0.
          5    1    5    5  501    0  0.11623202749E+02 -0.67766350371E+01 -0.18616890350E+03  0.18671361025E+03  0.47000000000E+01 0. -1.
        -13    1    6    6    0    0 -0.52520794369E+02 -0.22410583479E+02 -0.17330281153E+03  0.18246789464E+03  0.00000000000E+00 0.  1.
         14    1    6    6    0    0 -0.92650023593E+02 -0.71578730749E+02 -0.12372840710E+03  0.17034159883E+03  0.00000000000E+00 0. -1.
         -5    1    3    3    0  503  0.13462193007E+03  0.56647617586E+02 -0.52262424059E+03  0.54266951590E+03  0.47000000000E+01 0.  1.
         11    1    4    4    0    0  0.14210223241E+02 -0.19976726773E+02 -0.16208075905E+03  0.16392428896E+03  0.00000000000E+00 0. -1.
        -12    1    4    4    0    0 -0.15284538101E+02  0.64095058451E+02 -0.28495546061E+03  0.29247462822E+03  0.00000000000E+00 0.  1.
</event>
<event>
12    1  0.8271773E-002  0.2070977E+03  0.7818608E-02  0.1144052E+00
         21   -1    0    0  501  502  0.00000000000E+00  0.00000000000E+00  0.25385138211E+03  0.25385138211E+03  0.00000000000E+00 0. -1.
         21   -1    0    0  502  503 -0.00000000000E+00 -0.00000000000E+00 -0.22305502164E+03  0.22305502164E+03  0.00000000000E+00 0. -1.
         -6    2    1    2    0  503  0.73720790254E+02 -0.90825014485E+02 -0.10278670471E+03  0.23046394016E+03  0.16989580006E+03 0.  0.
        -24    2    3    3    0    0  0.51202435257E+02 -0.92539583710E+02 -0.13073150364E+03  0.19422835204E+03  0.97204232231E+02 0.  0.
          6    2    1    2  501    0 -0.73720790254E+02  0.90825014485E+02  0.13358306518E+03  0.24644246359E+03  0.17089620939E+03 0.  0.
         24    2    5    5    0    0  0.34641250535E+01 -0.17194729587E+01  0.28740474734E+02  0.86642425795E+02  0.81645197715E+02 0.  0.
          5    1    5    5  501    0 -0.77184915308E+02  0.92544487444E+02  0.10484259045E+03  0.15980003780E+03  0.47000000000E+01 0. -1.
        -13    1    6    6    0    0 -0.42738059960E+01 -0.41219631113E+02  0.16019677562E+02  0.44429196211E+02  0.00000000000E+00 0.  1.
         14    1    6    6    0    0  0.77379310495E+01  0.39500158154E+02  0.12720797172E+02  0.42213229583E+02  0.00000000000E+00 0. -1.
         -5    1    3    3    0  503  0.22518354997E+02  0.17145692253E+01  0.27944798927E+02  0.36235588121E+02  0.47000000000E+01 0.  1.
         11    1    4    4    0    0  0.74123027181E+02 -0.53886599350E+02 -0.57121480349E+02  0.10798542617E+03  0.00000000000E+00 0. -1.
        -12    1    4    4    0    0 -0.22920591924E+02 -0.38652984360E+02 -0.73610023287E+02  0.86242925869E+02  0.00000000000E+00 0.  1.
</event>
<event>
12    1  0.8271773E-002  0.2119654E+03  0.7818608E-02  0.1140290E+00
         21   -1    0    0  503  502  0.00000000000E+00  0.00000000000E+00  0.11014168638E+03  0.11014168638E+03  0.00000000000E+00 0.  1.
         21   -1    0    0  501  503 -0.00000000000E+00 -0.00000000000E+00 -0.60146839238E+03  0.60146839238E+03  0.00000000000E+00 0.  1.
          6    2    1    2  501    0  0.67582328502E+02  0.10342332229E+03 -0.42990143815E+02  0.21628099040E+03  0.17223692874E+03 0.  0.
         24    2    3    3    0    0 -0.11739280914E+02  0.65608638532E+02 -0.68148062570E+02  0.12475569933E+03  0.80483053608E+02 0.  0.
         -6    2    1    2    0  502 -0.67582328502E+02 -0.10342332229E+03 -0.44833656219E+03  0.49532908836E+03  0.17053292368E+03 0.  0.
        -24    2    5    5    0    0 -0.88621638454E+02 -0.20854559902E+02 -0.31420583050E+03  0.33635300126E+03  0.78226146943E+02 0.  0.
          5    1    3    3  501    0  0.79321609416E+02  0.37814683758E+02  0.25157918756E+02  0.91525291063E+02  0.47000000000E+01 0. -1.
        -11    1    4    4    0    0 -0.18649524459E+02  0.10046041443E+02  0.13963427232E+02  0.25371342323E+02  0.00000000000E+00 0.  1.
         12    1    4    4    0    0  0.69102435448E+01  0.55562597089E+02 -0.82111489802E+02  0.99384357012E+02  0.00000000000E+00 0. -1.
         -5    1    5    5    0  502  0.21039309952E+02 -0.82568762389E+02 -0.13413073169E+03  0.15897608710E+03  0.47000000000E+01 0.  1.
         11    1    6    6    0    0 -0.50439092829E+02  0.27458840856E+02 -0.12980340151E+03  0.14194017426E+03  0.00000000000E+00 0. -1.
        -12    1    6    6    0    0 -0.38182545625E+02 -0.48313400758E+02 -0.18440242899E+03  0.19441282699E+03  0.00000000000E+00 0.  1.
</event>
<event>
12    1  0.8271773E-002  0.1950918E+03  0.7818608E-02  0.1154068E+00
         21   -1    0    0  501  502  0.00000000000E+00  0.00000000000E+00  0.30245226042E+03  0.30245226042E+03  0.00000000000E+00 0. -1.
         21   -1    0    0  502  503 -0.00000000000E+00 -0.00000000000E+00 -0.12899011300E+03  0.12899011300E+03  0.00000000000E+00 0. -1.
         -6    2    1    2    0  503  0.45784612063E+02  0.80088074094E+02  0.51041032580E+02  0.20112144675E+03  0.17127264528E+03 0.  0.
        -24    2    3    3    0    0  0.95826289296E+02  0.81608868500E+02  0.33386707389E+02  0.14782747454E+03  0.69968599106E+02 0.  0.
          6    2    1    2  501    0 -0.45784612063E+02 -0.80088074094E+02  0.12242111484E+03  0.23032092667E+03  0.17190250025E+03 0.  0.
         24    2    5    5    0    0 -0.12585749246E+02 -0.11848313139E+03  0.80884326576E+02  0.16456577709E+03  0.79642747287E+02 0.  0.
          5    1    5    5  501    0 -0.33198862817E+02  0.38395057299E+02  0.41536788260E+02  0.65755149580E+02  0.47000000000E+01 0. -1.
        -11    1    6    6    0    0  0.12419776867E+00 -0.34667363875E+01  0.42511418054E+02  0.42652717981E+02  0.00000000000E+00 0.  1.
         12    1    6    6    0    0 -0.12709947015E+02 -0.11501639501E+03  0.38372908523E+02  0.12191305911E+03  0.00000000000E+00 0. -1.
         -5    1    3    3    0  503 -0.50041677233E+02 -0.15207944054E+01  0.17654325191E+02  0.53293972209E+02  0.47000000000E+01 0.  1.
         11    1    4    4    0    0  0.83088745374E+00  0.38606382684E+02  0.96241282724E+00  0.38627314123E+02  0.00000000000E+00 0. -1.
        -12    1    4    4    0    0  0.94995401842E+02  0.43002485816E+02  0.32424294561E+02  0.10920016042E+03  0.00000000000E+00 0.  1.
</event>
<event>
12    1  0.8271773E-002  0.2590808E+03  0.7818608E-02  0.1107794E+00
         21   -1    0    0  501  502  0.00000000000E+00  0.00000000000E+00  0.33359687867E+03  0.33359687867E+03  0.00000000000E+00 0. -1.
         21   -1    0    0  502  503 -0.00000000000E+00 -0.00000000000E+00 -0.26191238359E+03  0.26191238359E+03  0.00000000000E+00 0.  1.
         -6    2    1    2    0  503  0.34100620717E+02 -0.19078669047E+03 -0.10812355405E+03  0.28014634386E+03  0.17096449176E+03 0.  0.
        -24    2    3    3    0    0  0.72683788151E+01 -0.19088314486E+03 -0.13118802169E+03  0.24445267248E+03  0.77830634851E+02 0.  0.
          6    2    1    2  501    0 -0.34100620717E+02  0.19078669047E+03  0.17980804913E+03  0.31536291840E+03  0.17193144615E+03 0.  0.
         24    2    5    5    0    0  0.16690303763E+02  0.18645032781E+03  0.16551632241E+03  0.26221345459E+03  0.79485544613E+02 0.  0.
          5    1    5    5  501    0 -0.50790924480E+02  0.43363626599E+01  0.14291726718E+02  0.53149463809E+02  0.47000000000E+01 0. -1.
        -11    1    6    6    0    0  0.40124544289E+01  0.89757394063E+02  0.28937610860E+02  0.94392133686E+02  0.00000000000E+00 0.  1.
         12    1    6    6    0    0  0.12677849334E+02  0.96692933746E+02  0.13657871155E+03  0.16782132090E+03  0.00000000000E+00 0. -1.
         -5    1    3    3    0  503  0.26832241902E+02  0.96454395307E-01  0.23064467643E+02  0.35693671380E+02  0.47000000000E+01 0.  1.
         13    1    4    4    0    0  0.41958194330E+02 -0.11346693353E+03 -0.85089901562E+02  0.14790377420E+03  0.00000000000E+00 0. -1.
        -14    1    4    4    0    0 -0.34689815515E+02 -0.77416211339E+02 -0.46098120131E+02  0.96548898275E+02  0.00000000000E+00 0.  1.
</event>
<event>
12    1  0.8271773E-002  0.2258716E+03  0.7818608E-02  0.1132023E+00
         21   -1    0    0  503  502  0.00000000000E+00  0.00000000000E+00  0.65461451233E+02  0.65461451233E+02  0.00000000000E+00 0.  1.
         21   -1    0    0  501  503 -0.00000000000E+00 -0.00000000000E+00 -0.84697653871E+03  0.84697653871E+03  0.00000000000E+00 0.  1.
          6    2    1    2  501    0  0.90443408636E+02 -0.11726808858E+03 -0.54664988912E+03  0.58658578963E+03  0.15272515364E+03 0.  0.
         24    2    3    3    0    0  0.43141771844E+02 -0.61078699760E+02 -0.16506182326E+03  0.19796485058E+03  0.79704808671E+02 0.  0.
         -6    2    1    2    0  502 -0.90443408636E+02  0.11726808858E+03 -0.23486519836E+03  0.32585220032E+03  0.17054670998E+03 0.  0.
        -24    2    5    5    0    0 -0.14162468891E+02 -0.49120812995E+01 -0.74147529814E+02  0.10998410480E+03  0.79836978043E+02 0.  0.
          5    1    3    3  501    0  0.47301636791E+02 -0.56189388821E+02 -0.38158806586E+03  0.38862093904E+03  0.47000000000E+01 0. -1.
        -11    1    4    4    0    0  0.97492233550E+01 -0.20878617112E+02 -0.13645623153E+03  0.13838810329E+03  0.00000000000E+00 0.  1.
         12    1    4    4    0    0  0.33392548489E+02 -0.40200082649E+02 -0.28605591730E+02  0.59576747291E+02  0.00000000000E+00 0. -1.
         -5    1    5    5    0  502 -0.76280939745E+02  0.12218016988E+03 -0.16071766855E+03  0.21586809552E+03  0.47000000000E+01 0.  1.
         13    1    6    6    0    0 -0.46492036118E+02 -0.32185754862E+01 -0.56055708709E+02  0.72897950105E+02  0.00000000000E+00 0. -1.
        -14    1    6    6    0    0  0.32329567227E+02 -0.16935058133E+01 -0.18091821104E+02  0.37086154693E+02  0.00000000000E+00 0.  1.
</event>
<event>
12    1  0.8271773E-002  0.1845679E+03  0.7818608E-02  0.1163794E+00
         21   -1    0    0  503  502  0.00000000000E+00  0.00000000000E+00  0.14440008873E+03  0.14440008873E+03  0.00000000000E+00 0. -1.
         21   -1    0    0  501  503 -0.00000000000E+00 -0.00000000000E+00 -0.24028511902E+03  0.24028511902E+03  0.00000000000E+00 0. -1.
          6    2    1    2  501    0 -0.36208001493E+02  0.56740737638E+02 -0.78700044207E+02  0.19931898885E+03  0.17030511348E+03 0.  0.
         24    2    3    3    0    0  0.13225177810E+02 -0.27227421620E+02 -0.44882872306E+02  0.96071799539E+02  0.79366747597E+02 0.  0.
         -6    2    1    2    0  502  0.36208001493E+02 -0.56740737638E+02 -0.17184986087E+02  0.18536621890E+03  0.17185686102E+03 0.  0.
        -24    2    5    5    0    0  0.23587316397E+02 -0.97169348743E+02  0.17819458243E+02  0.13021954709E+03  0.81494499954E+02 0.  0.
          5    1    3    3  501    0 -0.49433179303E+02  0.83968159258E+02 -0.33817171901E+02  0.10324718931E+03  0.47000000000E+01 0. -1.
        -13    1    4    4    0    0  0.42332700475E+02  0.86867882737E+00 -0.12200453771E+02  0.44064307604E+02  0.00000000000E+00 0.  1.
         14    1    4    4    0    0 -0.29107522665E+02 -0.28096100447E+02 -0.32682418535E+02  0.52007491935E+02  0.00000000000E+00 0. -1.
         -5    1    5    5    0  502  0.12620685096E+02  0.40428611105E+02 -0.35004444330E+02  0.55146671804E+02  0.47000000000E+01 0.  1.
         13    1    6    6    0    0  0.10939685284E+02 -0.28179052222E+02 -0.32127955815E+02  0.44112824021E+02  0.00000000000E+00 0. -1.
        -14    1    6    6    0    0  0.12647631113E+02 -0.68990296521E+02  0.49947414059E+02  0.86106723071E+02  0.00000000000E+00 0.  1.
</event>
<event>
12    1  0.8271773E-002  0.1792884E+03  0.7818608E-02  0.1168897E+00
         21   -1    0    0  503  502  0.00000000000E+00  0.00000000000E+00  0.23232664661E+03  0.23232664661E+03  0.00000000000E+00 0. -1.
         21   -1    0    0  501  503 -0.00000000000E+00 -0.00000000000E+00 -0.18725864206E+03  0.18725864206E+03  0.00000000000E+00 0. -1.
          6    2    1    2  501    0 -0.93841264668E+01 -0.46279920277E+02 -0.86134517403E+02  0.19741772555E+03  0.17124459238E+03 0.  0.
         24    2    3    3    0    0 -0.58887679377E+02 -0.55069813427E+02 -0.86367545834E+02  0.14692011892E+03  0.87325398583E+02 0.  0.
         -6    2    1    2    0  502  0.93841264668E+01  0.46279920277E+02  0.13120252195E+03  0.22216756312E+03  0.17295788934E+03 0.  0.
        -24    2    5    5    0    0 -0.12396875598E+02 -0.88528672016E+01  0.13994978504E+03  0.16206231445E+03  0.80288203685E+02 0.  0.
          5    1    3    3  501    0  0.49503552910E+02  0.87898931505E+01  0.23302843174E+00  0.50497606622E+02  0.47000000000E+01 0. -1.
        -13    1    4    4    0    0 -0.15870461930E+01  0.20173414671E+02 -0.31908213038E+02  0.37783851503E+02  0.00000000000E+00 0.  1.
         14    1    4    4    0    0 -0.57300633184E+02 -0.75243228098E+02 -0.54459332796E+02  0.10913626742E+03  0.00000000000E+00 0. -1.
         -5    1    5    5    0  502  0.21781002065E+02  0.55132787478E+02 -0.87472630871E+01  0.60105248669E+02  0.47000000000E+01 0.  1.
         13    1    6    6    0    0  0.19117756786E-01  0.35104768791E+02  0.48884497779E+02  0.60183380434E+02  0.00000000000E+00 0. -1.
        -14    1    6    6    0    0 -0.12415993355E+02 -0.43957635993E+02  0.91065287259E+02  0.10187893402E+03  0.00000000000E+00 0.  1.
</event>
<event>
12    1  0.8271773E-002  0.2178064E+03  0.7818608E-02  0.1135672E+00
         21   -1    0    0  503  502  0.00000000000E+00  0.00000000000E+00  0.55680632494E+03  0.55680632494E+03  0.00000000000E+00 0.  1.
         21   -1    0    0  501  503 -0.00000000000E+00 -0.00000000000E+00 -0.84931921376E+02  0.84931921376E+02  0.00000000000E+00 0. -1.
          6    2    1    2  501    0 -0.46527923269E+02 -0.12470129753E+03  0.24122775004E+03  0.32450408939E+03  0.17145499525E+03 0.  0.
         24    2    3    3    0    0 -0.73766954277E+02 -0.27684363614E+02  0.15848279161E+03  0.19403160792E+03  0.79520325096E+02 0.  0.
         -6    2    1    2    0  502  0.46527923269E+02  0.12470129753E+03  0.23064665353E+03  0.31723415692E+03  0.17240757026E+03 0.  0.
        -24    2    5    5    0    0  0.34478158195E+02 -0.38095083556E+01  0.11140558724E+03  0.14144807682E+03  0.79956849746E+02 0.  0.
          5    1    3    3  501    0  0.27239031009E+02 -0.97016933917E+02  0.82744958423E+02  0.13047248147E+03  0.47000000000E+01 0. -1.
        -13    1    4    4    0    0 -0.73833043094E+02 -0.48088808305E+02  0.10673318357E+03  0.13840456716E+03  0.00000000000E+00 0.  1.
         14    1    4    4    0    0  0.66088816590E-01  0.20404444691E+02  0.51749608047E+02  0.55627040761E+02  0.00000000000E+00 0. -1.
         -5    1    5    5    0  502  0.12049765074E+02  0.12851080589E+03  0.11924106629E+03  0.17578608010E+03  0.47000000000E+01 0.  1.
         13    1    6    6    0    0  0.34660567946E+02  0.34456199274E+02  0.63897972107E+02  0.80445854326E+02  0.00000000000E+00 0. -1.
        -14    1    6    6    0    0 -0.18240975085E+00 -0.38265707629E+02  0.47507615134E+02  0.61002222495E+02  0.00000000000E+00 0.  1.
</event>
<event>
12    1  0.8271773E-002  0.1894465E+03  0.7818608E-02  0.1159256E+00
         21   -1    0    0  503  502  0.00000000000E+00  0.00000000000E+00  0.40728320416E+03  0.40728320416E+03  0.00000000000E+00 0.  1.
         21   -1    0    0  501  503 -0.00000000000E+00 -0.00000000000E+00 -0.12671370129E+03  0.12671370129E+03  0.00000000000E+00 0.  1.
          6    2    1    2  501    0  0.42566542662E+02  0.64313587945E+02 -0.85418172280E+01  0.18834485319E+03  0.17161781065E+03 0.  0.
         24    2    3    3    0    0  0.30598441542E+01  0.80426475173E+02  0.45259156821E+02  0.11951870139E+03  0.75885098352E+02 0.  0.
         -6    2    1    2    0  502 -0.42566542662E+02 -0.64313587945E+02  0.28911132010E+03  0.34565205226E+03  0.17303709912E+03 0.  0.
        -24    2    5    5    0    0 -0.63100732096E+02 -0.80433797580E+02  0.12743948140E+03  0.18181863832E+03  0.79786575543E+02 0.  0.
          5    1    3    3  501    0  0.39506698508E+02 -0.16112887228E+02 -0.53800974049E+02  0.68826151791E+02  0.47000000000E+01 0. -1.
        -13    1    4    4    0    0  0.10845354421E+02  0.83478668738E+02  0.11767371601E+02  0.84998711056E+02  0.00000000000E+00 0.  1.
         14    1    4    4    0    0 -0.77855102671E+01 -0.30521935655E+01  0.33491785220E+02  0.34519990338E+02  0.00000000000E+00 0. -1.
         -5    1    5    5    0  502  0.20534189434E+02  0.16120209636E+02  0.16167183870E+03  0.16383341394E+03  0.47000000000E+01 0.  1.
         13    1    6    6    0    0  0.11640406971E+02  0.74859802698E+01  0.93072501363E+01  0.16678245716E+02  0.00000000000E+00 0. -1.
        -14    1    6    6    0    0 -0.74741139067E+02 -0.87919777850E+02  0.11813223126E+03  0.16514039261E+03  0.00000000000E+00 0.  1.
</event>
<event>
12    1  0.8271773E-002  0.1817291E+03  0.7818608E-02  0.1166764E+00
         21   -1    0    0  501  502  0.00000000000E+00  0.00000000000E+00  0.20507561595E+03  0.20507561595E+03  0.00000000000E+00 0.  1.
         21   -1    0    0  502  503 -0.00000000000E+00 -0.00000000000E+00 -0.63427043953E+03  0.63427043953E+03  0.00000000000E+00 0.  1.
         -6    2    1    2    0  503  0.66004763862E+01 -0.58568968173E+02 -0.57758639778E+03  0.60472823850E+03  0.16916354575E+03 0.  0.
        -24    2    3    3    0    0  0.12900681430E+02 -0.92147871566E+02 -0.28894784476E+03  0.31403675319E+03  0.80439838072E+02 0.  0.
          6    2    1    2  501    0 -0.66004763862E+01  0.58568968173E+02  0.14839157420E+03  0.23461781698E+03  0.17190570214E+03 0.  0.
         24    2    5    5    0    0  0.54281661681E+02  0.79945773646E+02  0.97311469129E+02  0.15218681746E+03  0.65980905313E+02 0.  0.
          5    1    5    5  501    0 -0.60882138067E+02 -0.21376805473E+02  0.51080105070E+02  0.82430999519E+02  0.47000000000E+01 0. -1.
        -13    1    6    6    0    0  0.27538391594E+02 -0.49598728427E+01  0.22405559896E+02  0.35846512584E+02  0.00000000000E+00 0.  1.
         14    1    6    6    0    0  0.26743270087E+02  0.84905646489E+02  0.74905909233E+02  0.11634030488E+03  0.00000000000E+00 0. -1.
         -5    1    3    3    0  503 -0.63002050439E+01  0.33578903392E+02 -0.28863855303E+03  0.29069148531E+03  0.47000000000E+01 0.  1.
         11    1    4    4    0    0 -0.26765793130E+02 -0.11029176904E+02 -0.41260892653E+02  0.50403488843E+02  0.00000000000E+00 0. -1.
        -12    1    4    4    0    0  0.39666474560E+02 -0.81118694662E+02 -0.24768695210E+03  0.26363326435E+03  0.00000000000E+00 0.  1.
</event>
<event>
12    1  0.8271773E-002  0.2409578E+03  0.7818608E-02  0.1119247E+00
         21   -1    0    0  501  502  0.00000000000E+00  0.00000000000E+00  0.16769368584E+03  0.16769368584E+03  0.00000000000E+00 0.  1.
         21   -1    0    0  502  503 -0.00000000000E+00 -0.00000000000E+00 -0.10530039897E+04  0.10530039897E+04  0.00000000000E+00 0. -1.
         -6    2    1    2    0  503 -0.38722045477E+02 -0.16378370049E+03 -0.94280588463E+03  0.97297526486E+03  0.17167828226E+03 0.  0.
        -24    2    3    3    0    0  0.11003775453E+02 -0.17035731965E+03 -0.69197831980E+03  0.71713854543E+03  0.79441795232E+02 0.  0.
          6    2    1    2  501    0  0.38722045477E+02  0.16378370049E+03  0.57495580784E+02  0.24772241067E+03  0.17244173969E+03 0.  0.
         24    2    5    5    0    0  0.62080381886E+02  0.71773447242E+02  0.43560862847E+02  0.15166115445E+03  0.10999161538E+03 0.  0.
          5    1    5    5  501    0 -0.23358336409E+02  0.92010253245E+02  0.13934717937E+02  0.96061256217E+02  0.47000000000E+01 0. -1.
        -11    1    6    6    0    0 -0.22688310018E+02  0.49445071061E+02  0.32332759817E+02  0.63284925702E+02  0.00000000000E+00 0.  1.
         12    1    6    6    0    0  0.84768691904E+02  0.22328376181E+02  0.11228103029E+02  0.88376228747E+02  0.00000000000E+00 0. -1.
         -5    1    3    3    0  503 -0.49725820930E+02  0.65736191607E+01 -0.25082756482E+03  0.25583671944E+03  0.47000000000E+01 0.  1.
         13    1    4    4    0    0  0.80774742197E+01 -0.34379692393E+02 -0.30332943047E+03  0.30537837551E+03  0.00000000000E+00 0. -1.
        -14    1    4    4    0    0  0.29263012337E+01 -0.13597762725E+03 -0.38864888933E+03  0.41176016992E+03  0.00000000000E+00 0.  1.
</event>
<event>
12    1  0.8271773E-002  0.1774816E+03  0.7818608E-02  0.1171839E+00
         21   -1    0    0  503  502  0.00000000000E+00  0.00000000000E+00  0.14238228881E+03  0.14238228881E+03  0.00000000000E+00 0.  1.
         21   -1    0    0  501  503 -0.00000000000E+00 -0.00000000000E+00 -0.21616145632E+03  0.21616145632E+03  0.00000000000E+00 0.  1.
          6    2    1    2  501    0 -0.35577474538E+02 -0.24518970507E+02 -0.17588160024E+02  0.17835097231E+03  0.17214177105E+03 0.  0.
         24    2    3    3    0    0 -0.13967449344E+02 -0.63859656676E+02 -0.57473902269E+02  0.11812103613E+03  0.79851013415E+02 0.  0.
         -6    2    1    2    0  502  0.35577474538E+02  0.24518970507E+02 -0.56191007495E+02  0.18019277282E+03  0.16566553487E+03 0.  0.
        -24    2    5    5    0    0  0.15266415059E+02 -0.35965211437E+02  0.90522960347E+01  0.88816331339E+02  0.79245421234E+02 0.  0.
          5    1    3    3  501    0 -0.21610025194E+02  0.39340686169E+02  0.39885742245E+02  0.60229936174E+02  0.47000000000E+01 0. -1.
        -13    1    4    4    0    0 -0.39176104117E+01 -0.18013048641E+02 -0.67631948214E+02  0.70099201222E+02  0.00000000000E+00 0.  1.
         14    1    4    4    0    0 -0.10049838933E+02 -0.45846608035E+02  0.10158045945E+02  0.48021834912E+02  0.00000000000E+00 0. -1.
         -5    1    5    5    0  502  0.20311059480E+02  0.60484181944E+02 -0.65243303530E+02  0.91376441483E+02  0.47000000000E+01 0.  1.
         13    1    6    6    0    0  0.34930232373E+01 -0.30497514414E+02 -0.32843555314E+02  0.44955519377E+02  0.00000000000E+00 0. -1.
        -14    1    6    6    0    0  0.11773391821E+02 -0.54676970229E+01  0.41895851349E+02  0.43860811962E+02  0.00000000000E+00 0.  1.
</event>
<event>
12    1  0.8271773E-002  0.1802594E+03  0.7818608E-02  0.1168192E+00
         21   -1    0    0  501  502  0.00000000000E+00  0.00000000000E+00  0.30917059221E+03  0.30917059221E+03  0.00000000000E+00 0. -1.
         21   -1    0    0  502  503 -0.00000000000E+00 -0.00000000000E+00 -0.10480903153E+03  0.10480903153E+03  0.00000000000E+00 0. -1.
         -6    2    1    2    0  503  0.36400117604E+02  0.40702153777E+02  0.12393226123E+03  0.21659086882E+03  0.16902888865E+03 0.  0.
        -24    2    3    3    0    0  0.40242424982E+02 -0.42606177948E+01  0.14205738569E+03  0.16773368623E+03  0.79477563083E+02 0.  0.
          6    2    1    2  501    0 -0.36400117604E+02 -0.40702153777E+02  0.80429299448E+02  0.19738875492E+03  0.17179003020E+03 0.  0.
         24    2    5    5    0    0  0.44365460237E+02 -0.20743603543E+02  0.32121645081E+02  0.10107083467E+03  0.82370640323E+02 0.  0.
          5    1    5    5  501    0 -0.80765577841E+02 -0.19958550234E+02  0.48307654368E+02  0.96317920253E+02  0.47000000000E+01 0. -1.
        -13    1    6    6    0    0  0.11464517241E+02 -0.49626511021E+02  0.24917769396E+02  0.56702036853E+02  0.00000000000E+00 0.  1.
         14    1    6    6    0    0  0.32900942996E+02  0.28882907478E+02  0.72038756850E+01  0.44368797812E+02  0.00000000000E+00 0. -1.
         -5    1    3    3    0  503 -0.38423073776E+01  0.44962771572E+02 -0.18125124465E+02  0.48857182587E+02  0.47000000000E+01 0.  1.
         13    1    4    4    0    0  0.50267314542E+02  0.11568813633E+02  0.43690105864E+02  0.67597823268E+02  0.00000000000E+00 0. -1.
        -14    1    4    4    0    0 -0.10024889560E+02 -0.15829431428E+02  0.98367279829E+02  0.10013586296E+03  0.00000000000E+00 0.  1.
</event>
<event>
12    1  0.8271773E-002  0.2064606E+03  0.7818608E-02  0.1144594E+00
         21   -1    0    0  503  502  0.00000000000E+00  0.00000000000E+00  0.16929178239E+04  0.16929178239E+04  0.00000000000E+00 0.  1.
         21   -1    0    0  501  503 -0.00000000000E+00 -0.00000000000E+00 -0.34873783399E+02  0.34873783399E+02  0.00000000000E+00 0.  1.
          6    2    1    2  501    0 -0.58932271657E+02 -0.95677569784E+02  0.36940618398E+03  0.42271937939E+03  0.17205677826E+03 0.  0.
         24    2    3    3    0    0 -0.66878290634E+02 -0.12932169759E+03  0.33539762536E+03  0.37399835094E+03  0.78653621568E+02 0.  0.
         -6    2    1    2    0  502  0.58932271657E+02  0.95677569784E+02  0.12886378565E+04  0.13050722279E+04  0.17320157275E+03 0.  0.
        -24    2    5    5    0    0  0.27281217834E+02  0.13320835489E+03  0.94608478401E+03  0.95898691108E+03  0.78043234368E+02 0.  0.
          5    1    3    3  501    0  0.79460189768E+01  0.33644127806E+02  0.34008558624E+02  0.48721028448E+02  0.47000000000E+01 0. -1.
        -13    1    4    4    0    0 -0.56077191453E+02 -0.33307836549E+02  0.98303434794E+02  0.11797299975E+03  0.00000000000E+00 0.  1.
         14    1    4    4    0    0 -0.10801099181E+02 -0.96013861040E+02  0.23709419056E+03  0.25602535119E+03  0.00000000000E+00 0. -1.
         -5    1    5    5    0  502  0.31651053823E+02 -0.37530785107E+02  0.34255307247E+03  0.34608531679E+03  0.47000000000E+01 0.  1.
         11    1    6    6    0    0 -0.16996172009E+02  0.55199344114E+02  0.54186123034E+03  0.54493066568E+03  0.00000000000E+00 0. -1.
        -12    1    6    6    0    0  0.44277389843E+02  0.78009010777E+02  0.40422355368E+03  0.41405624541E+03  0.00000000000E+00 0.  1.
</event>
<event>
12    1  0.8271773E-002  0.3035214E+03  0.7818608E-02  0.1083499E+00
         21   -1    0    0  501  502  0.00000000000E+00  0.00000000000E+00  0.62928213354E+03  0.62928213354E+03  0.00000000000E+00 0. -1.
         21   -1    0    0  502  503 -0.00000000000E+00 -0.00000000000E+00 -0.35240243816E+03  0.35240243816E+03  0.00000000000E+00 0.  1.
         -6    2    1    2    0  503 -0.24206396657E+03 -0.59576122890E+02 -0.23685985616E+03  0.38500367267E+03  0.17315010302E+03 0.  0.
        -24    2    3    3    0    0 -0.21946258523E+03 -0.45659299711E+02 -0.25796264238E+03  0.35077038489E+03  0.79035056079E+02 0.  0.
          6    2    1    2  501    0  0.24206396657E+03  0.59576122890E+02  0.51373955154E+03  0.59668089904E+03  0.17307654411E+03 0.  0.
         24    2    5    5    0    0  0.53756291693E+02  0.61417767643E+02  0.21059213497E+03  0.23977248187E+03  0.80497917169E+02 0.  0.
          5    1    5    5  501    0  0.18830767488E+03 -0.18416447531E+01  0.30314741657E+03  0.35690841717E+03  0.47000000000E+01 0. -1.
        -11    1    6    6    0    0  0.14586202239E+01  0.31818577070E+02  0.15094762986E+02  0.35247713249E+02  0.00000000000E+00 0.  1.
         12    1    6    6    0    0  0.52297671469E+02  0.29599190573E+02  0.19549737199E+03  0.20452476862E+03  0.00000000000E+00 0. -1.
         -5    1    3    3    0  503 -0.22601381340E+02 -0.13916823179E+02  0.21102786215E+02  0.34233287775E+02  0.47000000000E+01 0.  1.
         11    1    4    4    0    0 -0.46046512146E+02 -0.38124988624E+02 -0.39108477353E+02  0.71437168472E+02  0.00000000000E+00 0. -1.
        -12    1    4    4    0    0 -0.17341607308E+03 -0.75343110869E+01 -0.21885416502E+03  0.27933321642E+03  0.00000000000E+00 0.  1.
</event>
<event>
12    1  0.8271773E-002  0.4700964E+03  0.7818608E-02  0.1021899E+00
         21   -1    0    0  503  502  0.00000000000E+00  0.00000000000E+00  0.62496939028E+03  0.62496939028E+03  0.00000000000E+00 0. -1.
         21   -1    0    0  501  503 -0.00000000000E+00 -0.00000000000E+00 -0.36402825041E+03  0.36402825041E+03  0.00000000000E+00 0.  1.
          6    2    1    2  501    0  0.37182919285E+03  0.23051821298E+03  0.46496388337E+02  0.47229926171E+03  0.17178208087E+03 0.  0.
         24    2    3    3    0    0  0.32878677253E+03  0.24974644674E+03  0.55746870537E+02  0.42402881172E+03  0.78858671969E+02 0.  0.
         -6    2    1    2    0  502 -0.37182919285E+03 -0.23051821298E+03  0.21444475153E+03  0.51669837898E+03  0.17203217203E+03 0.  0.
        -24    2    5    5    0    0 -0.23350769036E+03 -0.19529991845E+03  0.20085636478E+03  0.37324141479E+03  0.79359780989E+02 0.  0.
          5    1    3    3  501    0  0.43042420324E+02 -0.19228233760E+02 -0.92504822001E+01  0.48270449986E+02  0.47000000000E+01 0. -1.
        -13    1    4    4    0    0  0.72625431615E+02  0.23329476850E+02 -0.63837318570E+01  0.76547173950E+02  0.00000000000E+00 0.  1.
         14    1    4    4    0    0  0.25616134091E+03  0.22641696989E+03  0.62130602394E+02  0.34748163777E+03  0.00000000000E+00 0. -1.
         -5    1    5    5    0  502 -0.13832150249E+03 -0.35218294527E+02  0.13588386753E+02  0.14345696419E+03  0.47000000000E+01 0.  1.
         13    1    6    6    0    0 -0.20273700875E+03 -0.12627776723E+03  0.15776718786E+03  0.28624963717E+03  0.00000000000E+00 0. -1.
        -14    1    6    6    0    0 -0.30770681607E+02 -0.69022151226E+02  0.43089176911E+02  0.86991777619E+02  0.00000000000E+00 0.  1.
</event>
<event>
12    1  0.8271773E-002  0.2154051E+03  0.7818608E-02  0.1137579E+00
         21   -1    0    0  501  502  0.00000000000E+00  0.00000000000E+00  0.78833962238E+03  0.78833962238E+03  0.00000000000E+00 0. -1.
         21   -1    0    0  502  503 -0.00000000000E+00 -0.00000000000E+00 -0.74891966640E+02  0.74891966640E+02  0.00000000000E+00 0. -1.
         -6    2    1    2    0  503  0.49636567832E+02 -0.11778220962E+03  0.15429382095E+03  0.26402178948E+03  0.17194325915E+03 0.  0.
        -24    2    3    3    0    0  0.69526405884E+02 -0.11403836246E+02  0.97397782658E+02  0.14166488059E+03  0.74957599543E+02 0.  0.
          6    2    1    2  501    0 -0.49636567832E+02  0.11778220962E+03  0.55915383480E+03  0.59920979954E+03  0.17338666365E+03 0.  0.
         24    2    5    5    0    0  0.13830586640E+02  0.26404602316E+02  0.12983567299E+03  0.15568514310E+03  0.80573405365E+02 0.  0.
          5    1    5    5  501    0 -0.63467154471E+02  0.91377607308E+02  0.42931816181E+03  0.44352465644E+03  0.47000000000E+01 0. -1.
        -13    1    6    6    0    0  0.11952851160E+02  0.49284127359E+02  0.12080244693E+03  0.13101536950E+03  0.00000000000E+00 0.  1.
         14    1    6    6    0    0  0.18777354797E+01 -0.22879525044E+02  0.90332260626E+01  0.24669773608E+02  0.00000000000E+00 0. -1.
         -5    1    3    3    0  503 -0.19889838052E+02 -0.10637837338E+03  0.56896038288E+02  0.12235690889E+03  0.47000000000E+01 0.  1.
         13    1    4    4    0    0 -0.79064694418E+01 -0.52452253244E+01 -0.68190800803E+01  0.11684369939E+02  0.00000000000E+00 0. -1.
        -14    1    4    4    0    0  0.77432875326E+02 -0.61586109213E+01  0.10421686274E+03  0.12998051065E+03  0.00000000000E+00 0.  1.
</event>
<event>
12    1  0.8271773E-002  0.2521011E+03  0.7818608E-02  0.1112003E+00
         21   -1    0    0  503  502  0.00000000000E+00  0.00000000000E+00  0.72183732171E+03  0.72183732171E+03  0.00000000000E+00 0.  1.
         21   -1    0    0  501  503 -0.00000000000E+00 -0.00000000000E+00 -0.13379436395E+03  0.13379436395E+03  0.00000000000E+00 0.  1.
          6    2    1    2  501    0 -0.75579094871E+02  0.16713613689E+03  0.43699376033E+02  0.25574428879E+03  0.17276810455E+03 0.  0.
         24    2    3    3    0    0 -0.15461960668E+02  0.83562461182E+02 -0.39792018243E+02  0.12311121594E+03  0.79694476772E+02 0.  0.
         -6    2    1    2    0  502  0.75579094871E+02 -0.16713613689E+03  0.54434358173E+03  0.59988739686E+03  0.17294006509E+03 0.  0.
        -24    2    5    5    0    0  0.40285240356E+02 -0.54464287816E+02  0.11855126434E+03  0.15800303497E+03  0.79506588061E+02 0.  0.
          5    1    3    3  501    0 -0.60117134203E+02  0.83573675708E+02  0.83491394276E+02  0.13263307285E+03  0.47000000000E+01 0. -1.
        -11    1    4    4    0    0 -0.33378325235E+02  0.27384187377E+01 -0.80168905794E+01  0.34436638443E+02  0.00000000000E+00 0.  1.
         12    1    4    4    0    0  0.17916364567E+02  0.80824042444E+02 -0.31775127664E+02  0.88674577497E+02  0.00000000000E+00 0. -1.
         -5    1    5    5    0  502  0.35293854515E+02 -0.11267184907E+03  0.42579231739E+03  0.44188436189E+03  0.47000000000E+01 0.  1.
         13    1    6    6    0    0  0.40436123678E+02 -0.11672649548E+01  0.87305307804E+02  0.96221927731E+02  0.00000000000E+00 0. -1.
        -14    1    6    6    0    0 -0.15088332250E+00 -0.53297022862E+02  0.31245956535E+02  0.61781107237E+02  0.00000000000E+00 0.  1.
</event>
<event>
12    1  0.8271773E-002  0.2214452E+03  0.7818608E-02  0.1132907E+00
         21   -1    0    0  503  502  0.00000000000E+00  0.00000000000E+00  0.41438264731E+03  0.41438264731E+03  0.00000000000E+00 0.  1.
         21   -1    0    0  501  503 -0.00000000000E+00 -0.00000000000E+00 -0.11902659389E+03  0.11902659389E+03  0.00000000000E+00 0. -1.
          6    2    1    2  501    0 -0.74687185434E+02 -0.11651447514E+03  0.17187019103E+03  0.28031651178E+03  0.17287043016E+03 0.  0.
         24    2    3    3    0    0 -0.87314939051E+02 -0.94074779445E+02  0.19332540628E+03  0.24647251133E+03  0.83066379606E+02 0.  0.
         -6    2    1    2    0  502  0.74687185434E+02  0.11651447514E+03  0.12348586240E+03  0.25309272943E+03  0.17220154729E+03 0.  0.
        -24    2    5    5    0    0 -0.27043480151E+02  0.48730659675E+02  0.66227485118E+02  0.11802094951E+03  0.80229905447E+02 0.  0.
          5    1    3    3  501    0  0.12627753617E+02 -0.22439695698E+02 -0.21455215252E+02  0.33844000442E+02  0.47000000000E+01 0. -1.
        -11    1    4    4    0    0 -0.83870736290E+02 -0.10018902222E+03  0.13554433013E+03  0.18826684788E+03  0.00000000000E+00 0.  1.
         12    1    4    4    0    0 -0.34442027606E+01  0.61142427759E+01  0.57781076148E+02  0.58205663455E+02  0.00000000000E+00 0. -1.
         -5    1    5    5    0  502  0.10173066558E+03  0.67783815468E+02  0.57258377281E+02  0.13507177991E+03  0.47000000000E+01 0.  1.
         13    1    6    6    0    0  0.14085346587E+02 -0.60565526778E+01 -0.77628649319E+01  0.17185484886E+02  0.00000000000E+00 0. -1.
        -14    1    6    6    0    0 -0.41128826738E+02  0.54787212353E+02  0.73990350050E+02  0.10083546463E+03  0.00000000000E+00 0.  1.
</event>
<event>
12    1  0.8271773E-002  0.1742205E+03  0.7818608E-02  0.1173550E+00
         21   -1    0    0  503  502  0.00000000000E+00  0.00000000000E+00  0.34569445198E+02  0.34569445198E+02  0.00000000000E+00 0.  1.
         21   -1    0    0  501  503 -0.00000000000E+00 -0.00000000000E+00 -0.15555367154E+04  0.15555367154E+04  0.00000000000E+00 0.  1.
          6    2    1    2  501    0 -0.18437436581E+02 -0.19261018177E+02 -0.12852840000E+04  0.12970202191E+04  0.17203360793E+03 0.  0.
         24    2    3    3    0    0  0.54868904340E+02 -0.37036616338E+01 -0.78567259573E+03  0.79179799451E+03  0.81475902296E+02 0.  0.
         -6    2    1    2    0  502  0.18437436581E+02  0.19261018177E+02 -0.23568327024E+03  0.29308594152E+03  0.17216805556E+03 0.  0.
        -24    2    5    5    0    0  0.70712456162E+02 -0.12454749921E+02 -0.10654587320E+03  0.15012746876E+03  0.77658621729E+02 0.  0.
          5    1    3    3  501    0 -0.73306340921E+02 -0.15557356543E+02 -0.49961140426E+03  0.50522222460E+03  0.47000000000E+01 0. -1.
        -13    1    4    4    0    0  0.17262073176E+02 -0.86058439981E+01 -0.66557880646E+03  0.66585823366E+03  0.00000000000E+00 0.  1.
         14    1    4    4    0    0  0.37606831164E+02  0.49021823643E+01 -0.12009378927E+03  0.12593976086E+03  0.00000000000E+00 0. -1.
         -5    1    5    5    0  502 -0.52275019581E+02  0.31715768098E+02 -0.12913739704E+03  0.14295847276E+03  0.47000000000E+01 0.  1.
         13    1    6    6    0    0 -0.16313130212E+02 -0.54778690294E+01 -0.27006753240E+02  0.32023272584E+02  0.00000000000E+00 0. -1.
        -14    1    6    6    0    0  0.87025586374E+02 -0.69768808919E+01 -0.79539119958E+02  0.11810419618E+03  0.00000000000E+00 0.  1.
</event>
<event>
12    1  0.8271773E-002  0.2576219E+03  0.7818608E-02  0.1109329E+00
         21   -1    0    0  503  502  0.00000000000E+00  0.00000000000E+00  0.12574964480E+04  0.12574964480E+04  0.00000000000E+00 0. -1.
         21   -1    0    0  501  503 -0.00000000000E+00 -0.00000000000E+00 -0.81753007969E+02  0.81753007969E+02  0.00000000000E+00 0.  1.
          6    2    1    2  501    0 -0.66134280744E+02 -0.17479326076E+03  0.18601717301E+03  0.31775998670E+03  0.17732059495E+03 0.  0.
         24    2    3    3    0    0 -0.94417554819E+02 -0.10570753402E+03  0.69245570953E+02  0.17908598669E+03  0.84782569694E+02 0.  0.
         -6    2    1    2    0  502  0.66134280744E+02  0.17479326076E+03  0.98972626697E+03  0.10214894692E+04  0.17016528762E+03 0.  0.
        -24    2    5    5    0    0  0.88822670270E+02  0.73667519420E+02  0.69387855141E+03  0.70797848156E+03  0.80310124413E+02 0.  0.
          5    1    3    3  501    0  0.28283274075E+02 -0.69085726735E+02  0.11677160206E+03  0.13867400001E+03  0.47000000000E+01 0. -1.
        -13    1    4    4    0    0 -0.37936695913E+01 -0.26857294056E+02 -0.16271495219E+02  0.31630171192E+02  0.00000000000E+00 0.  1.
         14    1    4    4    0    0 -0.90623885228E+02 -0.78850239966E+02  0.85517066172E+02  0.14745581549E+03  0.00000000000E+00 0. -1.
         -5    1    5    5    0  502 -0.22688389525E+02  0.10112574134E+03  0.29584771556E+03  0.31351098766E+03  0.47000000000E+01 0.  1.
         13    1    6    6    0    0  0.34780581331E+02  0.77795527876E+02  0.46740357007E+03  0.47510833534E+03  0.00000000000E+00 0. -1.
        -14    1    6    6    0    0  0.54042088939E+02 -0.41280084561E+01  0.22647498133E+03  0.23287014622E+03  0.00000000000E+00 0.  1.
</event>
<event>
12    1  0.8271773E-002  0.2005314E+03  0.7818608E-02  0.1149311E+00
         21   -1    0    0  503  502  0.00000000000E+00  0.00000000000E+00  0.24354193420E+03  0.24354193420E+03  0.00000000000E+00 0. -1.
         21   -1    0    0  501  503 -0.00000000000E+00 -0.00000000000E+00 -0.16786859183E+03  0.16786859183E+03  0.00000000000E+00 0. -1.
          6    2    1    2  501    0  0.70607822358E+02 -0.74633174683E+02  0.11123636870E+02  0.20074610315E+03  0.17210371086E+03 0.  0.
         24    2    3    3    0    0  0.62602150501E+01 -0.47610979451E+02 -0.50422910408E+02  0.10757485714E+03  0.81999294741E+02 0.  0.
         -6    2    1    2    0  502 -0.70607822358E+02  0.74633174683E+02  0.64549705494E+02  0.21066442287E+03  0.17221283124E+03 0.  0.
        -24    2    5    5    0    0 -0.82859421224E+02  0.81960963940E+02  0.99394584990E+02  0.17271638212E+03  0.79802141767E+02 0.  0.
          5    1    3    3  501    0  0.64347607308E+02 -0.27022195232E+02  0.61546547278E+02  0.93171246012E+02  0.47000000000E+01 0. -1.
        -11    1    4    4    0    0 -0.31745503770E+02 -0.20010544450E+02  0.15040288028E+01  0.37556104716E+02  0.00000000000E+00 0.  1.
         12    1    4    4    0    0  0.38005718820E+02 -0.27600435001E+02 -0.51926939211E+02  0.70018752424E+02  0.00000000000E+00 0. -1.
         -5    1    5    5    0  502  0.12251598866E+02 -0.73277892571E+01 -0.34844879497E+02  0.37948040757E+02  0.47000000000E+01 0.  1.
         11    1    6    6    0    0 -0.59056424272E+02  0.19925187868E+02  0.12903491759E+02  0.63648837059E+02  0.00000000000E+00 0. -1.
        -12    1    6    6    0    0 -0.23802996953E+02  0.62035776071E+02  0.86491093231E+02  0.10906754506E+03  0.00000000000E+00 0.  1.
</event>
<event>
12    1  0.8271773E-002  0.1894205E+03  0.7818608E-02  0.1159261E+00
         21   -1    0    0  501  502  0.00000000000E+00  0.00000000000E+00  0.29545304029E+03  0.29545304029E+03  0.00000000000E+00 0.  1.
         21   -1    0    0  502  503 -0.00000000000E+00 -0.00000000000E+00 -0.12303656802E+03  0.12303656802E+03  0.00000000000E+00 0.  1.
         -6    2    1    2    0  503  0.49961705758E+02 -0.58932644701E+02  0.57421317151E+02  0.19793265098E+03  0.17294767419E+03 0.  0.
        -24    2    3    3    0    0  0.14804602469E+02 -0.48783497590E+02 -0.32037727239E+02  0.10116469284E+03  0.81294976599E+02 0.  0.
          6    2    1    2  501    0 -0.49961705758E+02  0.58932644701E+02  0.11499515512E+03  0.22055695733E+03  0.17161659906E+03 0.  0.
         24    2    5    5    0    0 -0.79538215400E+02  0.50453115320E+02  0.13579060120E+03  0.18312417867E+03  0.78889371179E+02 0.  0.
          5    1    5    5  501    0  0.29576509642E+02  0.84795293808E+01 -0.20795446074E+02  0.37432778665E+02  0.47000000000E+01 0. -1.
        -13    1    6    6    0    0 -0.11605082077E+02  0.52916855099E+02  0.50537730893E+02  0.74087338509E+02  0.00000000000E+00 0.  1.
         14    1    6    6    0    0 -0.67933133323E+02 -0.24637397792E+01  0.85252870304E+02  0.10903684016E+03  0.00000000000E+00 0. -1.
         -5    1    3    3    0  503  0.35157103289E+02 -0.10149147111E+02  0.89459044390E+02  0.96767958137E+02  0.47000000000E+01 0.  1.
         11    1    4    4    0    0 -0.32800238260E+02 -0.24411631970E+02 -0.23040081573E+02  0.46932171954E+02  0.00000000000E+00 0. -1.
        -12    1    4    4    0    0  0.47604840729E+02 -0.24371865619E+02 -0.89976456660E+01  0.54232520890E+02  0.00000000000E+00 0.  1.
</event>
<event>
12    1  0.8271773E-002  0.1880439E+03  0.7818608E-02  0.1160305E+00
         21   -1    0    0  501  502  0.00000000000E+00  0.00000000000E+00  0.45682729309E+03  0.45682729309E+03  0.00000000000E+00 0. -1.
         21   -1    0    0  502  503 -0.00000000000E+00 -0.00000000000E+00 -0.34788162354E+03  0.34788162354E+03  0.00000000000E+00 0.  1.
         -6    2    1    2    0  503 -0.76605508130E+02 -0.27292728998E+01 -0.30039550135E+03  0.35424173242E+03  0.17138814123E+03 0.  0.
        -24    2    3    3    0    0 -0.53423338526E+02  0.44579277374E+02 -0.95544722696E+02  0.14267272848E+03  0.79908374691E+02 0.  0.
          6    2    1    2  501    0  0.76605508130E+02  0.27292728998E+01  0.40934117089E+03  0.45046718421E+03  0.17171091128E+03 0.  0.
         24    2    5    5    0    0 -0.42580859053E+01 -0.30007806455E+02  0.28904127630E+03  0.30179038089E+03  0.81326347819E+02 0.  0.
          5    1    5    5  501    0  0.80863594036E+02  0.32737079355E+02  0.12029989459E+03  0.14867680331E+03  0.47000000000E+01 0. -1.
        -13    1    6    6    0    0  0.17607088301E+02 -0.24231762513E+02  0.32284276786E+02  0.44039327884E+02  0.00000000000E+00 0.  1.
         14    1    6    6    0    0 -0.21865174206E+02 -0.57760439422E+01  0.25675699951E+03  0.25775105301E+03  0.00000000000E+00 0. -1.
         -5    1    3    3    0  503 -0.23182169604E+02 -0.47308550274E+02 -0.20485077865E+03  0.21156900395E+03  0.47000000000E+01 0.  1.
         13    1    4    4    0    0 -0.71496494325E+02  0.24153234086E+02 -0.53306926976E+02  0.92394566297E+02  0.00000000000E+00 0. -1.
        -14    1    4    4    0    0  0.18073155799E+02  0.20426043288E+02 -0.42237795720E+02  0.50278162180E+02  0.00000000000E+00 0.  1.
</event>
<event>
12    1  0.8271773E-002  0.2022493E+03  0.7818608E-02  0.1148307E+00
         21   -1    0    0  503  502  0.00000000000E+00  0.00000000000E+00  0.16542239828E+03  0.16542239828E+03  0.00000000000E+00 0. -1.
         21   -1    0    0  501  503 -0.00000000000E+00 -0.00000000000E+00 -0.33325241895E+03  0.33325241895E+03  0.00000000000E+00 0. -1.
          6    2    1    2  501    0  0.57310166888E+02 -0.86884105968E+02 -0.21281812153E+03  0.29359215251E+03  0.17341134930E+03 0.  0.
         24    2    3    3    0    0 -0.26679712616E+02 -0.36046697150E+02 -0.45611588946E+02  0.99636341735E+02  0.76392487245E+02 0.  0.
         -6    2    1    2    0  502 -0.57310166888E+02  0.86884105968E+02  0.44988100871E+02  0.20508266472E+03  0.17088495267E+03 0.  0.
        -24    2    5    5    0    0 -0.13375099118E+02  0.73730706640E+02 -0.32377346955E+02  0.11502265910E+03  0.81035850916E+02 0.  0.
          5    1    3    3  501    0  0.83989879504E+02 -0.50837408818E+02 -0.16720653259E+03  0.19395581078E+03  0.47000000000E+01 0. -1.
        -13    1    4    4    0    0 -0.32315112011E+02  0.22513761869E+01 -0.51136829633E+02  0.60533548583E+02  0.00000000000E+00 0.  1.
         14    1    4    4    0    0  0.56353993955E+01 -0.38298073337E+02  0.55252406878E+01  0.39102793152E+02  0.00000000000E+00 0. -1.
         -5    1    5    5    0  502 -0.43935067771E+02  0.13153399328E+02  0.77365447825E+02  0.90060005613E+02  0.47000000000E+01 0.  1.
         13    1    6    6    0    0 -0.14786253977E+02  0.55773727061E+02  0.18865487135E+02  0.60706247964E+02  0.00000000000E+00 0. -1.
        -14    1    6    6    0    0  0.14111548591E+01  0.17956979578E+02 -0.51242834090E+02  0.54316411141E+02  0.00000000000E+00 0.  1.
</event>
<event>
12    1  0.8271773E-002  0.2306045E+03  0.7818608E-02  0.1126314E+00
         21   -1    0    0  501  502  0.00000000000E+00  0.00000000000E+00  0.42839473190E+02  0.42839473190E+02  0.00000000000E+00 0.  1.
         21   -1    0    0  502  503 -0.00000000000E+00 -0.00000000000E+00 -0.16688340018E+04  0.16688340018E+04  0.00000000000E+00 0. -1.
         -6    2    1    2    0  503  0.20743508113E+02  0.14990558963E+03 -0.37904149804E+03  0.44367883792E+03  0.17400136509E+03 0.  0.
        -24    2    3    3    0    0  0.42230588741E+02  0.81584019848E+02 -0.34541849255E+03  0.36441896138E+03  0.71048360281E+02 0.  0.
          6    2    1    2  501    0 -0.20743508113E+02 -0.14990558963E+03 -0.12469530305E+04  0.12679946370E+04  0.17325287950E+03 0.  0.
         24    2    5    5    0    0 -0.40738426484E+02 -0.21343675608E+02 -0.70160917732E+03  0.70732542017E+03  0.77062574833E+02 0.  0.
          5    1    5    5  501    0  0.19994918371E+02 -0.12856191402E+03 -0.54534385320E+03  0.56066921685E+03  0.47000000000E+01 0. -1.
        -11    1    6    6    0    0  0.15356105469E+02 -0.21826374744E+01 -0.37889642601E+03  0.37921375967E+03  0.00000000000E+00 0.  1.
         12    1    6    6    0    0 -0.56094531954E+02 -0.19161038134E+02 -0.32271275131E+03  0.32811166050E+03  0.00000000000E+00 0. -1.
         -5    1    3    3    0  503 -0.21487080628E+02  0.68321569780E+02 -0.33623005493E+02  0.79259876542E+02  0.47000000000E+01 0.  1.
         11    1    4    4    0    0  0.90286824146E+01  0.67513011536E+02 -0.13806044113E+03  0.15394872275E+03  0.00000000000E+00 0. -1.
        -12    1    4    4    0    0  0.33201906326E+02  0.14071008312E+02 -0.20735805142E+03  0.21047023863E+03  0.00000000000E+00 0.  1.
</event>
<event>
12    1  0.8271773E-002  0.1798336E+03  0.7818608E-02  0.1168095E+00
         21   -1    0    0  501  502  0.00000000000E+00  0.00000000000E+00  0.41756808123E+03  0.41756808123E+03  0.00000000000E+00 0. -1.
         21   -1    0    0  502  503 -0.00000000000E+00 -0.00000000000E+00 -0.17774041164E+03  0.17774041164E+03  0.00000000000E+00 0. -1.
         -6    2    1    2    0  503 -0.36009487490E+01  0.56297700092E+02 -0.10385516778E+03  0.20766806710E+03  0.17075635376E+03 0.  0.
        -24    2    3    3    0    0  0.51504350986E+02 -0.74491378408E+01 -0.59179072134E+02  0.11217829316E+03  0.79834948813E+02 0.  0.
          6    2    1    2  501    0  0.36009487490E+01 -0.56297700092E+02  0.34368283737E+03  0.38764042576E+03  0.17019050830E+03 0.  0.
         24    2    5    5    0    0 -0.55050318823E+02 -0.17618541308E+02  0.25347590853E+03  0.27320516667E+03  0.83964732431E+02 0.  0.
          5    1    5    5  501    0  0.58651267572E+02 -0.38679158784E+02  0.90206928840E+02  0.11443525909E+03  0.47000000000E+01 0. -1.
        -11    1    6    6    0    0  0.88990148969E+01  0.17548077379E+02  0.17956863834E+02  0.26637876128E+02  0.00000000000E+00 0.  1.
         12    1    6    6    0    0 -0.63949333720E+02 -0.35166618687E+02  0.23551904470E+03  0.24656729055E+03  0.00000000000E+00 0. -1.
         -5    1    3    3    0  503 -0.55105299735E+02  0.63746837933E+02 -0.44676095647E+02  0.95489773943E+02  0.47000000000E+01 0.  1.
         11    1    4    4    0    0  0.68422359250E+02  0.11280887511E+02 -0.49252243072E+02  0.85056811109E+02  0.00000000000E+00 0. -1.
        -12    1    4    4    0    0 -0.16918008264E+02 -0.18730025352E+02 -0.99268290624E+01  0.27121482049E+02  0.00000000000E+00 0.  1.
</event>
<event>
12    1  0.8271773E-002  0.2911142E+03  0.7818608E-02  0.1089863E+00
         21   -1    0    0  501  502  0.00000000000E+00  0.00000000000E+00  0.10342245778E+03  0.10342245778E+03  0.00000000000E+00 0. -1.
         21   -1    0    0  502  503 -0.00000000000E+00 -0.00000000000E+00 -0.87147712423E+03  0.87147712423E+03  0.00000000000E+00 0.  1.
         -6    2    1    2    0  503  0.11508817043E+03  0.20485792126E+03 -0.50501110642E+03  0.58254848496E+03  0.17062961306E+03 0.  0.
        -24    2    3    3    0    0  0.87285990648E+02  0.52297063135E+02 -0.28475857297E+03  0.31313978963E+03  0.81334223994E+02 0.  0.
          6    2    1    2  501    0 -0.11508817043E+03 -0.20485792126E+03 -0.26304356003E+03  0.39235109705E+03  0.17185870361E+03 0.  0.
         24    2    5    5    0    0 -0.13460165379E+03 -0.12061430425E+03 -0.13958327383E+03  0.24154560873E+03  0.78710705555E+02 0.  0.
          5    1    5    5  501    0  0.19513483363E+02 -0.84243617003E+02 -0.12346028620E+03  0.15080548832E+03  0.47000000000E+01 0. -1.
        -11    1    6    6    0    0  0.81236003941E+01 -0.19941945200E+02 -0.23258675536E+02  0.31696057317E+02  0.00000000000E+00 0.  1.
         12    1    6    6    0    0 -0.14272525418E+03 -0.10067235905E+03 -0.11632459829E+03  0.20984955141E+03  0.00000000000E+00 0. -1.
         -5    1    3    3    0  503  0.27802179778E+02  0.15256085812E+03 -0.22025253345E+03  0.26940869534E+03  0.47000000000E+01 0.  1.
         13    1    4    4    0    0  0.66424807222E+02  0.48934869762E+02 -0.27941940510E+03  0.29134529418E+03  0.00000000000E+00 0. -1.
        -14    1    4    4    0    0  0.20861183426E+02  0.33621933725E+01 -0.53391678632E+01  0.21794495444E+02  0.00000000000E+00 0.  1.
</event>
<event>
12    1  0.8271773E-002  0.2114351E+03  0.7818608E-02  0.1140555E+00
         21   -1    0    0  503  502  0.00000000000E+00  0.00000000000E+00  0.15571364943E+03  0.15571364943E+03  0.00000000000E+00 0.  1.
         21   -1    0    0  501  503 -0.00000000000E+00 -0.00000000000E+00 -0.49559007833E+03  0.49559007833E+03  0.00000000000E+00 0.  1.
          6    2    1    2  501    0 -0.34521880114E+02 -0.11873646505E+03 -0.38172263942E+03  0.43636793530E+03  0.17150712280E+03 0.  0.
         24    2    3    3    0    0 -0.70173985826E+02 -0.10263615917E+03 -0.36441810194E+03  0.39333504662E+03  0.80332660964E+02 0.  0.
         -6    2    1    2    0  502  0.34521880114E+02  0.11873646505E+03  0.41846210516E+02  0.21493579246E+03  0.17075181173E+03 0.  0.
        -24    2    5    5    0    0 -0.29712489438E+02  0.11226522334E+03  0.56968056762E+01  0.14079538060E+03  0.79401342571E+02 0.  0.
          5    1    3    3  501    0  0.35652105712E+02 -0.16100305872E+02 -0.17304537479E+02  0.43032888681E+02  0.47000000000E+01 0. -1.
        -13    1    4    4    0    0  0.13930668504E+02 -0.42042419286E+02 -0.11499433686E+03  0.12322875498E+03  0.00000000000E+00 0.  1.
         14    1    4    4    0    0 -0.84104654330E+02 -0.60593739887E+02 -0.24942376509E+03  0.27010629164E+03  0.00000000000E+00 0. -1.
         -5    1    5    5    0  502  0.64234369552E+02  0.64712417020E+01  0.36149404840E+02  0.74140411863E+02  0.47000000000E+01 0.  1.
         11    1    6    6    0    0 -0.22604168883E+02  0.22100069055E-01  0.16241636976E+02  0.27834146493E+02  0.00000000000E+00 0. -1.
        -12    1    6    6    0    0 -0.71083205548E+01  0.11224312327E+03 -0.10544831300E+02  0.11296123411E+03  0.00000000000E+00 0.  1.
</event>
<event>
12    1  0.8271773E-002  0.2295414E+03  0.7818608E-02  0.1126973E+00
         21   -1    0    0  503  502  0.00000000000E+00  0.00000000000E+00  0.12500778024E+03  0.12500778024E+03  0.00000000000E+00 0.  1.
         21   -1    0    0  501  503 -0.00000000000E+00 -0.00000000000E+00 -0.77983163959E+03  0.77983163959E+03  0.00000000000E+00 0.  1.
          6    2    1    2  501    0 -0.15159105841E+03  0.18803225970E+02 -0.63416159191E+03  0.67442581400E+03  0.17133547105E+03 0.  0.
         24    2    3    3    0    0 -0.13687755505E+03 -0.37840701963E+02 -0.53049289085E+03  0.55528593263E+03  0.82172841841E+02 0.  0.
         -6    2    1    2    0  502  0.15159105841E+03 -0.18803225970E+02 -0.20662267439E+02  0.23041360583E+03  0.17126029942E+03 0.  0.
        -24    2    5    5    0    0  0.14459841368E+03  0.15979961331E+02 -0.60329520465E+02  0.17698750582E+03  0.80751877841E+02 0.  0.
          5    1    3    3  501    0 -0.14713503354E+02  0.56643927934E+02 -0.10366870106E+03  0.11913988137E+03  0.47000000000E+01 0. -1.
        -11    1    4    4    0    0 -0.10803842278E+03  0.13479909158E+01 -0.28025275054E+03  0.30035932159E+03  0.00000000000E+00 0.  1.
         12    1    4    4    0    0 -0.28839132274E+02 -0.39188692879E+02 -0.25024014031E+03  0.25492661105E+03  0.00000000000E+00 0. -1.
         -5    1    5    5    0  502  0.69926447311E+01 -0.34783187301E+02  0.39667253026E+02  0.53426100006E+02  0.47000000000E+01 0.  1.
         11    1    6    6    0    0  0.54933264249E+02  0.40479076078E+02 -0.47530332243E+02  0.83158593088E+02  0.00000000000E+00 0. -1.
        -12    1    6    6    0    0  0.89665149428E+02 -0.24499114748E+02 -0.12799188223E+02  0.93828912732E+02  0.00000000000E+00 0.  1.
</event>
<event>
12    1  0.8271773E-002  0.3138592E+03  0.7818608E-02  0.1078535E+00
         21   -1    0    0  503  502  0.00000000000E+00  0.00000000000E+00  0.19705104211E+03  0.19705104211E+03  0.00000000000E+00 0.  1.
         21   -1    0    0  501  503 -0.00000000000E+00 -0.00000000000E+00 -0.53608382682E+03  0.53608382682E+03  0.00000000000E+00 0. -1.
          6    2    1    2  501    0  0.25663227175E+03  0.52814451997E+02 -0.26522273790E+03  0.41091444647E+03  0.17279494314E+03 0.  0.
         24    2    3    3    0    0  0.14499168908E+03  0.79410921998E+02 -0.99576808115E+02  0.20934149201E+03  0.81114950079E+02 0.  0.
         -6    2    1    2    0  502 -0.25663227175E+03 -0.52814451997E+02 -0.73810046806E+02  0.32222042246E+03  0.17241980280E+03 0.  0.
        -24    2    5    5    0    0 -0.83153485506E+02 -0.34303316056E+01 -0.83140953581E+02  0.14154713599E+03  0.78720418043E+02 0.  0.
          5    1    3    3  501    0  0.11164058266E+03 -0.26596470002E+02 -0.16564592979E+03  0.20157295446E+03  0.47000000000E+01 0. -1.
        -11    1    4    4    0    0  0.13997561943E+03  0.41664915787E+02 -0.80204719318E+02  0.16661913529E+03  0.00000000000E+00 0.  1.
         12    1    4    4    0    0  0.50160696529E+01  0.37746006211E+02 -0.19372088797E+02  0.42722356724E+02  0.00000000000E+00 0. -1.
         -5    1    5    5    0  502 -0.17347878624E+03 -0.49384120391E+02  0.93309067757E+01  0.18067328647E+03  0.47000000000E+01 0.  1.
         13    1    6    6    0    0  0.15439297443E+02 -0.17527793179E+01 -0.74104400315E+01  0.17215073695E+02  0.00000000000E+00 0. -1.
        -14    1    6    6    0    0 -0.98592782948E+02 -0.16775522877E+01 -0.75730513550E+02  0.12433206229E+03  0.00000000000E+00 0.  1.
</event>
<event>
12    1  0.8271773E-002  0.1879387E+03  0.7818608E-02  0.1160801E+00
         21   -1    0    0  503  502  0.00000000000E+00  0.00000000000E+00  0.16274260937E+03  0.16274260937E+03  0.00000000000E+00 0. -1.
         21   -1    0    0  501  503 -0.00000000000E+00 -0.00000000000E+00 -0.22098817402E+03  0.22098817402E+03  0.00000000000E+00 0. -1.
          6    2    1    2  501    0  0.66740267017E+02 -0.32983813625E+02 -0.61345630164E+02  0.19576651545E+03  0.17034977848E+03 0.  0.
         24    2    3    3    0    0  0.58164983821E+02  0.31494298183E+00 -0.10222193206E+03  0.14214464743E+03  0.79828020562E+02 0.  0.
         -6    2    1    2    0  502 -0.66740267017E+02  0.32983813625E+02  0.31000655179E+01  0.18796426795E+03  0.17256523525E+03 0.  0.
        -24    2    5    5    0    0  0.28502698218E+02 -0.31253547752E+02 -0.21988294036E+02  0.70281742446E+02  0.51641554914E+02 0.  0.
          5    1    3    3  501    0  0.85752831951E+01 -0.33298756607E+02  0.40876301893E+02  0.53621868019E+02  0.47000000000E+01 0. -1.
        -13    1    4    4    0    0  0.54855571943E+02 -0.31592750657E+02 -0.84226887958E+02  0.10536320194E+03  0.00000000000E+00 0.  1.
         14    1    4    4    0    0  0.33094118789E+01  0.31907693639E+02 -0.17995044099E+02  0.36781445491E+02  0.00000000000E+00 0. -1.
         -5    1    5    5    0  502 -0.95242965235E+02  0.64237361377E+02  0.25088359554E+02  0.11768252550E+03  0.47000000000E+01 0.  1.
         13    1    6    6    0    0  0.20516601502E+02  0.64770124190E+00 -0.30078832733E+02  0.36415472435E+02  0.00000000000E+00 0. -1.
        -14    1    6    6    0    0  0.79860967160E+01 -0.31901248994E+02  0.80905386961E+01  0.33866270012E+02  0.00000000000E+00 0.  1.
</event>
<event>
12    1  0.8271773E-002  0.1849440E+03  0.7818608E-02  0.1163966E+00
         21   -1    0    0  503  502  0.00000000000E+00  0.00000000000E+00  0.70822643258E+02  0.70822643258E+02  0.00000000000E+00 0.  1.
         21   -1    0    0  501  503 -0.00000000000E+00 -0.00000000000E+00 -0.57101308021E+03  0.57101308021E+03  0.00000000000E+00 0.  1.
          6    2    1    2  501    0 -0.58877107689E+02 -0.16132198309E+02 -0.38067286100E+03  0.42163415967E+03  0.17069497904E+03 0.  0.
         24    2    3    3    0    0  0.15336622580E+02 -0.82972729986E+01 -0.11114427599E+03  0.14192571870E+03  0.86520534046E+02 0.  0.
         -6    2    1    2    0  502  0.58877107689E+02  0.16132198309E+02 -0.11951757595E+03  0.22020156379E+03  0.17457810889E+03 0.  0.
        -24    2    5    5    0    0 -0.25469727393E+02 -0.19331800164E+02 -0.29252709435E+02  0.91586168511E+02  0.80683825778E+02 0.  0.
          5    1    3    3  501    0 -0.74213730269E+02 -0.78349253108E+01 -0.26952858501E+03  0.27970844097E+03  0.47000000000E+01 0. -1.
        -13    1    4    4    0    0 -0.31534197578E+02  0.43900515998E+01 -0.74734503935E+02  0.81233762982E+02  0.00000000000E+00 0.  1.
         14    1    4    4    0    0  0.46870820157E+02 -0.12687324598E+02 -0.36409772057E+02  0.60691955719E+02  0.00000000000E+00 0. -1.
         -5    1    5    5    0  502  0.84346835082E+02  0.35463998473E+02 -0.90264866513E+02  0.12861539528E+03  0.47000000000E+01 0.  1.
         13    1    6    6    0    0 -0.95632716251E+01  0.15679586189E+02 -0.46083894133E+02  0.49608778313E+02  0.00000000000E+00 0. -1.
        -14    1    6    6    0    0 -0.15906455768E+02 -0.35011386353E+02  0.16831184698E+02  0.41977390198E+02  0.00000000000E+00 0.  1.
</event>
<event>
12    1  0.8271773E-002  0.1759986E+03  0.7818608E-02  0.1172003E+00
         21   -1    0    0  503  502  0.00000000000E+00  0.00000000000E+00  0.75810917180E+03  0.75810917180E+03  0.00000000000E+00 0. -1.
         21   -1    0    0  501  503 -0.00000000000E+00 -0.00000000000E+00 -0.16860584078E+03  0.16860584078E+03  0.00000000000E+00 0. -1.
          6    2    1    2  501    0 -0.10625083711E+02 -0.33738558364E+02 -0.10874968680E+03  0.20688648821E+03  0.17240748794E+03 0.  0.
         24    2    3    3    0    0  0.53733599172E+02  0.32108890811E+01 -0.36217701982E+02  0.10301021300E+03  0.80011077713E+02 0.  0.
         -6    2    1    2    0  502  0.10625083711E+02  0.33738558364E+02  0.69825301782E+03  0.71982852437E+03  0.17130278712E+03 0.  0.
        -24    2    5    5    0    0  0.32573203179E+02  0.71820999585E+02  0.61907904138E+03  0.62914996669E+03  0.79696622038E+02 0.  0.
          5    1    3    3  501    0 -0.64358682883E+02 -0.36949447445E+02 -0.72531984819E+02  0.10387627521E+03  0.47000000000E+01 0. -1.
        -11    1    4    4    0    0  0.49836091871E+02 -0.89717100493E+01  0.12899860051E+02  0.52254511992E+02  0.00000000000E+00 0.  1.
         12    1    4    4    0    0  0.38975073006E+01  0.12182599130E+02 -0.49117562033E+02  0.50755701008E+02  0.00000000000E+00 0. -1.
         -5    1    5    5    0  502 -0.21948119467E+02 -0.38082441221E+02  0.79173976450E+02  0.90678557688E+02  0.47000000000E+01 0.  1.
         13    1    6    6    0    0 -0.85111681207E+01  0.31150418722E+02  0.70623494749E+02  0.77656078835E+02  0.00000000000E+00 0. -1.
        -14    1    6    6    0    0  0.41084371300E+02  0.40670580863E+02  0.54845554663E+03  0.55149388785E+03  0.00000000000E+00 0.  1.
</event>
<event>
12    1  0.8271773E-002  0.2012057E+03  0.7818608E-02  0.1149849E+00
         21   -1    0    0  503  502  0.00000000000E+00  0.00000000000E+00  0.35883155037E+03  0.35883155037E+03  0.00000000000E+00 0. -1.
         21   -1    0    0  501  503 -0.00000000000E+00 -0.00000000000E+00 -0.14010433819E+03  0.14010433819E+03  0.00000000000E+00 0. -1.
          6    2    1    2  501    0  0.28517005980E+02  0.10047351606E+03 -0.53654104397E+01  0.20127725652E+03  0.17197557764E+03 0.  0.
         24    2    3    3    0    0 -0.22242561273E+02  0.11893774270E+03 -0.21465999427E+02  0.14471949579E+03  0.76433141772E+02 0.  0.
         -6    2    1    2    0  502 -0.28517005980E+02 -0.10047351606E+03  0.22409262263E+03  0.29765863204E+03  0.16575587667E+03 0.  0.
        -24    2    5    5    0    0 -0.50321672390E+02 -0.52520148887E+01  0.13734176255E+03  0.16692845386E+03  0.80265151811E+02 0.  0.
          5    1    3    3  501    0  0.50759567253E+02 -0.18464226638E+02  0.16100588988E+02  0.56557760730E+02  0.47000000000E+01 0. -1.
        -11    1    4    4    0    0 -0.38643339528E+02  0.10132580165E+03  0.54903790465E+01  0.10858347034E+03  0.00000000000E+00 0.  1.
         12    1    4    4    0    0  0.16400778255E+02  0.17611941048E+02 -0.26956378474E+02  0.36136025449E+02  0.00000000000E+00 0. -1.
         -5    1    5    5    0  502  0.21804666410E+02 -0.95221501170E+02  0.86750860082E+02  0.13073017818E+03  0.47000000000E+01 0.  1.
         11    1    6    6    0    0 -0.50196884868E+02 -0.21971033748E+02  0.13968287811E+03  0.15004585970E+03  0.00000000000E+00 0. -1.
        -12    1    6    6    0    0 -0.12478752263E+00  0.16719018859E+02 -0.23411155645E+01  0.16882594162E+02  0.00000000000E+00 0.  1.
</event>
<event>
12    1  0.8271773E-002  0.3453081E+03  0.7818608E-02  0.1064574E+00
         21   -1    0    0  503  502  0.00000000000E+00  0.00000000000E+00  0.16606222562E+03  0.16606222562E+03  0.00000000000E+00 0. -1.
         21   -1    0    0  501  503 -0.00000000000E+00 -0.00000000000E+00 -0.13000437893E+04  0.13000437893E+04  0.00000000000E+00 0.  1.
          6    2    1    2  501    0 -0.28673956873E+03  0.85406483126E+02 -0.10576852415E+04  0.11126256079E+04  0.17240599054E+03 0.  0.
         24    2    3    3    0    0 -0.29407215866E+03  0.99965306280E+02 -0.92717663932E+03  0.98101895360E+03  0.79184404102E+02 0.  0.
         -6    2    1    2    0  502  0.28673956873E+03 -0.85406483126E+02 -0.76296322110E+02  0.35348040697E+03  0.17208550698E+03 0.  0.
        -24    2    5    5    0    0  0.29140366562E+03 -0.10694062035E+03 -0.62328840624E+02  0.32697279666E+03  0.81694141555E+02 0.  0.
          5    1    3    3  501    0  0.73325899342E+01 -0.14558823154E+02 -0.13050860221E+03  0.13160665431E+03  0.47000000000E+01 0. -1.
        -11    1    4    4    0    0 -0.84680906931E+02  0.35945336508E+01 -0.33517346912E+03  0.34572392320E+03  0.00000000000E+00 0.  1.
         12    1    4    4    0    0 -0.20939125173E+03  0.96370772629E+02 -0.59200317021E+03  0.63529503040E+03  0.00000000000E+00 0. -1.
         -5    1    5    5    0  502 -0.46640968890E+01  0.21534137221E+02 -0.13967481487E+02  0.26507610317E+02  0.47000000000E+01 0.  1.
         11    1    6    6    0    0  0.40675868432E+02 -0.23320550538E+02  0.18772848112E+02  0.50505387597E+02  0.00000000000E+00 0. -1.
        -12    1    6    6    0    0  0.25072779719E+03 -0.83620069809E+02 -0.81101688736E+02  0.27646740906E+03  0.00000000000E+00 0.  1.
</event>
<event>
12    1  0.8271773E-002  0.2897776E+03  0.7818608E-02  0.1091110E+00
         21   -1    0    0  503  502  0.00000000000E+00  0.00000000000E+00  0.11619996918E+04  0.11619996918E+04  0.00000000000E+00 0. -1.
         21   -1    0    0  501  503 -0.00000000000E+00 -0.00000000000E+00 -0.73489860272E+02  0.73489860272E+02  0.00000000000E+00 0.  1.
          6    2    1    2  501    0 -0.22587327564E+03  0.20081806607E+02  0.42724757969E+03  0.51352082216E+03  0.17245615339E+03 0.  0.
         24    2    3    3    0    0 -0.18034231969E+03  0.76718816021E+02  0.30070667314E+03  0.36752250089E+03  0.78988330688E+02 0.  0.
         -6    2    1    2    0  502  0.22587327564E+03 -0.20081806607E+02  0.66126225189E+03  0.72196872996E+03  0.18041359612E+03 0.  0.
        -24    2    5    5    0    0  0.21361472736E+03 -0.56454224219E+02  0.62924938596E+03  0.67176775035E+03  0.80615069947E+02 0.  0.
          5    1    3    3  501    0 -0.45530955945E+02 -0.56637009414E+02  0.12654090655E+03  0.14599832128E+03  0.47000000000E+01 0. -1.
        -11    1    4    4    0    0 -0.12856653919E+03  0.42821841359E+02  0.13784056651E+03  0.19329533588E+03  0.00000000000E+00 0.  1.
         12    1    4    4    0    0 -0.51775780498E+02  0.33896974663E+02  0.16286610663E+03  0.17422716501E+03  0.00000000000E+00 0. -1.
         -5    1    5    5    0  502  0.12258548275E+02  0.36372417612E+02  0.32012865924E+02  0.50200979606E+02  0.47000000000E+01 0.  1.
         11    1    6    6    0    0  0.15770588361E+03 -0.15431021956E+02  0.50740548641E+03  0.53157275119E+03  0.00000000000E+00 0. -1.
        -12    1    6    6    0    0  0.55908843751E+02 -0.41023202262E+02  0.12184389955E+03  0.14019499917E+03  0.00000000000E+00 0.  1.
</event>
<event>
12    1  0.8271773E-002  0.1800225E+03  0.7818608E-02  0.1168199E+00
         21   -1    0    0  501  502  0.00000000000E+00  0.00000000000E+00  0.76668976354E+03  0.76668976354E+03  0.00000000000E+00 0. -1.
         21   -1    0    0  502  503 -0.00000000000E+00 -0.00000000000E+00 -0.98854618880E+02  0.98854618880E+02  0.00000000000E+00 0. -1.
         -6    2    1    2    0  503 -0.19190500762E+02  0.44236030598E+02  0.46575275879E+01  0.17836708574E+03  0.17166252646E+03 0.  0.
        -24    2    3    3    0    0 -0.55140477448E+02  0.80917258387E+02 -0.15671388075E+02  0.12293002136E+03  0.72650690211E+02 0.  0.
          6    2    1    2  501    0  0.19190500762E+02 -0.44236030598E+02  0.66317761708E+03  0.68717729668E+03  0.17344446823E+03 0.  0.
         24    2    5    5    0    0  0.23675988926E+02 -0.23730871088E+02  0.15027606374E+03  0.17382490837E+03  0.80675254833E+02 0.  0.
          5    1    5    5  501    0 -0.44854881642E+01 -0.20505159510E+02  0.51290155333E+03  0.51335238831E+03  0.47000000000E+01 0. -1.
        -11    1    6    6    0    0  0.25903387221E+02 -0.93328426775E+00  0.14861517617E+03  0.15085863276E+03  0.00000000000E+00 0.  1.
         12    1    6    6    0    0 -0.22273982948E+01 -0.22797586820E+02  0.16608875692E+01  0.22966275612E+02  0.00000000000E+00 0. -1.
         -5    1    3    3    0  503  0.35949976686E+02 -0.36681227789E+02  0.20328915663E+02  0.55437064387E+02  0.47000000000E+01 0.  1.
         13    1    4    4    0    0  0.90151654360E+01  0.39044723957E+01 -0.20338624826E+02  0.22587115184E+02  0.00000000000E+00 0. -1.
        -14    1    4    4    0    0 -0.64155642884E+02  0.77012785991E+02  0.46672367514E+01  0.10034290617E+03  0.00000000000E+00 0.  1.
</event>
<event>
12    1  0.8271773E-002  0.1976396E+03  0.7818608E-02  0.1152411E+00
         21   -1    0    0  503  502  0.00000000000E+00  0.00000000000E+00  0.21895669777E+03  0.21895669777E+03  0.00000000000E+00 0. -1.
         21   -1    0    0  501  503 -0.00000000000E+00 -0.00000000000E+00 -0.23454363246E+03  0.23454363246E+03  0.00000000000E+00 0.  1.
          6    2    1    2  501    0 -0.96522632620E+02 -0.40015230715E+00 -0.12138796716E+03  0.22932346839E+03  0.16893026921E+03 0.  0.
         24    2    3    3    0    0 -0.53424035792E+02  0.15292103255E+02 -0.15008924517E+03  0.17501334694E+03  0.70816057987E+02 0.  0.
         -6    2    1    2    0  502  0.96522632620E+02  0.40015230715E+00  0.10580103247E+03  0.22417686183E+03  0.17246631028E+03 0.  0.
        -24    2    5    5    0    0  0.84598725217E+01  0.44353183086E+02  0.22003004359E+02  0.94828038316E+02  0.80432893502E+02 0.  0.
          5    1    3    3  501    0 -0.43098596828E+02 -0.15692255563E+02  0.28701278009E+02  0.54310121456E+02  0.47000000000E+01 0. -1.
        -11    1    4    4    0    0 -0.47736775635E+02 -0.98662510871E+01 -0.13832746608E+03  0.14666502832E+03  0.00000000000E+00 0.  1.
         12    1    4    4    0    0 -0.56872601564E+01  0.25158354342E+02 -0.11761779085E+02  0.28348318620E+02  0.00000000000E+00 0. -1.
         -5    1    5    5    0  502  0.88062760098E+02 -0.43953030779E+02  0.83798028107E+02  0.12934882352E+03  0.47000000000E+01 0.  1.
         13    1    6    6    0    0  0.29749651911E+02 -0.56914374367E+01  0.26516483842E+02  0.40256156850E+02  0.00000000000E+00 0. -1.
        -14    1    6    6    0    0 -0.21289779390E+02  0.50044620523E+02 -0.45134794828E+01  0.54571881466E+02  0.00000000000E+00 0.  1.
</event>
<event>
12    1  0.8271773E-002  0.2078659E+03  0.7818608E-02  0.1143634E+00
         21   -1    0    0  503  502  0.00000000000E+00  0.00000000000E+00  0.57483492008E+03  0.57483492008E+03  0.00000000000E+00 0.  1.
         21   -1    0    0  501  503 -0.00000000000E+00 -0.00000000000E+00 -0.82713520153E+02  0.82713520153E+02  0.00000000000E+00 0. -1.
          6    2    1    2  501    0  0.46119129145E+02 -0.10506243763E+03  0.14349345285E+03  0.25258386153E+03  0.17332958842E+03 0.  0.
         24    2    3    3    0    0  0.90916187612E+01  0.10509324041E+02  0.32664434670E+02  0.88166618240E+02  0.80704918413E+02 0.  0.
         -6    2    1    2    0  502 -0.46119129145E+02  0.10506243763E+03  0.34862794708E+03  0.40496457870E+03  0.17114255650E+03 0.  0.
        -24    2    5    5    0    0  0.30089321040E+02  0.94918211077E+02  0.17119688735E+03  0.21153628665E+03  0.74326255752E+02 0.  0.
          5    1    3    3  501    0  0.37027510383E+02 -0.11557176167E+03  0.11082901818E+03  0.16441724329E+03  0.47000000000E+01 0. -1.
        -13    1    4    4    0    0  0.81386868392E+01 -0.25369419225E+02  0.43205040471E+02  0.50759444218E+02  0.00000000000E+00 0.  1.
         14    1    4    4    0    0  0.95293192197E+00  0.35878743266E+02 -0.10540605801E+02  0.37407174021E+02  0.00000000000E+00 0. -1.
         -5    1    5    5    0  502 -0.76208450184E+02  0.10144226553E+02  0.17743105973E+03  0.19342829206E+03  0.47000000000E+01 0.  1.
         13    1    6    6    0    0  0.59053404124E+01  0.98588329590E+02  0.12547626850E+03  0.15968351741E+03  0.00000000000E+00 0. -1.
        -14    1    6    6    0    0  0.24183980627E+02 -0.36701185126E+01  0.45720618854E+02  0.51852769234E+02  0.00000000000E+00 0.  1.
</event>
<event>
12    1  0.8271773E-002  0.2137808E+03  0.7818608E-02  0.1138693E+00
         21   -1    0    0  503  502  0.00000000000E+00  0.00000000000E+00  0.42233308429E+03  0.42233308429E+03  0.00000000000E+00 0. -1.
         21   -1    0    0  501  503 -0.00000000000E+00 -0.00000000000E+00 -0.15842684272E+03  0.15842684272E+03  0.00000000000E+00 0. -1.
          6    2    1    2  501    0 -0.76723119005E+02 -0.10017185192E+03 -0.31798528372E+02  0.21613276915E+03  0.17257285588E+03 0.  0.
         24    2    3    3    0    0 -0.15824658351E+02 -0.73387061089E+02 -0.74858013330E+02  0.13674601475E+03  0.86369380239E+02 0.  0.
         -6    2    1    2    0  502  0.76723119005E+02  0.10017185192E+03  0.29570476995E+03  0.36462715785E+03  0.17201981387E+03 0.  0.
        -24    2    5    5    0    0 -0.24035560944E+02  0.42357159976E+02  0.96656882403E+02  0.13411251249E+03  0.79194544631E+02 0.  0.
          5    1    3    3  501    0 -0.60898460654E+02 -0.26784790836E+02  0.43059484959E+02  0.79386754406E+02  0.47000000000E+01 0. -1.
        -11    1    4    4    0    0 -0.37938454884E+02 -0.55178522007E+02 -0.12494709755E+02  0.68118378003E+02  0.00000000000E+00 0.  1.
         12    1    4    4    0    0  0.22113796533E+02 -0.18208539082E+02 -0.62363303575E+02  0.68627636747E+02  0.00000000000E+00 0. -1.
         -5    1    5    5    0  502  0.10075867995E+03  0.57814691949E+02  0.19904788755E+03  0.23051464536E+03  0.47000000000E+01 0.  1.
         11    1    6    6    0    0  0.80880328693E+01  0.42742635777E+02  0.91847900927E+02  0.10162866768E+03  0.00000000000E+00 0. -1.
        -12    1    6    6    0    0 -0.32123593814E+02 -0.38547580146E+00  0.48089814766E+01  0.32483844815E+02  0.00000000000E+00 0.  1.
</event>
<event>
12    1  0.8271773E-002  0.2183748E+03  0.7818608E-02  0.1135260E+00
         21   -1    0    0  503  502  0.00000000000E+00  0.00000000000E+00  0.89000019130E+03  0.89000019130E+03  0.00000000000E+00 0. -1.
         21   -1    0    0  501  503 -0.00000000000E+00 -0.00000000000E+00 -0.63126179407E+02  0.63126179407E+02  0.00000000000E+00 0. -1.
          6    2    1    2  501    0 -0.83692352927E+02  0.10406675863E+03  0.22680516608E+03  0.31484619619E+03  0.17278091244E+03 0.  0.
         24    2    3    3    0    0 -0.23957239347E+02  0.21459352883E+01  0.37159691409E+02  0.91365471991E+02  0.79926544096E+02 0.  0.
         -6    2    1    2    0  502  0.83692352927E+02 -0.10406675863E+03  0.60006884581E+03  0.63828017451E+03  0.17171098182E+03 0.  0.
        -24    2    5    5    0    0  0.68072615550E+02 -0.14160944379E+03  0.48539548164E+03  0.51652016525E+03  0.80605160887E+02 0.  0.
          5    1    3    3  501    0 -0.59735113580E+02  0.10192082334E+03  0.18964547467E+03  0.22348072420E+03  0.47000000000E+01 0. -1.
        -13    1    4    4    0    0 -0.31496338265E+02 -0.10785444190E+01  0.59630074442E+02  0.67445743825E+02  0.00000000000E+00 0.  1.
         14    1    4    4    0    0  0.75390989171E+01  0.32244797073E+01 -0.22470383034E+02  0.23919728166E+02  0.00000000000E+00 0. -1.
         -5    1    5    5    0  502  0.15619737377E+02  0.37542685160E+02  0.11467336417E+03  0.12176000926E+03  0.47000000000E+01 0.  1.
         11    1    6    6    0    0 -0.95361059925E+01 -0.69688910408E+02  0.21197567977E+03  0.22334092855E+03  0.00000000000E+00 0. -1.
        -12    1    6    6    0    0  0.77608721543E+02 -0.71920533381E+02  0.27341980186E+03  0.29317923670E+03  0.00000000000E+00 0.  1.
</event>
<event>
12    1  0.8271773E-002  0.1809138E+03  0.7818608E-02  0.1168007E+00
         21   -1    0    0  501  502  0.00000000000E+00  0.00000000000E+00  0.13199505711E+03  0.13199505711E+03  0.00000000000E+00 0.  1.
         21   -1    0    0  502  503 -0.00000000000E+00 -0.00000000000E+00 -0.24237837103E+03  0.24237837103E+03  0.00000000000E+00 0. -1.
         -6    2    1    2    0  503  0.74367770791E+02 -0.39882974213E+01 -0.46148307540E+02  0.18239439461E+03  0.15997367611E+03 0.  0.
        -24    2    3    3    0    0  0.78746858521E+02 -0.50226008732E+02 -0.48830829534E+02  0.13563556356E+03  0.85374683069E+02 0.  0.
          6    2    1    2  501    0 -0.74367770791E+02  0.39882974213E+01 -0.64235006374E+02  0.19197903354E+03  0.16487371357E+03 0.  0.
         24    2    5    5    0    0 -0.68205785632E+02 -0.56175942184E+02 -0.28874167627E+02  0.12176375952E+03  0.78644325302E+02 0.  0.
          5    1    5    5  501    0 -0.61619851592E+01  0.60164239605E+02 -0.35360838747E+02  0.70215274017E+02  0.47000000000E+01 0. -1.
        -11    1    6    6    0    0 -0.56753086761E+02 -0.55839052362E+02  0.10911153233E+02  0.80361470186E+02  0.00000000000E+00 0.  1.
         12    1    6    6    0    0 -0.11452698871E+02 -0.33688982244E+00 -0.39785320860E+02  0.41402289334E+02  0.00000000000E+00 0. -1.
         -5    1    3    3    0  503 -0.43790877301E+01  0.46237711311E+02  0.26825219941E+01  0.46758831047E+02  0.47000000000E+01 0.  1.
         13    1    4    4    0    0  0.24041603822E+02  0.20219675488E+02 -0.32050796674E+02  0.44878586860E+02  0.00000000000E+00 0. -1.
        -14    1    4    4    0    0  0.54705254699E+02 -0.70445684220E+02 -0.16780032861E+02  0.90756976700E+02  0.00000000000E+00 0.  1.
</event>
<event>
12    1  0.8271773E-002  0.2419040E+03  0.7818608E-02  0.1118787E+00
         21   -1    0    0  503  502  0.00000000000E+00  0.00000000000E+00  0.33755620717E+03  0.33755620717E+03  0.00000000000E+00 0.  1.
         21   -1    0    0  501  503 -0.00000000000E+00 -0.00000000000E+00 -0.22039993333E+03  0.22039993333E+03  0.00000000000E+00 0.  1.
          6    2    1    2  501    0 -0.10542234200E+03  0.13425131524E+03 -0.71965550767E+02  0.25089813134E+03  0.16921449694E+03 0.  0.
         24    2    3    3    0    0 -0.31144787462E+02  0.10107933438E+03  0.16876744712E+02  0.13034698498E+03  0.74286488377E+02 0.  0.
         -6    2    1    2    0  502  0.10542234200E+03 -0.13425131524E+03  0.18912182461E+03  0.30705800916E+03  0.17140674026E+03 0.  0.
        -24    2    5    5    0    0  0.42561138071E+02 -0.11535077102E+03  0.19040846923E+03  0.24123622716E+03  0.82597102201E+02 0.  0.
          5    1    3    3  501    0 -0.74277554535E+02  0.33171980861E+02 -0.88842295479E+02  0.12055114636E+03  0.47000000000E+01 0. -1.
        -13    1    4    4    0    0 -0.35491847492E+02  0.69365334365E+02 -0.21055727110E+02  0.80712852100E+02  0.00000000000E+00 0.  1.
         14    1    4    4    0    0  0.43470600292E+01  0.31714000018E+02  0.37932471823E+02  0.49634132879E+02  0.00000000000E+00 0. -1.
         -5    1    5    5    0  502  0.62861203926E+02 -0.18900544228E+02 -0.12866446191E+01  0.65821781999E+02  0.47000000000E+01 0.  1.
         13    1    6    6    0    0  0.54226946912E+02 -0.34102905002E+02  0.64266440376E+02  0.90739987103E+02  0.00000000000E+00 0. -1.
        -14    1    6    6    0    0 -0.11665808840E+02 -0.81247866015E+02  0.12614202886E+03  0.15049624006E+03  0.00000000000E+00 0.  1.
</event>
<event>
12    1  0.8271773E-002  0.2126498E+03  0.7818608E-02  0.1139660E+00
         21   -1    0    0  501  502  0.00000000000E+00  0.00000000000E+00  0.82692047485E+02  0.82692047485E+02  0.00000000000E+00 0. -1.
         21   -1    0    0  502  503 -0.00000000000E+00 -0.00000000000E+00 -0.87027235425E+03  0.87027235425E+03  0.00000000000E+00 0. -1.
         -6    2    1    2    0  503  0.10732465967E+03 -0.65007485102E+02 -0.68477543482E+03  0.71676791383E+03  0.17057048534E+03 0.  0.
        -24    2    3    3    0    0  0.10103961624E+03 -0.10202095785E+03 -0.62377936262E+03  0.64498971547E+03  0.79333220888E+02 0.  0.
          6    2    1    2  501    0 -0.10732465967E+03  0.65007485102E+02 -0.10280487194E+03  0.23619648790E+03  0.17168396405E+03 0.  0.
         24    2    5    5    0    0 -0.74960158335E+02  0.96385391141E+02 -0.29125377859E+02  0.14969335627E+03  0.81551482593E+02 0.  0.
          5    1    5    5  501    0 -0.32364501332E+02 -0.31377906039E+02 -0.73679494083E+02  0.86503131632E+02  0.47000000000E+01 0. -1.
        -13    1    6    6    0    0  0.99555321533E+01 -0.29536598057E+01 -0.15002844381E+02  0.18246152094E+02  0.00000000000E+00 0.  1.
         14    1    6    6    0    0 -0.84915690488E+02  0.99339050947E+02 -0.14122533478E+02  0.13144720418E+03  0.00000000000E+00 0. -1.
         -5    1    3    3    0  503  0.62850434233E+01  0.37013472752E+02 -0.60996072195E+02  0.71778198356E+02  0.47000000000E+01 0.  1.
         13    1    4    4    0    0  0.35764587032E+02 -0.26131852653E+02 -0.36242543346E+03  0.36512213604E+03  0.00000000000E+00 0. -1.
        -14    1    4    4    0    0  0.65275029211E+02 -0.75889105201E+02 -0.26135392916E+03  0.27986757943E+03  0.00000000000E+00 0.  1.
</event>
<event>
12    1  0.8271773E-002  0.1782939E+03  0.7818608E-02  0.1169671E+00
         21   -1    0    0  501  502  0.00000000000E+00  0.00000000000E+00  0.29443402079E+02  0.29443402079E+02  0.00000000000E+00 0.  1.
         21   -1    0    0  502  503 -0.00000000000E+00 -0.00000000000E+00 -0.17509323760E+04  0.17509323760E+04  0.00000000000E+00 0.  1.
         -6    2    1    2    0  503  0.47106512506E+02  0.95325033352E+01 -0.14152561344E+04  0.14264426538E+04  0.17169399106E+03 0.  0.
        -24    2    3    3    0    0  0.68781941733E+02  0.17635677892E+02 -0.52491878220E+03  0.53579223060E+03  0.80570551848E+02 0.  0.
          6    2    1    2  501    0 -0.47106512506E+02 -0.95325033352E+01 -0.30623283958E+03  0.35393312431E+03  0.17082216573E+03 0.  0.
         24    2    5    5    0    0  0.95986339615E+01  0.47813731987E+02 -0.16024871044E+03  0.18708732634E+03  0.83329056972E+02 0.  0.
          5    1    5    5  501    0 -0.56705146468E+02 -0.57346235323E+02 -0.14598412914E+03  0.16684579797E+03  0.47000000000E+01 0. -1.
        -13    1    6    6    0    0 -0.27547903832E+02  0.77882933893E+01 -0.15881718601E+02  0.32737952061E+02  0.00000000000E+00 0.  1.
         14    1    6    6    0    0  0.37146537793E+02  0.40025438598E+02 -0.14436699184E+03  0.15434937428E+03  0.00000000000E+00 0. -1.
         -5    1    3    3    0  503 -0.21675429226E+02 -0.81031745569E+01 -0.89033735215E+03  0.89065042318E+03  0.47000000000E+01 0.  1.
         13    1    4    4    0    0  0.43671451218E+02  0.47630435936E+02 -0.25534427591E+03  0.26339429250E+03  0.00000000000E+00 0. -1.
        -14    1    4    4    0    0  0.25110490515E+02 -0.29994758044E+02 -0.26957450629E+03  0.27239793811E+03  0.00000000000E+00 0.  1.
</event>
<event>
12    1  0.8271773E-002  0.1982806E+03  0.7818608E-02  0.1152121E+00
         21   -1    0    0  503  502  0.00000000000E+00  0.00000000000E+00  0.75739113543E+02  0.75739113543E+02  0.00000000000E+00 0. -1.
         21   -1    0    0  501  503 -0.00000000000E+00 -0.00000000000E+00 -0.10428475739E+04  0.10428475739E+04  0.00000000000E+00 0. -1.
          6    2    1    2  501    0  0.48832958208E+01 -0.91591841047E+02 -0.88666978964E+03  0.90856947919E+03  0.17579041703E+03 0.  0.
         24    2    3    3    0    0 -0.40015186957E+02  0.21287377333E+01 -0.51487193887E+03  0.52249286440E+03  0.79372118572E+02 0.  0.
         -6    2    1    2    0  502 -0.48832958208E+01  0.91591841047E+02 -0.80438670763E+02  0.21001720831E+03  0.17095009829E+03 0.  0.
        -24    2    5    5    0    0 -0.60413217550E+02  0.37974625275E+02 -0.11398184510E+02  0.10634919599E+03  0.78028224759E+02 0.  0.
          5    1    3    3  501    0  0.44898482778E+02 -0.93720578781E+02 -0.37179785077E+03  0.38607661478E+03  0.47000000000E+01 0. -1.
        -13    1    4    4    0    0 -0.15589402481E+02 -0.22127136866E+02 -0.43075918939E+03  0.43160875675E+03  0.00000000000E+00 0.  1.
         14    1    4    4    0    0 -0.24425784476E+02  0.24255874600E+02 -0.84112749476E+02  0.90884107655E+02  0.00000000000E+00 0. -1.
         -5    1    5    5    0  502  0.55529921729E+02  0.53617215773E+02 -0.69040486253E+02  0.10366801231E+03  0.47000000000E+01 0.  1.
         13    1    6    6    0    0 -0.15808401827E+02  0.52482877671E+01  0.31973378063E+02  0.36052004071E+02  0.00000000000E+00 0. -1.
        -14    1    6    6    0    0 -0.44604815723E+02  0.32726337508E+02 -0.43371562573E+02  0.70297191923E+02  0.00000000000E+00 0.  1.
</event>
<event>
12    1  0.8271773E-002  0.1818602E+03  0.7818608E-02  0.1166046E+00
         21   -1    0    0  503  502  0.00000000000E+00  0.00000000000E+00  0.34673632717E+02  0.34673632717E+02  0.00000000000E+00 0. -1.
         21   -1    0    0  501  503 -0.00000000000E+00 -0.00000000000E+00 -0.97191852258E+03  0.97191852258E+03  0.00000000000E+00 0. -1.
          6    2    1    2  501    0  0.55641931570E+02  0.18559655056E+02 -0.53837559063E+03  0.56822034927E+03  0.17200466097E+03 0.  0.
         24    2    3    3    0    0  0.72263031495E+02 -0.43377697166E+02 -0.29250699837E+03  0.31408268732E+03  0.77356447991E+02 0.  0.
         -6    2    1    2    0  502 -0.55641931570E+02 -0.18559655056E+02 -0.39886929923E+03  0.43837180602E+03  0.17214132886E+03 0.  0.
        -24    2    5    5    0    0 -0.42677249102E+02  0.51588322674E+02 -0.26997208708E+03  0.29097640897E+03  0.85437931562E+02 0.  0.
          5    1    3    3  501    0 -0.16621099924E+02  0.61937352222E+02 -0.24586859226E+03  0.25413766196E+03  0.47000000000E+01 0. -1.
        -11    1    4    4    0    0  0.40196470697E+02  0.18841726184E+02 -0.11565762830E+03  0.12388484123E+03  0.00000000000E+00 0.  1.
         12    1    4    4    0    0  0.32066560798E+02 -0.62219423351E+02 -0.17684937007E+03  0.19019784609E+03  0.00000000000E+00 0. -1.
         -5    1    5    5    0  502 -0.12964682468E+02 -0.70147977730E+02 -0.12889721215E+03  0.14739539705E+03  0.47000000000E+01 0.  1.
         11    1    6    6    0    0 -0.29349977849E+02  0.58917153007E+02 -0.96338829934E+02  0.11667828535E+03  0.00000000000E+00 0. -1.
        -12    1    6    6    0    0 -0.13327271253E+02 -0.73288303330E+01 -0.17363325714E+03  0.17429812362E+03  0.00000000000E+00 0.  1.
</event>
<event>
12    1  0.8271773E-002  0.2325968E+03  0.7818608E-02  0.1124973E+00
         21   -1    0    0  503  502  0.00000000000E+00  0.00000000000E+00  0.12424578461E+04  0.12424578461E+04  0.00000000000E+00 0. -1.
         21   -1    0    0  501  503 -0.00000000000E+00 -0.00000000000E+00 -0.90162074495E+02  0.90162074495E+02  0.00000000000E+00 0. -1.
          6    2    1    2  501    0 -0.13490197665E+03 -0.76802760924E+02  0.96720695662E+02  0.25190504710E+03  0.17321677862E+03 0.  0.
         24    2    3    3    0    0 -0.67797769679E+02 -0.11027798882E+03  0.88373339064E+02  0.17630522013E+03  0.80721194234E+02 0.  0.
         -6    2    1    2    0  502  0.13490197665E+03  0.76802760924E+02  0.10555750759E+04  0.10807148735E+04  0.17207175668E+03 0.  0.
        -24    2    5    5    0    0  0.55666899259E+02 -0.26737377742E+02  0.43258388202E+03  0.44420966887E+03  0.79873173809E+02 0.  0.
          5    1    3    3  501    0 -0.67104206968E+02  0.33475227892E+02  0.83473565986E+01  0.75599826967E+02  0.47000000000E+01 0. -1.
        -13    1    4    4    0    0  0.14408567091E+02 -0.45294715445E+02  0.23075189833E+02  0.52836374201E+02  0.00000000000E+00 0.  1.
         14    1    4    4    0    0 -0.82206336770E+02 -0.64983273371E+02  0.65298149231E+02  0.12346884593E+03  0.00000000000E+00 0. -1.
         -5    1    5    5    0  502  0.79235077389E+02  0.10354013867E+03  0.62299119390E+03  0.63650520460E+03  0.47000000000E+01 0.  1.
         13    1    6    6    0    0  0.40265584605E+02  0.15367403413E+02  0.32218156970E+03  0.32505143938E+03  0.00000000000E+00 0. -1.
        -14    1    6    6    0    0  0.15401314653E+02 -0.42104781155E+02  0.11040231232E+03  0.11915822949E+03  0.00000000000E+00 0.  1.
</event>
<event>
12    1  0.8271773E-002  0.1744517E+03  0.7818608E-02  0.1173522E+00
         21   -1    0    0  503  502  0.00000000000E+00  0.00000000000E+00  0.25162949484E+03  0.25162949484E+03  0.00000000000E+00 0. -1.
         21   -1    0    0  501  503 -0.00000000000E+00 -0.00000000000E+00 -0.20528298145E+03  0.20528298145E+03  0.00000000000E+00 0. -1.
          6    2    1    2  501    0  0.11027077079E+02 -0.20191192294E+02 -0.12378898094E+03  0.21390914557E+03  0.17292810668E+03 0.  0.
         24    2    3    3    0    0  0.53617931942E+02 -0.59122022545E+02 -0.10057556058E+03  0.15153492536E+03  0.80480395384E+02 0.  0.
         -6    2    1    2    0  502 -0.11027077079E+02  0.20191192294E+02  0.17013549433E+03  0.24300333072E+03  0.17197456682E+03 0.  0.
        -24    2    5    5    0    0 -0.47176560732E+02 -0.31059639355E+02  0.14269079188E+03  0.17438311063E+03  0.82815929049E+02 0.  0.
          5    1    3    3  501    0 -0.42590854863E+02  0.38930830251E+02 -0.23213420366E+02  0.62374220212E+02  0.47000000000E+01 0. -1.
        -11    1    4    4    0    0 -0.11091844535E+02 -0.74163914929E+01  0.75488328193E+01  0.15330256192E+02  0.00000000000E+00 0.  1.
         12    1    4    4    0    0  0.64709776477E+02 -0.51705631052E+02 -0.10812439340E+03  0.13620466916E+03  0.00000000000E+00 0. -1.
         -5    1    5    5    0  502  0.36149483653E+02  0.51250831649E+02  0.27444702447E+02  0.68620220093E+02  0.47000000000E+01 0.  1.
         11    1    6    6    0    0 -0.42286278117E+02 -0.56128062485E+02  0.78840795615E+02  0.10561420249E+03  0.00000000000E+00 0. -1.
        -12    1    6    6    0    0 -0.48902826153E+01  0.25068423130E+02  0.63849996270E+02  0.68768908134E+02  0.00000000000E+00 0.  1.
</event>
<event>
12    1  0.8271773E-002  0.1871111E+03  0.7818608E-02  0.1161325E+00
         21   -1    0    0  503  502  0.00000000000E+00  0.00000000000E+00  0.69184596163E+02  0.69184596163E+02  0.00000000000E+00 0. -1.
         21   -1    0    0  501  503 -0.00000000000E+00 -0.00000000000E+00 -0.79979195605E+03  0.79979195605E+03  0.00000000000E+00 0. -1.
          6    2    1    2  501    0 -0.44313212753E+02 -0.53437530963E+02 -0.62921305718E+03  0.65615884563E+03  0.17267347460E+03 0.  0.
         24    2    3    3    0    0 -0.26078244638E+02 -0.64069051501E+02 -0.19972631973E+03  0.22612804332E+03  0.80363990559E+02 0.  0.
         -6    2    1    2    0  502  0.44313212753E+02  0.53437530963E+02 -0.10139430270E+03  0.21281770658E+03  0.17375655692E+03 0.  0.
        -24    2    5    5    0    0  0.35850611653E+02  0.56936032779E+02 -0.13911518255E+03  0.17371770775E+03  0.79358867103E+02 0.  0.
          5    1    3    3  501    0 -0.18234968116E+02  0.10631520537E+02 -0.42948673745E+03  0.43003080231E+03  0.47000000000E+01 0. -1.
        -13    1    4    4    0    0 -0.93704080448E+00  0.56882755096E+01  0.54689536833E+01  0.79463185270E+01  0.00000000000E+00 0.  1.
         14    1    4    4    0    0 -0.25141203833E+02 -0.69757327010E+02 -0.20519527342E+03  0.21818172479E+03  0.00000000000E+00 0. -1.
         -5    1    5    5    0  502  0.84626011008E+01 -0.34985018152E+01  0.37720879841E+02  0.39099998827E+02  0.47000000000E+01 0.  1.
         11    1    6    6    0    0 -0.94181552633E+01  0.21495445305E+02 -0.30222519604E+00  0.23470133308E+02  0.00000000000E+00 0. -1.
        -12    1    6    6    0    0  0.45268766916E+02  0.35440587474E+02 -0.13881295735E+03  0.15024757445E+03  0.00000000000E+00 0.  1.
</event>
<event>
12    1  0.8271773E-002  0.1851369E+03  0.7818608E-02  0.1163166E+00
         21   -1    0    0  501  502  0.00000000000E+00  0.00000000000E+00  0.35912911972E+02  0.35912911972E+02  0.00000000000E+00 0.  1.
         21   -1    0    0  502  503 -0.00000000000E+00 -0.00000000000E+00 -0.15656775768E+04  0.15656775768E+04  0.00000000000E+00 0. -1.
         -6    2    1    2    0  503 -0.20209176344E+02  0.65499198846E+02 -0.12687395387E+04  0.12821761590E+04  0.17198002690E+03 0.  0.
        -24    2    3    3    0    0  0.10747138556E+02  0.25453810115E+02 -0.29857889634E+03  0.31068468262E+03  0.81315541184E+02 0.  0.
          6    2    1    2  501    0  0.20209176344E+02 -0.65499198846E+02 -0.26102512613E+03  0.31941432983E+03  0.17085912844E+03 0.  0.
         24    2    5    5    0    0  0.50011489156E+02 -0.92484800767E+02 -0.14284051461E+03  0.19448998088E+03  0.79801958800E+02 0.  0.
          5    1    5    5  501    0 -0.29802312813E+02  0.26985601921E+02 -0.11818461152E+03  0.12492434895E+03  0.47000000000E+01 0. -1.
        -11    1    6    6    0    0  0.13227930687E+02 -0.11663955066E+02  0.80685837597E+01  0.19394020778E+02  0.00000000000E+00 0.  1.
         12    1    6    6    0    0  0.36783558469E+02 -0.80820845700E+02 -0.15090909837E+03  0.17509596010E+03  0.00000000000E+00 0. -1.
         -5    1    3    3    0  503 -0.30956314900E+02  0.40045388731E+02 -0.97016064241E+03  0.97149147637E+03  0.47000000000E+01 0.  1.
         11    1    4    4    0    0 -0.18303380443E+02 -0.96788385621E+01 -0.21042155730E+03  0.21143775782E+03  0.00000000000E+00 0. -1.
        -12    1    4    4    0    0  0.29050518999E+02  0.35132648677E+02 -0.88157339033E+02  0.99246924802E+02  0.00000000000E+00 0.  1.
</event>
<event>
12    1  0.8271773E-002  0.2213802E+03  0.7818608E-02  0.1132981E+00
         21   -1    0    0  501  502  0.00000000000E+00  0.00000000000E+00  0.35416564821E+03  0.35416564821E+03  0.00000000000E+00 0.  1.
         21   -1    0    0  502  503 -0.00000000000E+00 -0.00000000000E+00 -0.14094277178E+03  0.14094277178E+03  0.00000000000E+00 0. -1.
         -6    2    1    2    0  503 -0.66224553724E+02  0.12273267000E+03  0.70795319779E+02  0.23242455572E+03  0.17193079130E+03 0.  0.
        -24    2    3    3    0    0 -0.84965825947E+02  0.68815229569E+02  0.99993515797E+02  0.16813652948E+03  0.79476172188E+02 0.  0.
          6    2    1    2  501    0  0.66224553724E+02 -0.12273267000E+03  0.14242755665E+03  0.26268386427E+03  0.17107952494E+03 0.  0.
         24    2    5    5    0    0 -0.12969318209E+02 -0.10559275746E+03  0.11602205119E+03  0.17733290252E+03  0.81656648897E+02 0.  0.
          5    1    5    5  501    0  0.79193871933E+02 -0.17139912532E+02  0.26405505457E+02  0.85350961751E+02  0.47000000000E+01 0. -1.
        -11    1    6    6    0    0 -0.34629198112E+02 -0.88292940410E+02  0.53379816702E+02  0.10883119736E+03  0.00000000000E+00 0.  1.
         12    1    6    6    0    0  0.21659879903E+02 -0.17299817054E+02  0.62642234488E+02  0.68501705155E+02  0.00000000000E+00 0. -1.
         -5    1    3    3    0  503  0.18741272222E+02  0.53917440427E+02 -0.29198196019E+02  0.64288026237E+02  0.47000000000E+01 0.  1.
         13    1    4    4    0    0 -0.19386599178E+02  0.26346370203E+02 -0.90989081488E+01  0.33952342777E+02  0.00000000000E+00 0. -1.
        -14    1    4    4    0    0 -0.65579226768E+02  0.42468859367E+02  0.10909242395E+03  0.13418418671E+03  0.00000000000E+00 0.  1.
</event>
<event>
12    1  0.8271773E-002  0.2563335E+03  0.7818608E-02  0.1109594E+00
         21   -1    0    0  503  502  0.00000000000E+00  0.00000000000E+00  0.15024026218E+04  0.15024026218E+04  0.00000000000E+00 0.  1.
         21   -1    0    0  501  503 -0.00000000000E+00 -0.00000000000E+00 -0.46708390186E+02  0.46708390186E+02  0.00000000000E+00 0.  1.
          6    2    1    2  501    0  0.17596488602E+03 -0.68381036594E+02  0.52624341577E+03  0.58535371387E+03  0.17339904966E+03 0.  0.
         24    2    3    3    0    0  0.20272777486E+03 -0.69628421496E+02  0.45405077029E+03  0.50820660602E+03  0.78518689647E+02 0.  0.
         -6    2    1    2    0  502 -0.17596488602E+03  0.68381036594E+02  0.92945081587E+03  0.96375729815E+03  0.17120076904E+03 0.  0.
        -24    2    5    5    0    0 -0.38215199461E+02 -0.16769713474E+02  0.40937285316E+03  0.41902910566E+03  0.79105206707E+02 0.  0.
          5    1    3    3  501    0 -0.26762888836E+02  0.12473849022E+01  0.72192645485E+02  0.77147107853E+02  0.47000000000E+01 0. -1.
        -11    1    4    4    0    0  0.95041708442E+02 -0.70000732813E+02  0.27507883631E+03  0.29933492133E+03  0.00000000000E+00 0.  1.
         12    1    4    4    0    0  0.10768606642E+03  0.37231131715E+00  0.17897193398E+03  0.20887168470E+03  0.00000000000E+00 0. -1.
         -5    1    5    5    0  502 -0.13774968656E+03  0.85150750067E+02  0.52007796271E+03  0.54472819248E+03  0.47000000000E+01 0.  1.
         13    1    6    6    0    0  0.23258127519E+02  0.57362267535E+01  0.11362525676E+03  0.11612296830E+03  0.00000000000E+00 0. -1.
        -14    1    6    6    0    0 -0.61473326980E+02 -0.22505940227E+02  0.29574759640E+03  0.30290613736E+03  0.00000000000E+00 0.  1.
</event>
<event>
12    1  0.8271773E-002  0.2555751E+03  0.7818608E-02  0.1110094E+00
         21   -1    0    0  501  502  0.00000000000E+00  0.00000000000E+00  0.36022907492E+02  0.36022907492E+02  0.00000000000E+00 0. -1.
         21   -1    0    0  502  503 -0.00000000000E+00 -0.00000000000E+00 -0.18080160332E+04  0.18080160332E+04  0.00000000000E+00 0.  1.
         -6    2    1    2    0  503  0.33150933230E+02 -0.18455912016E+03 -0.94566540780E+03  0.97959262150E+03  0.17365940052E+03 0.  0.
        -24    2    3    3    0    0  0.18835815850E+02 -0.55876986140E+02 -0.20273073560E+03  0.22544540023E+03  0.79049679245E+02 0.  0.
          6    2    1    2  501    0 -0.33150933230E+02  0.18455912016E+03 -0.82632771787E+03  0.86444631915E+03  0.17113996659E+03 0.  0.
         24    2    5    5    0    0 -0.39491949264E+02  0.44005804338E+02 -0.48642904466E+03  0.49654872318E+03  0.80319948512E+02 0.  0.
          5    1    5    5  501    0  0.63410160344E+01  0.14055331582E+03 -0.33989867321E+03  0.36789759598E+03  0.47000000000E+01 0. -1.
        -13    1    6    6    0    0  0.24589886482E+02  0.65217591363E+01 -0.11696271822E+03  0.11969742401E+03  0.00000000000E+00 0.  1.
         14    1    6    6    0    0 -0.64081835746E+02  0.37484045202E+02 -0.36946632643E+03  0.37685129917E+03  0.00000000000E+00 0. -1.
         -5    1    3    3    0  503  0.14315117380E+02 -0.12868213402E+03 -0.74293467220E+03  0.75414722127E+03  0.47000000000E+01 0.  1.
         11    1    4    4    0    0  0.40796139783E+02 -0.14289397213E+02 -0.14318378052E+03  0.14956639629E+03  0.00000000000E+00 0. -1.
        -12    1    4    4    0    0 -0.21960323933E+02 -0.41587588927E+02 -0.59546955073E+02  0.75879003937E+02  0.00000000000E+00 0.  1.
</event>
<event>
12    1  0.8271773E-002  0.2033002E+03  0.7818608E-02  0.1147129E+00
         21   -1    0    0  501  502  0.00000000000E+00  0.00000000000E+00  0.54495810226E+03  0.54495810226E+03  0.00000000000E+00 0. -1.
         21   -1    0    0  502  503 -0.00000000000E+00 -0.00000000000E+00 -0.81017763876E+02  0.81017763876E+02  0.00000000000E+00 0. -1.
         -6    2    1    2    0  503  0.10576960257E+03 -0.10695603220E+02  0.15127333078E+03  0.25340598298E+03  0.17328983482E+03 0.  0.
        -24    2    3    3    0    0  0.22248926108E+02 -0.54148970688E+02  0.60190299535E+02  0.12232544621E+03  0.88957950137E+02 0.  0.
          6    2    1    2  501    0 -0.10576960257E+03  0.10695603220E+02  0.31266700761E+03  0.37256988315E+03  0.17247044800E+03 0.  0.
         24    2    5    5    0    0 -0.98709013294E+02  0.67726931926E+02  0.24097081501E+03  0.28056521802E+03  0.79495290791E+02 0.  0.
          5    1    5    5  501    0 -0.70605892717E+01 -0.57031328706E+02  0.71696192590E+02  0.92004665136E+02  0.47000000000E+01 0. -1.
        -13    1    6    6    0    0 -0.29481524524E+02  0.38853902265E+02  0.17160034584E+03  0.17839693020E+03  0.00000000000E+00 0.  1.
         14    1    6    6    0    0 -0.69227488770E+02  0.28873029662E+02  0.69370469171E+02  0.10216828782E+03  0.00000000000E+00 0. -1.
         -5    1    3    3    0  503  0.83520676457E+02  0.43453367468E+02  0.91083031240E+02  0.13108053677E+03  0.47000000000E+01 0.  1.
         11    1    4    4    0    0  0.33062278841E+02 -0.80150230100E+01 -0.11913408797E+02  0.36045584822E+02  0.00000000000E+00 0. -1.
        -12    1    4    4    0    0 -0.10813352732E+02 -0.46133947678E+02  0.72103708332E+02  0.86279861387E+02  0.00000000000E+00 0.  1.
</event>
<event>
12    1  0.8271773E-002  0.2300405E+03  0.7818608E-02  0.1126631E+00
         21   -1    0    0  503  502  0.00000000000E+00  0.00000000000E+00  0.13916491042E+03  0.13916491042E+03  0.00000000000E+00 0. -1.
         21   -1    0    0  501  503 -0.00000000000E+00 -0.00000000000E+00 -0.52348762164E+03  0.52348762164E+03  0.00000000000E+00 0. -1.
          6    2    1    2  501    0  0.15199121143E+03  0.24575659923E+02 -0.36561636265E+03  0.43196524056E+03  0.17091914169E+03 0.  0.
         24    2    3    3    0    0  0.13993025491E+03  0.36336492936E+02 -0.17716500214E+03  0.24270407405E+03  0.81345022116E+02 0.  0.
         -6    2    1    2    0  502 -0.15199121143E+03 -0.24575659923E+02 -0.18706348564E+02  0.23068729150E+03  0.17076711501E+03 0.  0.
        -24    2    5    5    0    0 -0.66909719998E+02  0.70678033597E+01  0.48588707461E+02  0.11759050322E+03  0.83305458889E+02 0.  0.
          5    1    3    3  501    0  0.12060956524E+02 -0.11760833013E+02 -0.18845136052E+03  0.18926116650E+03  0.47000000000E+01 0. -1.
        -11    1    4    4    0    0  0.32939294714E+02  0.46587023877E+02 -0.76585243504E+02  0.95502080880E+02  0.00000000000E+00 0.  1.
         12    1    4    4    0    0  0.10699096019E+03 -0.10250530941E+02 -0.10057975863E+03  0.14720199317E+03  0.00000000000E+00 0. -1.
         -5    1    5    5    0  502 -0.85081491433E+02 -0.31643463283E+02 -0.67295056024E+02  0.11309678828E+03  0.47000000000E+01 0.  1.
         11    1    6    6    0    0 -0.60432097915E+02  0.40576400376E+02  0.30029430770E+02  0.78741662659E+02  0.00000000000E+00 0. -1.
        -12    1    6    6    0    0 -0.64776220829E+01 -0.33508597016E+02  0.18559276691E+02  0.38848840563E+02  0.00000000000E+00 0.  1.
</event>
<event>
12    1  0.8271773E-002  0.3951954E+03  0.7818608E-02  0.1045512E+00
         21   -1    0    0  503  502  0.00000000000E+00  0.00000000000E+00  0.17110830206E+04  0.17110830206E+04  0.00000000000E+00 0.  1.
         21   -1    0    0  501  503 -0.00000000000E+00 -0.00000000000E+00 -0.93562022034E+02  0.93562022034E+02  0.00000000000E+00 0. -1.
          6    2    1    2  501    0  0.64905013368E+02  0.34928117587E+03  0.95366054487E+03  0.10320584060E+04  0.17165697774E+03 0.  0.
         24    2    3    3    0    0  0.87108505410E+02  0.14106003250E+03  0.48550179866E+03  0.51918050509E+03  0.79690500560E+02 0.  0.
         -6    2    1    2    0  502 -0.64905013368E+02 -0.34928117587E+03  0.66386045364E+03  0.77258663657E+03  0.17311674821E+03 0.  0.
        -24    2    5    5    0    0 -0.32523469703E+01 -0.19552179338E+03  0.25255024303E+03  0.32914421829E+03  0.79466607622E+02 0.  0.
          5    1    3    3  501    0 -0.22203492042E+02  0.20822114337E+03  0.46815874622E+03  0.51287790093E+03  0.47000000000E+01 0.  1.
        -11    1    4    4    0    0  0.77640438809E+02  0.10747833181E+03  0.45110092611E+03  0.47018259760E+03  0.00000000000E+00 0.  1.
         12    1    4    4    0    0  0.94680666013E+01  0.33581700685E+02  0.34400872544E+02  0.48997907485E+02  0.00000000000E+00 0. -1.
         -5    1    5    5    0  502 -0.61652666398E+02 -0.15375938249E+03  0.41131021061E+03  0.44344241828E+03  0.47000000000E+01 0.  1.
         11    1    6    6    0    0 -0.31819603807E+02 -0.14111093837E+03  0.20750598530E+03  0.25294963541E+03  0.00000000000E+00 0. -1.
        -12    1    6    6    0    0  0.28567256837E+02 -0.54410855007E+02  0.45044257730E+02  0.76194582880E+02  0.00000000000E+00 0.  1.
</event>
<event>
12    1  0.8271773E-002  0.2313933E+03  0.7818608E-02  0.1126051E+00
         21   -1    0    0  501  502  0.00000000000E+00  0.00000000000E+00  0.37519267642E+03  0.37519267642E+03  0.00000000000E+00 0.  1.
         21   -1    0    0  502  503 -0.00000000000E+00 -0.00000000000E+00 -0.26544830760E+03  0.26544830760E+03  0.00000000000E+00 0.  1.
         -6    2    1    2    0  503 -0.33196605381E+02  0.15097055771E+03 -0.16428540017E+03  0.28198354488E+03  0.16920668713E+03 0.  0.
        -24    2    3    3    0    0 -0.47307757087E+01  0.45010037265E+02 -0.96135470500E+01  0.92290615385E+02  0.79855204639E+02 0.  0.
          6    2    1    2  501    0  0.33196605381E+02 -0.15097055771E+03  0.27402976898E+03  0.35865743914E+03  0.17218803808E+03 0.  0.
         24    2    5    5    0    0  0.46993600751E+02 -0.58236185856E+02  0.23076550235E+03  0.25529444977E+03  0.79515326525E+02 0.  0.
          5    1    5    5  501    0 -0.13796995370E+02 -0.92734371859E+02  0.43264266634E+02  0.10336298938E+03  0.47000000000E+01 0. -1.
        -11    1    6    6    0    0 -0.14263334293E+02 -0.34457357017E+02  0.12795425275E+03  0.13327806629E+03  0.00000000000E+00 0.  1.
         12    1    6    6    0    0  0.61256935044E+02 -0.23778828839E+02  0.10281124960E+03  0.12201638348E+03  0.00000000000E+00 0. -1.
         -5    1    3    3    0  503 -0.28465829672E+02  0.10596052045E+03 -0.15467185312E+03  0.18969292949E+03  0.47000000000E+01 0.  1.
         13    1    4    4    0    0  0.36237181403E+02  0.32740530690E+02 -0.80499300482E+01  0.49496232581E+02  0.00000000000E+00 0. -1.
        -14    1    4    4    0    0 -0.40967957112E+02  0.12269506575E+02 -0.15636170018E+01  0.42794382804E+02  0.00000000000E+00 0.  1.
</event>
<event>
12    1  0.8271773E-002  0.2822429E+03  0.7818608E-02  0.1094532E+00
         21   -1    0    0  503  502  0.00000000000E+00  0.00000000000E+00  0.31859560068E+03  0.31859560068E+03  0.00000000000E+00 0. -1.
         21   -1    0    0  501  503 -0.00000000000E+00 -0.00000000000E+00 -0.34387827779E+03  0.34387827779E+03  0.00000000000E+00 0.  1.
          6    2    1    2  501    0 -0.16971497319E+03 -0.14576471576E+03 -0.18605551996E+03  0.33804985255E+03  0.17207708104E+03 0.  0.
         24    2    3    3    0    0 -0.16966169507E+03 -0.11158001008E+03 -0.89851869490E+02  0.23584501263E+03  0.79462708920E+02 0.  0.
         -6    2    1    2    0  502  0.16971497319E+03  0.14576471576E+03  0.16077284284E+03  0.32442402592E+03  0.17132576313E+03 0.  0.
        -24    2    5    5    0    0  0.62304105005E+02  0.13955007471E+03  0.11667080942E+03  0.20805050780E+03  0.79478998303E+02 0.  0.
          5    1    3    3  501    0 -0.53278126011E-01 -0.34184705678E+02 -0.96203650467E+02  0.10220483992E+03  0.47000000000E+01 0. -1.
        -11    1    4    4    0    0 -0.79651135705E+02 -0.77480613981E+01 -0.41681531304E+02  0.90231291281E+02  0.00000000000E+00 0.  1.
         12    1    4    4    0    0 -0.90010559362E+02 -0.10383194868E+03 -0.48170338186E+02  0.14561372135E+03  0.00000000000E+00 0. -1.
         -5    1    5    5    0  502  0.10741086819E+03  0.62146410453E+01  0.44102033420E+02  0.11637351812E+03  0.47000000000E+01 0.  1.
         13    1    6    6    0    0  0.55496976865E+02  0.99661338644E+02  0.39148076189E+02  0.12060210915E+03  0.00000000000E+00 0. -1.
        -14    1    6    6    0    0  0.68071281404E+01  0.39888736070E+02  0.77522733235E+02  0.87448398654E+02  0.00000000000E+00 0.  1.
</event>
<event>
12    1  0.8271773E-002  0.2034670E+03  0.7818608E-02  0.1147052E+00
         21   -1    0    0  501  502  0.00000000000E+00  0.00000000000E+00  0.57252532803E+02  0.57252532803E+02  0.00000000000E+00 0. -1.
         21   -1    0    0  502  503 -0.00000000000E+00 -0.00000000000E+00 -0.84676070493E+03  0.84676070493E+03  0.00000000000E+00 0. -1.
         -6    2    1    2    0  503  0.88977577544E+02  0.60829430395E+02 -0.56912315130E+03  0.60406596427E+03  0.17139807154E+03 0.  0.
        -24    2    3    3    0    0  0.10461373015E+03  0.91128199869E+02 -0.51823972500E+03  0.54263537114E+03  0.81439253999E+02 0.  0.
          6    2    1    2  501    0 -0.88977577544E+02 -0.60829430395E+02 -0.22038502082E+03  0.29994727346E+03  0.17257340626E+03 0.  0.
         24    2    5    5    0    0 -0.72109039061E+02 -0.98687804690E+02 -0.21221679858E+03  0.25744299192E+03  0.79384684794E+02 0.  0.
          5    1    5    5  501    0 -0.16868538483E+02  0.37858374296E+02 -0.81682222372E+01  0.42504281541E+02  0.47000000000E+01 0. -1.
        -13    1    6    6    0    0  0.86510773900E+01  0.80998717506E+01 -0.17800396646E+02  0.21384648305E+02  0.00000000000E+00 0.  1.
         14    1    6    6    0    0 -0.80760116451E+02 -0.10678767644E+03 -0.19441640194E+03  0.23605834362E+03  0.00000000000E+00 0. -1.
         -5    1    3    3    0  503 -0.15636152608E+02 -0.30298769474E+02 -0.50883426301E+02  0.61430593129E+02  0.47000000000E+01 0.  1.
         11    1    4    4    0    0  0.43571805742E+02  0.18444851491E+02 -0.31244070693E+03  0.31600302237E+03  0.00000000000E+00 0. -1.
        -12    1    4    4    0    0  0.61041924411E+02  0.72683348377E+02 -0.20579901807E+03  0.22663234876E+03  0.00000000000E+00 0.  1.
</event>
<event>
12    1  0.8271773E-002  0.1741448E+03  0.7818608E-02  0.1173982E+00
         21   -1    0    0  503  502  0.00000000000E+00  0.00000000000E+00  0.10241393247E+03  0.10241393247E+03  0.00000000000E+00 0. -1.
         21   -1    0    0  501  503 -0.00000000000E+00 -0.00000000000E+00 -0.39148225515E+03  0.39148225515E+03  0.00000000000E+00 0. -1.
          6    2    1    2  501    0 -0.15612860427E+02  0.24273354836E+02 -0.26758800010E+03  0.31843157294E+03  0.17018334725E+03 0.  0.
         24    2    3    3    0    0  0.48530871433E+02  0.18484227876E+02 -0.88098136517E+02  0.12767876573E+03  0.76443923228E+02 0.  0.
         -6    2    1    2    0  502  0.15612860427E+02 -0.24273354836E+02 -0.21480322585E+02  0.17546461468E+03  0.17173662854E+03 0.  0.
        -24    2    5    5    0    0  0.22769423784E+02 -0.78379141097E+02  0.45419710931E+01  0.11481890359E+03  0.80628870144E+02 0.  0.
          5    1    3    3  501    0 -0.64143731860E+02  0.57891269609E+01 -0.17948986358E+03  0.19075280721E+03  0.47000000000E+01 0. -1.
        -11    1    4    4    0    0 -0.12660108450E+02 -0.70860870432E+01  0.31793100924E+01  0.14852575138E+02  0.00000000000E+00 0.  1.
         12    1    4    4    0    0  0.61190979883E+02  0.25570314919E+02 -0.91277446609E+02  0.11282619059E+03  0.00000000000E+00 0. -1.
         -5    1    5    5    0  502 -0.71565633566E+01  0.54105786260E+02 -0.26022293678E+02  0.60645711094E+02  0.47000000000E+01 0.  1.
         11    1    6    6    0    0  0.47204875259E+02 -0.29313347137E+02 -0.13371774690E+02  0.57152225914E+02  0.00000000000E+00 0. -1.
        -12    1    6    6    0    0 -0.24435451475E+02 -0.49065793960E+02  0.17913745784E+02  0.57666677672E+02  0.00000000000E+00 0.  1.
</event>
<event>
12    1  0.8271773E-002  0.1964794E+03  0.7818608E-02  0.1152946E+00
         21   -1    0    0  503  502  0.00000000000E+00  0.00000000000E+00  0.15276659347E+04  0.15276659347E+04  0.00000000000E+00 0.  1.
         21   -1    0    0  501  503 -0.00000000000E+00 -0.00000000000E+00 -0.48818094789E+02  0.48818094789E+02  0.00000000000E+00 0.  1.
          6    2    1    2  501    0  0.83118234830E+02  0.43896165269E+02  0.19148598556E+03  0.27435569656E+03  0.17253594201E+03 0.  0.
         24    2    3    3    0    0  0.59305674580E+02  0.33174459433E+02  0.21478194746E+03  0.23904585597E+03  0.79962044149E+02 0.  0.
         -6    2    1    2    0  502 -0.83118234830E+02 -0.43896165269E+02  0.12873618544E+04  0.13021283330E+04  0.17147051373E+03 0.  0.
        -24    2    5    5    0    0  0.18025890270E+02 -0.42699746345E+02  0.46465956966E+03  0.47321778003E+03  0.76670402396E+02 0.  0.
          5    1    3    3  501    0  0.23812560250E+02  0.10721705837E+02 -0.23295961904E+02  0.35309840593E+02  0.47000000000E+01 0. -1.
        -11    1    4    4    0    0  0.15265649464E+02  0.51298900541E+01 -0.18504147789E+01  0.16210486124E+02  0.00000000000E+00 0.  1.
         12    1    4    4    0    0  0.44040025116E+02  0.28044569379E+02  0.21663236224E+03  0.22283536985E+03  0.00000000000E+00 0. -1.
         -5    1    5    5    0  502 -0.10114412510E+03 -0.11964189247E+01  0.82270228473E+03  0.82891055293E+03  0.47000000000E+01 0.  1.
         13    1    6    6    0    0  0.40227944113E+02 -0.40151348179E+01  0.14760883342E+03  0.15304501462E+03  0.00000000000E+00 0. -1.
        -14    1    6    6    0    0 -0.22202053842E+02 -0.38684611527E+02  0.31705073624E+03  0.32017276541E+03  0.00000000000E+00 0.  1.
</event>
<event>
12    1  0.8271773E-002  0.1767503E+03  0.7818608E-02  0.1171404E+00
         21   -1    0    0  503  502  0.00000000000E+00  0.00000000000E+00  0.68397491538E+02  0.68397491538E+02  0.00000000000E+00 0. -1.
         21   -1    0    0  501  503 -0.00000000000E+00 -0.00000000000E+00 -0.45914064991E+03  0.45914064991E+03  0.00000000000E+00 0. -1.
          6    2    1    2  501    0 -0.26762899667E+02 -0.22177068401E+02 -0.16254810819E+03  0.23889711396E+03  0.17158632935E+03 0.  0.
         24    2    3    3    0    0  0.46690420377E+02 -0.30550399252E+02 -0.11694973455E+03  0.15190973226E+03  0.79284324402E+02 0.  0.
         -6    2    1    2    0  502  0.26762899667E+02  0.22177068401E+02 -0.22819505018E+03  0.28864102749E+03  0.17329912482E+03 0.  0.
        -24    2    5    5    0    0  0.79712140121E+02  0.39240122669E+02 -0.17259895153E+03  0.20985152266E+03  0.79708537718E+02 0.  0.
          5    1    3    3  501    0 -0.73453320044E+02  0.83733308509E+01 -0.45598373640E+02  0.86987381692E+02  0.47000000000E+01 0. -1.
        -13    1    4    4    0    0  0.34532047062E+02 -0.21805954046E+02 -0.76032380158E+01  0.41542401646E+02  0.00000000000E+00 0.  1.
         14    1    4    4    0    0  0.12158373314E+02 -0.87444452066E+01 -0.10934649653E+03  0.11036733062E+03  0.00000000000E+00 0. -1.
         -5    1    5    5    0  502 -0.52949240454E+02 -0.17063054268E+02 -0.55596098654E+02  0.78789504829E+02  0.47000000000E+01 0.  1.
         11    1    6    6    0    0  0.30511094897E+02 -0.18741418282E+02 -0.24550077661E+02  0.43415135428E+02  0.00000000000E+00 0. -1.
        -12    1    6    6    0    0  0.49201045224E+02  0.57981540951E+02 -0.14804887387E+03  0.16643638723E+03  0.00000000000E+00 0.  1.
</event>
<event>
12    1  0.8271773E-002  0.2040686E+03  0.7818608E-02  0.1146659E+00
         21   -1    0    0  501  502  0.00000000000E+00  0.00000000000E+00  0.47296253954E+03  0.47296253954E+03  0.00000000000E+00 0.  1.
         21   -1    0    0  502  503 -0.00000000000E+00 -0.00000000000E+00 -0.88086888697E+02  0.88086888697E+02  0.00000000000E+00 0. -1.
         -6    2    1    2    0  503 -0.78633820653E+02 -0.77989809589E+02  0.21778264995E+03  0.29845149643E+03  0.17140106462E+03 0.  0.
        -24    2    3    3    0    0  0.15573058494E+01 -0.93668062723E+02  0.13610524484E+03  0.18282402177E+03  0.78255057901E+02 0.  0.
          6    2    1    2  501    0  0.78633820653E+02  0.77989809589E+02  0.16709300089E+03  0.26259793180E+03  0.16962286017E+03 0.  0.
         24    2    5    5    0    0  0.84613992540E+01 -0.15382269104E+02  0.97559610209E+02  0.12658507865E+03  0.78725441322E+02 0.  0.
          5    1    5    5  501    0  0.70172421399E+02  0.93372078694E+02  0.69533390678E+02  0.13601285316E+03  0.47000000000E+01 0. -1.
        -13    1    6    6    0    0  0.19977488821E+02 -0.52902033089E+01  0.10674623623E+03  0.10872830938E+03  0.00000000000E+00 0.  1.
         14    1    6    6    0    0 -0.11516089567E+02 -0.10092065796E+02 -0.91866260234E+01  0.17856769266E+02  0.00000000000E+00 0. -1.
         -5    1    3    3    0  503 -0.80191126502E+02  0.15678253134E+02  0.81677405115E+02  0.11562747466E+03  0.47000000000E+01 0.  1.
         13    1    4    4    0    0 -0.10580824803E+02 -0.88954706020E+02  0.65361517354E+02  0.11089193626E+03  0.00000000000E+00 0. -1.
        -14    1    4    4    0    0  0.12138130653E+02 -0.47133567024E+01  0.70743727483E+02  0.71932085507E+02  0.00000000000E+00 0.  1.
</event>
<event>
12    1  0.8271773E-002  0.2846771E+03  0.7818608E-02  0.1093349E+00
         21   -1    0    0  501  502  0.00000000000E+00  0.00000000000E+00  0.16163012102E+04  0.16163012102E+04  0.00000000000E+00 0. -1.
         21   -1    0    0  502  503 -0.00000000000E+00 -0.00000000000E+00 -0.56579637961E+02  0.56579637961E+02  0.00000000000E+00 0.  1.
         -6    2    1    2    0  503  0.76790226103E+01  0.22553969687E+03  0.49403272837E+03  0.57018363171E+03  0.17353361320E+03 0.  0.
        -24    2    3    3    0    0  0.26806621454E+02  0.24133164433E+03  0.47024476601E+03  0.53549634592E+03  0.81649488813E+02 0.  0.
          6    2    1    2  501    0 -0.76790226103E+01 -0.22553969687E+03  0.10656888439E+04  0.11026972165E+04  0.17123468392E+03 0.  0.
         24    2    5    5    0    0 -0.31876269866E+02 -0.22913433792E+03  0.10328420903E+04  0.10614731041E+04  0.80272821278E+02 0.  0.
          5    1    5    5  501    0  0.24197247256E+02  0.35946410483E+01  0.32846753537E+02  0.41224112325E+02  0.47000000000E+01 0. -1.
        -13    1    6    6    0    0 -0.34314954871E+02 -0.20043555088E+03  0.74701511599E+03  0.77419862420E+03  0.00000000000E+00 0.  1.
         14    1    6    6    0    0  0.24386850043E+01 -0.28698787044E+02  0.28582697435E+03  0.28727447995E+03  0.00000000000E+00 0. -1.
         -5    1    3    3    0  503 -0.19127598844E+02 -0.15791947459E+02  0.23787962360E+02  0.34687285788E+02  0.47000000000E+01 0.  1.
         13    1    4    4    0    0 -0.21731093452E+02  0.40708395881E+02  0.12509403963E+03  0.13333391417E+03  0.00000000000E+00 0. -1.
        -14    1    4    4    0    0  0.48537714907E+02  0.20062324845E+03  0.34515072638E+03  0.40216243175E+03  0.00000000000E+00 0.  1.
</event>
<event>
12    1  0.8271773E-002  0.2516478E+03  0.7818608E-02  0.1112300E+00
         21   -1    0    0  503  502  0.00000000000E+00  0.00000000000E+00  0.80764666107E+03  0.80764666107E+03  0.00000000000E+00 0. -1.
         21   -1    0    0  501  503 -0.00000000000E+00 -0.00000000000E+00 -0.10622447796E+03  0.10622447796E+03  0.00000000000E+00 0. -1.
          6    2    1    2  501    0  0.42053198012E+01 -0.18354904037E+03  0.11651699073E+03  0.27712890211E+03  0.17180303933E+03 0.  0.
         24    2    3    3    0    0  0.64019030980E+02 -0.12076103629E+03  0.10265703810E+03  0.18918459140E+03  0.81059718336E+02 0.  0.
         -6    2    1    2    0  502 -0.42053198012E+01  0.18354904037E+03  0.58490519238E+03  0.63674223692E+03  0.17210071839E+03 0.  0.
        -24    2    5    5    0    0 -0.13026965662E+02  0.53249962507E+02  0.39076802649E+03  0.40271873317E+03  0.80482713536E+02 0.  0.
          5    1    3    3  501    0 -0.59813711178E+02 -0.62788004072E+02  0.13859952635E+02  0.87944310716E+02  0.47000000000E+01 0. -1.
        -11    1    4    4    0    0  0.34690799569E+02 -0.10736792938E+03  0.10836384835E+03  0.15644183413E+03  0.00000000000E+00 0.  1.
         12    1    4    4    0    0  0.29328231410E+02 -0.13393106912E+02 -0.57068102564E+01  0.32742757271E+02  0.00000000000E+00 0. -1.
         -5    1    5    5    0  502  0.88216458605E+01  0.13029907786E+03  0.19413716589E+03  0.23402350375E+03  0.47000000000E+01 0.  1.
         13    1    6    6    0    0  0.22396977988E+02  0.28207010617E+02  0.67092957041E+02  0.76149359520E+02  0.00000000000E+00 0. -1.
        -14    1    6    6    0    0 -0.35423943649E+02  0.25042951890E+02  0.32367506945E+03  0.32656937365E+03  0.00000000000E+00 0.  1.
</event>
<event>
12    1  0.8271773E-002  0.1982642E+03  0.7818608E-02  0.1151433E+00
         21   -1    0    0  503  502  0.00000000000E+00  0.00000000000E+00  0.11398878222E+04  0.11398878222E+04  0.00000000000E+00 0. -1.
         21   -1    0    0  501  503 -0.00000000000E+00 -0.00000000000E+00 -0.36671809576E+02  0.36671809576E+02  0.00000000000E+00 0.  1.
          6    2    1    2  501    0  0.83606443092E+02 -0.61014801159E+02  0.40351166400E+03  0.44958910682E+03  0.16910310081E+03 0.  0.
         24    2    3    3    0    0  0.45143182568E+02 -0.27563750825E+02  0.38218344140E+03  0.39413301376E+03  0.80492126098E+02 0.  0.
         -6    2    1    2    0  502 -0.83606443092E+02  0.61014801159E+02  0.69970434860E+03  0.72697052493E+03  0.16789021824E+03 0.  0.
        -24    2    5    5    0    0 -0.11995114399E+03  0.32040997328E+02  0.57888199406E+03  0.59743076289E+03  0.80026564026E+02 0.  0.
          5    1    3    3  501    0  0.38463260524E+02 -0.33451050334E+02  0.21328222602E+02  0.55456093064E+02  0.47000000000E+01 0. -1.
        -13    1    4    4    0    0 -0.12299953395E+02  0.18819775619E+02  0.89881713717E+02  0.92650932368E+02  0.00000000000E+00 0.  1.
         14    1    4    4    0    0  0.57443135964E+02 -0.46383526444E+02  0.29230172768E+03  0.30148208139E+03  0.00000000000E+00 0. -1.
         -5    1    5    5    0  502  0.36344700898E+02  0.28973803830E+02  0.12082235454E+03  0.12953976204E+03  0.47000000000E+01 0.  1.
         11    1    6    6    0    0 -0.12686218978E+03  0.20086232283E+02  0.45500276443E+03  0.47278429285E+03  0.00000000000E+00 0. -1.
        -12    1    6    6    0    0  0.69110457930E+01  0.11954765046E+02  0.12387922963E+03  0.12464647004E+03  0.00000000000E+00 0.  1.
</event>
<event>
12    1  0.8271773E-002  0.4568183E+03  0.7818608E-02  0.1025789E+00
         21   -1    0    0  503  502  0.00000000000E+00  0.00000000000E+00  0.17178580759E+03  0.17178580759E+03  0.00000000000E+00 0.  1.
         21   -1    0    0  501  503 -0.00000000000E+00 -0.00000000000E+00 -0.13439444228E+04  0.13439444228E+04  0.00000000000E+00 0. -1.
          6    2    1    2  501    0  0.28272545312E+03 -0.31458529951E+03 -0.34783345941E+03  0.57328928937E+03  0.16963166364E+03 0.  0.
         24    2    3    3    0    0  0.26021151751E+03 -0.28614361644E+03 -0.36012874272E+03  0.53470081150E+03  0.81388226489E+02 0.  0.
         -6    2    1    2    0  502 -0.28272545312E+03  0.31458529951E+03 -0.82432515582E+03  0.94244094105E+03  0.17258439192E+03 0.  0.
        -24    2    5    5    0    0 -0.12478557802E+03  0.14821764882E+03 -0.51824673908E+03  0.55991082912E+03  0.85910081408E+02 0.  0.
          5    1    3    3  501    0  0.22513935610E+02 -0.28441683062E+02  0.12295283313E+02  0.38588477864E+02  0.47000000000E+01 0. -1.
        -13    1    4    4    0    0  0.17172535385E+03 -0.13096260848E+03 -0.18195294649E+03  0.28239631144E+03  0.00000000000E+00 0.  1.
         14    1    4    4    0    0  0.88486163657E+02 -0.15518100796E+03 -0.17817579623E+03  0.25230450007E+03  0.00000000000E+00 0. -1.
         -5    1    5    5    0  502 -0.15793987510E+03  0.16636765068E+03 -0.30607841674E+03  0.38253011193E+03  0.47000000000E+01 0.  1.
         13    1    6    6    0    0 -0.89549774640E+02  0.41956496672E+02 -0.27169968895E+03  0.28913704488E+03  0.00000000000E+00 0. -1.
        -14    1    6    6    0    0 -0.35235803383E+02  0.10626115215E+03 -0.24654705014E+03  0.27077378423E+03  0.00000000000E+00 0.  1.
</event>
<event>
12    1  0.8271773E-002  0.1796891E+03  0.7818608E-02  0.1168391E+00
         21   -1    0    0  501  502  0.00000000000E+00  0.00000000000E+00  0.12585114355E+03  0.12585114355E+03  0.00000000000E+00 0.  1.
         21   -1    0    0  502  503 -0.00000000000E+00 -0.00000000000E+00 -0.41764964754E+03  0.41764964754E+03  0.00000000000E+00 0.  1.
         -6    2    1    2    0  503 -0.48301967271E+01  0.49315697888E+02 -0.31525593958E+03  0.36228701291E+03  0.17149403320E+03 0.  0.
        -24    2    3    3    0    0 -0.25752346220E+02  0.93084305792E+02 -0.25900941781E+03  0.28786128760E+03  0.80314202117E+02 0.  0.
          6    2    1    2  501    0  0.48301967271E+01 -0.49315697888E+02  0.23457435602E+02  0.18121377817E+03  0.17272177991E+03 0.  0.
         24    2    5    5    0    0 -0.60722016844E+02 -0.34792173306E+02  0.13893165974E+02  0.11323149575E+03  0.87924359057E+02 0.  0.
          5    1    5    5  501    0  0.65552213571E+02 -0.14523524582E+02  0.95642696274E+01  0.67982282426E+02  0.47000000000E+01 0. -1.
        -13    1    6    6    0    0  0.20609926854E+02 -0.33197279799E+01  0.15511365506E+02  0.26007540035E+02  0.00000000000E+00 0.  1.
         14    1    6    6    0    0 -0.81331943698E+02 -0.31472445326E+02 -0.16181995317E+01  0.87223955713E+02  0.00000000000E+00 0. -1.
         -5    1    3    3    0  503  0.20922149493E+02 -0.43768607904E+02 -0.56246521772E+02  0.74425725315E+02  0.47000000000E+01 0.  1.
         11    1    4    4    0    0  0.39695148359E+01 -0.13929619872E+02 -0.27075541748E+02  0.30706291192E+02  0.00000000000E+00 0. -1.
        -12    1    4    4    0    0 -0.29721861056E+02  0.10701392566E+03 -0.23193387606E+03  0.25715499641E+03  0.00000000000E+00 0.  1.
</event>
<event>
12    1  0.8271773E-002  0.2606097E+03  0.7818608E-02  0.1106863E+00
         21   -1    0    0  503  502  0.00000000000E+00  0.00000000000E+00  0.11234654786E+04  0.11234654786E+04  0.00000000000E+00 0.  1.
         21   -1    0    0  501  503 -0.00000000000E+00 -0.00000000000E+00 -0.84558575897E+02  0.84558575897E+02  0.00000000000E+00 0.  1.
          6    2    1    2  501    0  0.17772057925E+03 -0.65360570552E+02  0.19566621803E+03  0.32543000854E+03  0.17822124764E+03 0.  0.
         24    2    3    3    0    0  0.59304012941E+02  0.29462575215E+02  0.56574578364E+02  0.11955993696E+03  0.81907791563E+02 0.  0.
         -6    2    1    2    0  502 -0.17772057925E+03  0.65360570552E+02  0.84324068464E+03  0.88259404593E+03  0.17905526854E+03 0.  0.
        -24    2    5    5    0    0 -0.12514726001E+02  0.12139413816E+02  0.21737324046E+03  0.23308837762E+03  0.82310888574E+02 0.  0.
          5    1    3    3  501    0  0.11841656631E+03 -0.94823145767E+02  0.13909163967E+03  0.20587007159E+03  0.47000000000E+01 0. -1.
        -13    1    4    4    0    0  0.64084648769E+02  0.49439293752E+00  0.62601034613E+02  0.89587812602E+02  0.00000000000E+00 0.  1.
         14    1    4    4    0    0 -0.47806358279E+01  0.28968182278E+02 -0.60264562489E+01  0.29972124354E+02  0.00000000000E+00 0. -1.
         -5    1    5    5    0  502 -0.16520585325E+03  0.53221156736E+02  0.62586744418E+03  0.64950566830E+03  0.47000000000E+01 0.  1.
         11    1    6    6    0    0  0.34264556246E+02  0.12016623034E+02  0.77144000689E+02  0.85262277041E+02  0.00000000000E+00 0. -1.
        -12    1    6    6    0    0 -0.46779282247E+02  0.12279078176E+00  0.14022923977E+03  0.14782610058E+03  0.00000000000E+00 0.  1.
</event>
<event>
12    1  0.8271773E-002  0.2271021E+03  0.7818608E-02  0.1128715E+00
         21   -1    0    0  501  502  0.00000000000E+00  0.00000000000E+00  0.67562153321E+03  0.67562153321E+03  0.00000000000E+00 0.  1.
         21   -1    0    0  502  503 -0.00000000000E+00 -0.00000000000E+00 -0.17161972820E+03  0.17161972820E+03  0.00000000000E+00 0.  1.
         -6    2    1    2    0  503  0.68119118793E+01 -0.14917063574E+03 -0.63728304499E+02  0.23577347545E+03  0.17096652954E+03 0.  0.
        -24    2    3    3    0    0  0.43129365521E+02 -0.14102704119E+03 -0.64419892629E+01  0.16729656340E+03  0.78726567190E+02 0.  0.
          6    2    1    2  501    0 -0.68119118793E+01  0.14917063574E+03  0.56773010951E+03  0.61146778596E+03  0.17110550929E+03 0.  0.
         24    2    5    5    0    0  0.61985231270E+02  0.79827758115E+02  0.33560295027E+03  0.35958172116E+03  0.80343226851E+02 0.  0.
          5    1    5    5  501    0 -0.68797143149E+02  0.69342877626E+02  0.23212715924E+03  0.25188606480E+03  0.47000000000E+01 0. -1.
        -13    1    6    6    0    0  0.12530230767E+02 -0.15732602463E+02  0.74743807822E+02  0.77402572767E+02  0.00000000000E+00 0.  1.
         14    1    6    6    0    0  0.49455000503E+02  0.95560360578E+02  0.26085914245E+03  0.28217914840E+03  0.00000000000E+00 0. -1.
         -5    1    3    3    0  503 -0.36317453641E+02 -0.81435945483E+01 -0.57286315236E+02  0.68476912054E+02  0.47000000000E+01 0.  1.
         11    1    4    4    0    0  0.26765243122E+02 -0.82229165962E+01  0.15025812765E+02  0.31776872816E+02  0.00000000000E+00 0. -1.
        -12    1    4    4    0    0  0.16364122399E+02 -0.13280412460E+03 -0.21467802028E+02  0.13551969058E+03  0.00000000000E+00 0.  1.
</event>
<event>
12    1  0.8271773E-002  0.2241467E+03  0.7818608E-02  0.1130849E+00
         21   -1    0    0  501  502  0.00000000000E+00  0.00000000000E+00  0.11803895091E+04  0.11803895091E+04  0.00000000000E+00 0. -1.
         21   -1    0    0  502  503 -0.00000000000E+00 -0.00000000000E+00 -0.44469698915E+02  0.44469698915E+02  0.00000000000E+00 0. -1.
         -6    2    1    2    0  503  0.12940131048E+03 -0.59700021724E+02  0.44060794851E+03  0.49434513505E+03  0.17301143462E+03 0.  0.
        -24    2    3    3    0    0  0.13955583269E+03 -0.81813809166E+02  0.29185851094E+03  0.34354520437E+03  0.81685905921E+02 0.  0.
          6    2    1    2  501    0 -0.12940131048E+03  0.59700021724E+02  0.69531186168E+03  0.73051407297E+03  0.17286825639E+03 0.  0.
         24    2    5    5    0    0 -0.75925760341E+02  0.98392365792E+02  0.36585948221E+03  0.39448179433E+03  0.79479221204E+02 0.  0.
          5    1    5    5  501    0 -0.53475550136E+02 -0.38692344067E+02  0.32945237947E+03  0.33603227864E+03  0.47000000000E+01 0. -1.
        -13    1    6    6    0    0  0.12659168194E+02  0.19378611880E+02  0.11026053430E+03  0.11266397189E+03  0.00000000000E+00 0.  1.
         14    1    6    6    0    0 -0.88584928535E+02  0.79013753911E+02  0.25559894790E+03  0.28181782243E+03  0.00000000000E+00 0. -1.
         -5    1    3    3    0  503 -0.10154522216E+02  0.22113787442E+02  0.14874943757E+03  0.15079993068E+03  0.47000000000E+01 0.  1.
         11    1    4    4    0    0  0.57303557063E+02 -0.60123738350E+02  0.20855201559E+03  0.22448274939E+03  0.00000000000E+00 0. -1.
        -12    1    4    4    0    0  0.82252275630E+02 -0.21690070816E+02  0.83306495347E+02  0.11906245498E+03  0.00000000000E+00 0.  1.
</event>
<event>
12    1  0.8271773E-002  0.3334969E+03  0.7818608E-02  0.1069623E+00
         21   -1    0    0  503  502  0.00000000000E+00  0.00000000000E+00  0.35086767737E+03  0.35086767737E+03  0.00000000000E+00 0. -1.
         21   -1    0    0  501  503 -0.00000000000E+00 -0.00000000000E+00 -0.37655901531E+03  0.37655901531E+03  0.00000000000E+00 0.  1.
          6    2    1    2  501    0  0.27514932286E+03 -0.75002582246E+02 -0.15775626751E+03  0.36892708500E+03  0.17288035427E+03 0.  0.
         24    2    3    3    0    0  0.15038128141E+03  0.32353476314E+02 -0.11394633017E+03  0.19853404498E+03  0.52637663591E+02 0.  0.
         -6    2    1    2    0  502 -0.27514932286E+03  0.75002582246E+02  0.13206492957E+03  0.35849960769E+03  0.17247691403E+03 0.  0.
        -24    2    5    5    0    0 -0.12660841193E+03  0.29081843531E+02  0.13417490337E+03  0.20293721360E+03  0.79405065161E+02 0.  0.
          5    1    3    3  501    0  0.12476804145E+03 -0.10735605856E+03 -0.43809937341E+02  0.17039304002E+03  0.47000000000E+01 0. -1.
        -13    1    4    4    0    0  0.10956412744E+03 -0.12719798176E+01 -0.80452771782E+02  0.13593588357E+03  0.00000000000E+00 0.  1.
         14    1    4    4    0    0  0.40817153965E+02  0.33625456131E+02 -0.33493558386E+02  0.62598161404E+02  0.00000000000E+00 0. -1.
         -5    1    5    5    0  502 -0.14854091093E+03  0.45920738715E+02 -0.21099737999E+01  0.15556239409E+03  0.47000000000E+01 0.  1.
         11    1    6    6    0    0 -0.87761187800E+02 -0.19585857547E+02  0.82086733272E+02  0.12175329022E+03  0.00000000000E+00 0. -1.
        -12    1    6    6    0    0 -0.38847224131E+02  0.48667701078E+02  0.52088170099E+02  0.81183923378E+02  0.00000000000E+00 0.  1.
</event>
<event>
12    1  0.8271773E-002  0.3644971E+03  0.7818608E-02  0.1057543E+00
         21   -1    0    0  501  502  0.00000000000E+00  0.00000000000E+00  0.81473677103E+03  0.81473677103E+03  0.00000000000E+00 0.  1.
         21   -1    0    0  502  503 -0.00000000000E+00 -0.00000000000E+00 -0.20649786801E+03  0.20649786801E+03  0.00000000000E+00 0.  1.
         -6    2    1    2    0  503  0.14277349903E+03 -0.28768075452E+03  0.54935906102E+03  0.65928258868E+03  0.17237652179E+03 0.  0.
        -24    2    3    3    0    0  0.11016471572E+03 -0.22764673926E+03  0.29937596450E+03  0.40008950567E+03  0.80537829242E+02 0.  0.
          6    2    1    2  501    0 -0.14277349903E+03  0.28768075452E+03  0.58879842008E+02  0.36195205037E+03  0.15619847126E+03 0.  0.
         24    2    5    5    0    0 -0.72993804400E+02  0.71325098014E+02  0.61084402342E+01  0.12852992903E+03  0.77892647447E+02 0.  0.
          5    1    5    5  501    0 -0.69779694627E+02  0.21635565651E+03  0.52771401774E+02  0.23342212134E+03  0.47000000000E+01 0. -1.
        -13    1    6    6    0    0 -0.18011335781E+02  0.59824477388E+02  0.27711113419E+02  0.68346778405E+02  0.00000000000E+00 0.  1.
         14    1    6    6    0    0 -0.54982468619E+02  0.11500620627E+02 -0.21602673185E+02  0.60183150624E+02  0.00000000000E+00 0. -1.
         -5    1    3    3    0  503  0.32608783310E+02 -0.60034015261E+02  0.24998309651E+03  0.25919308301E+03  0.47000000000E+01 0.  1.
         11    1    4    4    0    0 -0.51357983682E+01  0.23472563379E+01  0.17807068462E+02  0.18680945490E+02  0.00000000000E+00 0. -1.
        -12    1    4    4    0    0  0.11530051409E+03 -0.22999399560E+03  0.28156889604E+03  0.38140856018E+03  0.00000000000E+00 0.  1.
</event>
<event>
12    1  0.8271773E-002  0.1927365E+03  0.7818608E-02  0.1156982E+00
         21   -1    0    0  503  502  0.00000000000E+00  0.00000000000E+00  0.64624356293E+03  0.64624356293E+03  0.00000000000E+00 0.  1.
         21   -1    0    0  501  503 -0.00000000000E+00 -0.00000000000E+00 -0.56690166236E+02  0.56690166236E+02  0.00000000000E+00 0.  1.
          6    2    1    2  501    0  0.58595882975E+02 -0.20113714736E+02  0.32405154751E+03  0.37485052551E+03  0.17794794748E+03 0.  0.
         24    2    3    3    0    0  0.10695188210E+03 -0.16823590831E+02  0.20508964455E+03  0.24630811258E+03  0.82970993293E+02 0.  0.
         -6    2    1    2    0  502 -0.58595882975E+02  0.20113714736E+02  0.26550184919E+03  0.32808320365E+03  0.18250840413E+03 0.  0.
        -24    2    5    5    0    0 -0.14997211450E+02 -0.46216552092E+02  0.21263070871E+03  0.23259500568E+03  0.80794383126E+02 0.  0.
          5    1    3    3  501    0 -0.48355999126E+02 -0.32901239045E+01  0.11896190296E+03  0.12854241293E+03  0.47000000000E+01 0. -1.
        -11    1    4    4    0    0  0.21012350680E+02 -0.40203553206E+02  0.89959410280E+02  0.10074988868E+03  0.00000000000E+00 0.  1.
         12    1    4    4    0    0  0.85939531421E+02  0.23379962375E+02  0.11513023427E+03  0.14555822390E+03  0.00000000000E+00 0. -1.
         -5    1    5    5    0  502 -0.43598671525E+02  0.66330266828E+02  0.52871140478E+02  0.95488197970E+02  0.47000000000E+01 0.  1.
         13    1    6    6    0    0 -0.40825746676E+02 -0.27312197352E+02  0.64654417981E+02  0.81196622346E+02  0.00000000000E+00 0. -1.
        -14    1    6    6    0    0  0.25828535226E+02 -0.18904354741E+02  0.14797629073E+03  0.15139838334E+03  0.00000000000E+00 0.  1.
</event>
<event>
12    1  0.8271773E-002  0.2942186E+03  0.7818608E-02  0.1089249E+00
         21   -1    0    0  501  502  0.00000000000E+00  0.00000000000E+00  0.37281848753E+03  0.37281848753E+03  0.00000000000E+00 0.  1.
         21   -1    0    0  502  503 -0.00000000000E+00 -0.00000000000E+00 -0.34221003800E+03  0.34221003800E+03  0.00000000000E+00 0. -1.
         -6    2    1    2    0  503 -0.22600543974E+03  0.77381729026E+02 -0.19345560311E+03  0.34520520926E+03  0.15708333885E+03 0.  0.
        -24    2    3    3    0    0 -0.10146253930E+03 -0.12902747808E+02 -0.10103287871E+03  0.16568843903E+03  0.82364364054E+02 0.  0.
          6    2    1    2  501    0  0.22600543974E+03 -0.77381729026E+02  0.22406405265E+03  0.36982331627E+03  0.17175038511E+03 0.  0.
         24    2    5    5    0    0  0.40489200628E+02 -0.13936104461E+02  0.82550994494E+02  0.12797696447E+03  0.87919544855E+02 0.  0.
          5    1    5    5  501    0  0.18551623911E+03 -0.63445624565E+02  0.14151305815E+03  0.24184635180E+03  0.47000000000E+01 0. -1.
        -13    1    6    6    0    0  0.77611902728E+00  0.32273500437E+02  0.48254918512E+02  0.58057887938E+02  0.00000000000E+00 0.  1.
         14    1    6    6    0    0  0.39713081601E+02 -0.46209604898E+02  0.34296075982E+02  0.69919076531E+02  0.00000000000E+00 0. -1.
         -5    1    3    3    0  503 -0.12454290044E+03  0.90284476834E+02 -0.92422724402E+02  0.17951677023E+03  0.47000000000E+01 0.  1.
         13    1    4    4    0    0 -0.52048194431E+02  0.34761912100E+02 -0.45392303181E+02  0.77316662269E+02  0.00000000000E+00 0. -1.
        -14    1    4    4    0    0 -0.49414344870E+02 -0.47664659907E+02 -0.55640575531E+02  0.88371776764E+02  0.00000000000E+00 0.  1.
</event>
<event>
12    1  0.8271773E-002  0.2400336E+03  0.7818608E-02  0.1119957E+00
         21   -1    0    0  503  502  0.00000000000E+00  0.00000000000E+00  0.41768135815E+03  0.41768135815E+03  0.00000000000E+00 0.  1.
         21   -1    0    0  501  503 -0.00000000000E+00 -0.00000000000E+00 -0.71008579283E+03  0.71008579283E+03  0.00000000000E+00 0. -1.
          6    2    1    2  501    0 -0.31640097923E+02  0.16411417827E+03 -0.65257737629E+03  0.69493846736E+03  0.17072692251E+03 0.  0.
         24    2    3    3    0    0 -0.97300351809E+01  0.30950123057E+02 -0.13459492910E+03  0.15964357476E+03  0.79483912340E+02 0.  0.
         -6    2    1    2    0  502  0.31640097923E+02 -0.16411417827E+03  0.36017294161E+03  0.43282868363E+03  0.17228337760E+03 0.  0.
        -24    2    5    5    0    0  0.43631058650E+02 -0.18473189025E+03  0.35234897864E+03  0.40729091585E+03  0.75541689309E+02 0.  0.
          5    1    3    3  501    0 -0.21910062742E+02  0.13316405521E+03 -0.51798244719E+03  0.53529489260E+03  0.47000000000E+01 0. -1.
        -13    1    4    4    0    0  0.10431595895E+02 -0.23523959072E+02 -0.58527159869E+02  0.63934523426E+02  0.00000000000E+00 0.  1.
         14    1    4    4    0    0 -0.20161631076E+02  0.54474082129E+02 -0.76067769231E+02  0.95709051334E+02  0.00000000000E+00 0. -1.
         -5    1    5    5    0  502 -0.11990960728E+02  0.20617711986E+02  0.78239629650E+01  0.25537767780E+02  0.47000000000E+01 0.  1.
         11    1    6    6    0    0  0.16553006832E+02 -0.13315063683E+03  0.17435779970E+03  0.22000849175E+03  0.00000000000E+00 0. -1.
        -12    1    6    6    0    0  0.27078051819E+02 -0.51581253417E+02  0.17799117894E+03  0.18728242410E+03  0.00000000000E+00 0.  1.
</event>
<event>
12    1  0.8271773E-002  0.3686572E+03  0.7818608E-02  0.1055222E+00
         21   -1    0    0  501  502  0.00000000000E+00  0.00000000000E+00  0.31753775070E+03  0.31753775070E+03  0.00000000000E+00 0. -1.
         21   -1    0    0  502  503 -0.00000000000E+00 -0.00000000000E+00 -0.58711260011E+03  0.58711260011E+03  0.00000000000E+00 0.  1.
         -6    2    1    2    0  503  0.95938448365E+02 -0.31159282736E+03 -0.37036851621E+03  0.52246258047E+03  0.17175574009E+03 0.  0.
        -24    2    3    3    0    0  0.86175766207E+02 -0.32252643046E+03 -0.31863582856E+03  0.46848837727E+03  0.80641226237E+02 0.  0.
          6    2    1    2  501    0 -0.95938448365E+02  0.31159282736E+03  0.10079366681E+03  0.38218777033E+03  0.17208675888E+03 0.  0.
         24    2    5    5    0    0 -0.26057979797E+02  0.12820145371E+03 -0.14893878846E+02  0.15432514936E+03  0.80497161767E+02 0.  0.
          5    1    5    5  501    0 -0.69880468568E+02  0.18339137365E+03  0.11568754565E+03  0.22786262097E+03  0.47000000000E+01 0. -1.
        -13    1    6    6    0    0 -0.34598877048E+01  0.11725648212E+02 -0.32180698312E+02  0.34424685805E+02  0.00000000000E+00 0.  1.
         14    1    6    6    0    0 -0.22598092093E+02  0.11647580550E+03  0.17286819466E+02  0.11990046356E+03  0.00000000000E+00 0. -1.
         -5    1    3    3    0  503  0.97626821585E+01  0.10933603097E+02 -0.51732687653E+02  0.53974203204E+02  0.47000000000E+01 0.  1.
         13    1    4    4    0    0  0.71962282497E+01 -0.91136874174E+02 -0.46210879460E+02  0.10243613091E+03  0.00000000000E+00 0. -1.
        -14    1    4    4    0    0  0.78979537957E+02 -0.23138955629E+03 -0.27242494910E+03  0.36605224636E+03  0.00000000000E+00 0.  1.
</event>
<event>
12    1  0.8271773E-002  0.2347175E+03  0.7818608E-02  0.1123636E+00
         21   -1    0    0  501  502  0.00000000000E+00  0.00000000000E+00  0.25537240647E+04  0.25537240647E+04  0.00000000000E+00 0.  1.
         21   -1    0    0  502  503 -0.00000000000E+00 -0.00000000000E+00 -0.23925772903E+02  0.23925772903E+02  0.00000000000E+00 0.  1.
         -6    2    1    2    0  503  0.15093769243E+03  0.44183926928E+02  0.16775052837E+04  0.16936273873E+04  0.17209109163E+03 0.  0.
        -24    2    3    3    0    0  0.14342742840E+03  0.60447687428E+02  0.95884776932E+03  0.97473127038E+03  0.80539770209E+02 0.  0.
          6    2    1    2  501    0 -0.15093769243E+03 -0.44183926928E+02  0.85229300810E+03  0.88402245030E+03  0.17423522770E+03 0.  0.
         24    2    5    5    0    0 -0.10365492522E+03  0.34209434735E+02  0.61335763960E+03  0.62810570690E+03  0.79965968017E+02 0.  0.
          5    1    5    5  501    0 -0.47282767207E+02 -0.78393361664E+02  0.23893536851E+03  0.25591674340E+03  0.47000000000E+01 0. -1.
        -11    1    6    6    0    0 -0.65583250153E+02  0.19260320039E+02  0.17548820819E+03  0.18833011932E+03  0.00000000000E+00 0.  1.
         12    1    6    6    0    0 -0.38071675071E+02  0.14949114696E+02  0.43786943141E+03  0.43977558758E+03  0.00000000000E+00 0. -1.
         -5    1    3    3    0  503  0.75102640257E+01 -0.16263760499E+02  0.71865751436E+03  0.71889611691E+03  0.47000000000E+01 0.  1.
         11    1    4    4    0    0  0.25080688437E+01  0.31055962547E+02  0.15622057686E+03  0.15929730649E+03  0.00000000000E+00 0. -1.
        -12    1    4    4    0    0  0.14091935956E+03  0.29391724881E+02  0.80262719246E+03  0.81543396389E+03  0.00000000000E+00 0.  1.
</event>
<event>
12    1  0.8271773E-002  0.2869326E+03  0.7818608E-02  0.1092062E+00
         21   -1    0    0  501  502  0.00000000000E+00  0.00000000000E+00  0.13069715536E+03  0.13069715536E+03  0.00000000000E+00 0.  1.
         21   -1    0    0  502  503 -0.00000000000E+00 -0.00000000000E+00 -0.63082421518E+03  0.63082421518E+03  0.00000000000E+00 0. -1.
         -6    2    1    2    0  503 -0.17501201568E+03 -0.14856284096E+03 -0.22615357059E+03  0.36534331242E+03  0.17213417758E+03 0.  0.
        -24    2    3    3    0    0 -0.64886819191E+02 -0.11949345143E+03 -0.71254103250E+02  0.17301930640E+03  0.79809453810E+02 0.  0.
          6    2    1    2  501    0  0.17501201568E+03  0.14856284096E+03 -0.27397348923E+03  0.39617805813E+03  0.17086678318E+03 0.  0.
         24    2    5    5    0    0  0.18809358589E+03  0.10173131594E+03 -0.25747382068E+03  0.34461597635E+03  0.82091078222E+02 0.  0.
          5    1    5    5  501    0 -0.13081570211E+02  0.46831525019E+02 -0.16499668550E+02  0.51562081776E+02  0.47000000000E+01 0. -1.
        -11    1    6    6    0    0  0.77083983733E+02  0.21223854395E+02 -0.45037668280E+02  0.91764830451E+02  0.00000000000E+00 0.  1.
         12    1    6    6    0    0  0.11100960216E+03  0.80507461543E+02 -0.21243615240E+03  0.25285114590E+03  0.00000000000E+00 0. -1.
         -5    1    3    3    0  503 -0.11012519649E+03 -0.29069389529E+02 -0.15489946734E+03  0.19232400602E+03  0.47000000000E+01 0.  1.
         13    1    4    4    0    0 -0.29143726956E+02 -0.54994007938E+02 -0.77053900472E+02  0.99050498777E+02  0.00000000000E+00 0. -1.
        -14    1    4    4    0    0 -0.35743092235E+02 -0.64499443490E+02  0.57997972218E+01  0.73968807621E+02  0.00000000000E+00 0.  1.
</event>
<event>
12    1  0.8271773E-002  0.2283208E+03  0.7818608E-02  0.1129809E+00
         21   -1    0    0  503  502  0.00000000000E+00  0.00000000000E+00  0.20892473282E+03  0.20892473282E+03  0.00000000000E+00 0. -1.
         21   -1    0    0  501  503 -0.00000000000E+00 -0.00000000000E+00 -0.25454279665E+03  0.25454279665E+03  0.00000000000E+00 0.  1.
          6    2    1    2  501    0  0.13400682688E+03 -0.12033518558E+02 -0.81736439501E+02  0.23230760975E+03  0.17083133432E+03 0.  0.
         24    2    3    3    0    0  0.13328491411E+03  0.44584703813E+02 -0.65292598805E+02  0.17315835650E+03  0.77253018218E+02 0.  0.
         -6    2    1    2    0  502 -0.13400682688E+03  0.12033518558E+02  0.36118375675E+02  0.23115991973E+03  0.18446608417E+03 0.  0.
        -24    2    5    5    0    0 -0.43580752052E+02 -0.19126433687E+02  0.82598636298E+02  0.12471593324E+03  0.80414096213E+02 0.  0.
          5    1    3    3  501    0  0.72191276539E+00 -0.56618222371E+02 -0.16443840696E+02  0.59149253244E+02  0.47000000000E+01 0. -1.
        -11    1    4    4    0    0  0.75449618928E+02 -0.14774501276E+02 -0.23842244997E+02  0.80494618024E+02  0.00000000000E+00 0.  1.
         12    1    4    4    0    0  0.57835295184E+02  0.59359205089E+02 -0.41450353808E+02  0.92663738477E+02  0.00000000000E+00 0. -1.
         -5    1    5    5    0  502 -0.90426074825E+02  0.31159952245E+02 -0.46480260622E+02  0.10644398649E+03  0.47000000000E+01 0.  1.
         13    1    6    6    0    0 -0.14757686607E+02  0.31494121324E+02  0.36626923164E+02  0.50509409940E+02  0.00000000000E+00 0. -1.
        -14    1    6    6    0    0 -0.28823065445E+02 -0.50620555012E+02  0.45971713133E+02  0.74206523297E+02  0.00000000000E+00 0.  1.
</event>
<event>
12    1  0.8271773E-002  0.1954479E+03  0.7818608E-02  0.1155071E+00
         21   -1    0    0  501  502  0.00000000000E+00  0.00000000000E+00  0.96860799076E+02  0.96860799076E+02  0.00000000000E+00 0.  1.
         21   -1    0    0  502  503 -0.00000000000E+00 -0.00000000000E+00 -0.84716836454E+03  0.84716836454E+03  0.00000000000E+00 0.  1.
         -6    2    1    2    0  503  0.35026720642E+02 -0.55320921719E+02 -0.72226912252E+03  0.74658033674E+03  0.17726318946E+03 0.  0.
        -24    2    3    3    0    0  0.31114364869E+02 -0.33958814884E+02 -0.16556889178E+03  0.18943683365E+03  0.79699129291E+02 0.  0.
          6    2    1    2  501    0 -0.35026720642E+02  0.55320921719E+02 -0.28038442951E+02  0.19744882687E+03  0.18415376567E+03 0.  0.
         24    2    5    5    0    0  0.25104813111E+02  0.83486418902E+02  0.89909593891E+01  0.12127558209E+03  0.83825388029E+02 0.  0.
          5    1    5    5  501    0 -0.60131533753E+02 -0.28165497183E+02 -0.37029402340E+02  0.76173244782E+02  0.47000000000E+01 0. -1.
        -13    1    6    6    0    0 -0.30253000845E+02  0.30066245300E+02 -0.54593998040E+01  0.43000328054E+02  0.00000000000E+00 0.  1.
         14    1    6    6    0    0  0.55357813956E+02  0.53420173602E+02  0.14450359193E+02  0.78275254036E+02  0.00000000000E+00 0. -1.
         -5    1    3    3    0  503  0.39123557728E+01 -0.21362106835E+02 -0.55670023074E+03  0.55714350309E+03  0.47000000000E+01 0.  1.
         11    1    4    4    0    0  0.52145655557E+02 -0.43064840228E+01 -0.12164288043E+03  0.13241867526E+03  0.00000000000E+00 0. -1.
        -12    1    4    4    0    0 -0.21031290688E+02 -0.29652330861E+02 -0.43926011349E+02  0.57018158393E+02  0.00000000000E+00 0.  1.
</event>
<event>
12    1  0.8271773E-002  0.2300026E+03  0.7818608E-02  0.1127063E+00
         21   -1    0    0  503  502  0.00000000000E+00  0.00000000000E+00  0.46738171031E+03  0.46738171031E+03  0.00000000000E+00 0.  1.
         21   -1    0    0  501  503 -0.00000000000E+00 -0.00000000000E+00 -0.11466059516E+03  0.11466059516E+03  0.00000000000E+00 0. -1.
          6    2    1    2  501    0 -0.15088050114E+03  0.39365292367E+01  0.13118456031E+03  0.26269976214E+03  0.17035655044E+03 0.  0.
         24    2    3    3    0    0 -0.67085485917E+02 -0.29673965024E+02  0.13394151649E+03  0.17225109876E+03  0.79681268572E+02 0.  0.
         -6    2    1    2    0  502  0.15088050114E+03 -0.39365292367E+01  0.22153655484E+03  0.31934254332E+03  0.17355342970E+03 0.  0.
        -24    2    5    5    0    0  0.10720425992E+03  0.49710042545E+01  0.23725069613E+03  0.27184535987E+03  0.78067551744E+02 0.  0.
          5    1    3    3  501    0 -0.83795015226E+02  0.33610494261E+02 -0.27569561800E+01  0.90448663387E+02  0.47000000000E+01 0. -1.
        -11    1    4    4    0    0 -0.15298471079E+02 -0.32973714801E+02  0.97206004413E+01  0.37627106693E+02  0.00000000000E+00 0.  1.
         12    1    4    4    0    0 -0.51787014838E+02  0.32997497765E+01  0.12422091605E+03  0.13462399206E+03  0.00000000000E+00 0. -1.
         -5    1    5    5    0  502  0.43676241218E+02 -0.89075334912E+01 -0.15714141295E+02  0.47497183458E+02  0.47000000000E+01 0.  1.
         13    1    6    6    0    0  0.22725451106E+02  0.29466639822E+02  0.34111721056E+02  0.50481070747E+02  0.00000000000E+00 0. -1.
        -14    1    6    6    0    0  0.84478808819E+02 -0.24495635568E+02  0.20313897508E+03  0.22136428912E+03  0.00000000000E+00 0.  1.
</event>
<event>
12    1  0.8271773E-002  0.2399419E+03  0.7818608E-02  0.1120228E+00
         21   -1    0    0  503  502  0.00000000000E+00  0.00000000000E+00  0.85469312997E+03  0.85469312997E+03  0.00000000000E+00 0.  1.
         21   -1    0    0  501  503 -0.00000000000E+00 -0.00000000000E+00 -0.76149099400E+02  0.76149099400E+02  0.00000000000E+00 0.  1.
          6    2    1    2  501    0 -0.15323303365E+03  0.58706545576E+02  0.22361623274E+03  0.32626224900E+03  0.17180225401E+03 0.  0.
         24    2    3    3    0    0 -0.13621389575E+03  0.98891285320E+02  0.21687212911E+03  0.28185462244E+03  0.63834129566E+02 0.  0.
         -6    2    1    2    0  502  0.15323303365E+03 -0.58706545576E+02  0.55492779783E+03  0.60457998037E+03  0.17505790688E+03 0.  0.
        -24    2    5    5    0    0  0.82495205558E+02  0.34497269205E+02  0.32251819956E+03  0.34433566673E+03  0.80953948717E+02 0.  0.
          5    1    3    3  501    0 -0.17019137895E+02 -0.40184739744E+02  0.67441036266E+01  0.44407626560E+02  0.47000000000E+01 0. -1.
        -13    1    4    4    0    0 -0.12926990575E+03  0.79195777777E+02  0.15612609104E+03  0.21761901584E+03  0.00000000000E+00 0.  1.
         14    1    4    4    0    0 -0.69439900044E+01  0.19695507542E+02  0.60746038071E+02  0.64235606604E+02  0.00000000000E+00 0. -1.
         -5    1    5    5    0  502  0.70737828090E+02 -0.93203814781E+02  0.23240959828E+03  0.26024431364E+03  0.47000000000E+01 0.  1.
         13    1    6    6    0    0  0.46216753166E+01  0.40535583786E+02  0.13959138065E+03  0.14543124488E+03  0.00000000000E+00 0. -1.
        -14    1    6    6    0    0  0.77873530241E+02 -0.60383145812E+01  0.18292681891E+03  0.19890442185E+03  0.00000000000E+00 0.  1.
</event>
<event>
12    1  0.8271773E-002  0.1990806E+03  0.7818608E-02  0.1150614E+00
         21   -1    0    0  501  502  0.00000000000E+00  0.00000000000E+00  0.73310870804E+02  0.73310870804E+02  0.00000000000E+00 0. -1.
         21   -1    0    0  502  503 -0.00000000000E+00 -0.00000000000E+00 -0.98829550846E+03  0.98829550846E+03  0.00000000000E+00 0.  1.
         -6    2    1    2    0  503 -0.94671341998E+02  0.13042038371E+02 -0.81552128412E+03  0.83946891060E+03  0.17464343461E+03 0.  0.
        -24    2    3    3    0    0 -0.11165767642E+03  0.42032666306E+02 -0.44861599491E+03  0.47099832383E+03  0.79680163290E+02 0.  0.
          6    2    1    2  501    0  0.94671341998E+02 -0.13042038371E+02 -0.99463353530E+02  0.22213746866E+03  0.17412449146E+03 0.  0.
         24    2    5    5    0    0  0.11396193636E+03 -0.25072284894E+02 -0.12541997809E+03  0.18731376666E+03  0.75764991031E+02 0.  0.
          5    1    5    5  501    0 -0.19290594366E+02  0.12030246523E+02  0.25956624561E+02  0.34823702000E+02  0.47000000000E+01 0. -1.
        -11    1    6    6    0    0  0.11277527130E+02 -0.31802476327E+02 -0.47364652129E+02  0.58154882770E+02  0.00000000000E+00 0.  1.
         12    1    6    6    0    0  0.10268440923E+03  0.67301914324E+01 -0.78055325961E+02  0.12915888389E+03  0.00000000000E+00 0. -1.
         -5    1    3    3    0  503  0.16986334418E+02 -0.28990627934E+02 -0.36690528921E+03  0.36847058677E+03  0.47000000000E+01 0.  1.
         13    1    4    4    0    0 -0.58969743558E+02  0.36282868233E+02 -0.12344603238E+03  0.14153727457E+03  0.00000000000E+00 0. -1.
        -14    1    4    4    0    0 -0.52687932858E+02  0.57497980724E+01 -0.32516996254E+03  0.32946104926E+03  0.00000000000E+00 0.  1.
</event>
<event>
12    1  0.8271773E-002  0.2307539E+03  0.7818608E-02  0.1126153E+00
         21   -1    0    0  503  502  0.00000000000E+00  0.00000000000E+00  0.74196675644E+03  0.74196675644E+03  0.00000000000E+00 0.  1.
         21   -1    0    0  501  503 -0.00000000000E+00 -0.00000000000E+00 -0.83565136248E+02  0.83565136248E+02  0.00000000000E+00 0. -1.
          6    2    1    2  501    0  0.29155744515E+02 -0.15057926543E+03  0.17374352425E+03  0.28884971708E+03  0.17240410152E+03 0.  0.
         24    2    3    3    0    0  0.41083425209E+02 -0.63316258325E+02  0.21221279451E+02  0.11266167227E+03  0.80904346614E+02 0.  0.
         -6    2    1    2    0  502 -0.29155744515E+02  0.15057926543E+03  0.48465809594E+03  0.53668217561E+03  0.17207589906E+03 0.  0.
        -24    2    5    5    0    0 -0.23577149135E+02  0.17651278775E+03  0.36324689294E+03  0.41231803882E+03  0.79656849675E+02 0.  0.
          5    1    3    3  501    0 -0.11927680694E+02 -0.87263007107E+02  0.15252224480E+03  0.17618804481E+03  0.47000000000E+01 0. -1.
        -13    1    4    4    0    0  0.44245602166E+02 -0.21112030891E+02  0.42869049433E+02  0.65124085857E+02  0.00000000000E+00 0.  1.
         14    1    4    4    0    0 -0.31621769567E+01 -0.42204227434E+02 -0.21647769982E+02  0.47537586409E+02  0.00000000000E+00 0. -1.
         -5    1    5    5    0  502 -0.55785953804E+01 -0.25933522321E+02  0.12141120300E+03  0.12436413679E+03  0.47000000000E+01 0.  1.
         13    1    6    6    0    0  0.79530510214E+01  0.53895400113E+02  0.48039035313E+02  0.72634111048E+02  0.00000000000E+00 0. -1.
        -14    1    6    6    0    0 -0.31530200156E+02  0.12261738764E+03  0.31520785763E+03  0.33968392777E+03  0.00000000000E+00 0.  1.
</event>
<event>
12    1  0.8271773E-002  0.1906710E+03  0.7818608E-02  0.1157861E+00
         21   -1    0    0  501  502  0.00000000000E+00  0.00000000000E+00  0.56764402423E+02  0.56764402423E+02  0.00000000000E+00 0. -1.
         21   -1    0    0  502  503 -0.00000000000E+00 -0.00000000000E+00 -0.77451253106E+03  0.77451253106E+03  0.00000000000E+00 0. -1.
         -6    2    1    2    0  503 -0.10226100075E+02 -0.81817933343E+02 -0.53180910673E+03  0.56495238549E+03  0.17190556866E+03 0.  0.
        -24    2    3    3    0    0  0.37501958844E+02 -0.39565233602E+02 -0.45882180201E+03  0.46793437225E+03  0.73981930946E+02 0.  0.
          6    2    1    2  501    0  0.10226100075E+02  0.81817933343E+02 -0.18593902191E+03  0.26632454799E+03  0.17192061440E+03 0.  0.
         24    2    5    5    0    0  0.20600758346E+02 -0.20280656361E+02 -0.59067553839E+02  0.10307561242E+03  0.79371970447E+02 0.  0.
          5    1    5    5  501    0 -0.10374658271E+02  0.10209858970E+03 -0.12687146807E+03  0.16324893557E+03  0.47000000000E+01 0. -1.
        -13    1    6    6    0    0 -0.29187956076E+02 -0.15900607384E+02 -0.15096775037E+02  0.36505872289E+02  0.00000000000E+00 0.  1.
         14    1    6    6    0    0  0.49788714422E+02 -0.43800489775E+01 -0.43970778803E+02  0.66569740133E+02  0.00000000000E+00 0. -1.
         -5    1    3    3    0  503 -0.47728058919E+02 -0.42252699741E+02 -0.72987304715E+02  0.97018013241E+02  0.47000000000E+01 0.  1.
         13    1    4    4    0    0  0.11306121667E+02 -0.45268053469E+02 -0.13179302601E+03  0.13980853607E+03  0.00000000000E+00 0. -1.
        -14    1    4    4    0    0  0.26195837176E+02  0.57028198671E+01 -0.32702877600E+03  0.32812583618E+03  0.00000000000E+00 0.  1.
</event>
<event>
12    1  0.8271773E-002  0.2931272E+03  0.7818608E-02  0.1088766E+00
         21   -1    0    0  503  502  0.00000000000E+00  0.00000000000E+00  0.92455853480E+03  0.92455853480E+03  0.00000000000E+00 0.  1.
         21   -1    0    0  501  503 -0.00000000000E+00 -0.00000000000E+00 -0.93692629609E+02  0.93692629609E+02  0.00000000000E+00 0. -1.
          6    2    1    2  501    0  0.13584519899E+03  0.19435640879E+03  0.46417283995E+03  0.54898085937E+03  0.17232303061E+03 0.  0.
         24    2    3    3    0    0  0.41803843683E+01  0.43620762251E+02  0.17446842637E+03  0.19683373699E+03  0.79900198415E+02 0.  0.
         -6    2    1    2    0  502 -0.13584519899E+03 -0.19435640879E+03  0.36669306524E+03  0.46927030504E+03  0.17182107954E+03 0.  0.
        -24    2    5    5    0    0 -0.13526196501E+02 -0.76474773124E+02  0.20550155501E+03  0.23504218682E+03  0.83561902548E+02 0.  0.
          5    1    3    3  501    0  0.13166481462E+03  0.15073564654E+03  0.28970441358E+03  0.35214712237E+03  0.47000000000E+01 0. -1.
        -11    1    4    4    0    0  0.18653141656E+02 -0.48622714388E+01  0.12357274736E+03  0.12506720300E+03  0.00000000000E+00 0.  1.
         12    1    4    4    0    0 -0.14472757288E+02  0.48483033690E+02  0.50895679010E+02  0.71766533992E+02  0.00000000000E+00 0. -1.
         -5    1    5    5    0  502 -0.12231900249E+03 -0.11788163566E+03  0.16119151023E+03  0.23422811822E+03  0.47000000000E+01 0.  1.
         11    1    6    6    0    0  0.19244194308E+02 -0.76120019196E+02  0.11927272782E+03  0.14279558795E+03  0.00000000000E+00 0. -1.
        -12    1    6    6    0    0 -0.32770390809E+02 -0.35475392808E+00  0.86228827189E+02  0.92246598867E+02  0.00000000000E+00 0.  1.
</event>
<event>
12    1  0.8271773E-002  0.1874534E+03  0.7818608E-02  0.1160861E+00
         21   -1    0    0  501  502  0.00000000000E+00  0.00000000000E+00  0.29024315353E+04  0.29024315353E+04  0.00000000000E+00 0. -1.
         21   -1    0    0  502  503 -0.00000000000E+00 -0.00000000000E+00 -0.33955094361E+02  0.33955094361E+02  0.00000000000E+00 0. -1.
         -6    2    1    2    0  503 -0.64971482521E+02  0.28078356539E+02  0.25638703983E+03  0.31760524263E+03  0.17357732659E+03 0.  0.
        -24    2    3    3    0    0 -0.88235935157E+02  0.67260380658E+02  0.22164967818E+03  0.26011402534E+03  0.78874503384E+02 0.  0.
          6    2    1    2  501    0  0.64971482521E+02 -0.28078356539E+02  0.26120894011E+04  0.26187813870E+04  0.17319129895E+03 0.  0.
         24    2    5    5    0    0  0.70383446135E+02 -0.13966377079E+02  0.86551882395E+03  0.87213909157E+03  0.79717446315E+02 0.  0.
          5    1    5    5  501    0 -0.54119636141E+01 -0.14111979461E+02  0.17465705771E+04  0.17466422955E+04  0.47000000000E+01 0. -1.
        -11    1    6    6    0    0 -0.80601704279E+01  0.61914346109E+01  0.36243206121E+03  0.36257454296E+03  0.00000000000E+00 0.  1.
         12    1    6    6    0    0  0.78443616563E+02 -0.20157811690E+02  0.50308676274E+03  0.50956454861E+03  0.00000000000E+00 0. -1.
         -5    1    3    3    0  503  0.23264452637E+02 -0.39182024119E+02  0.34737361654E+02  0.57491217288E+02  0.47000000000E+01 0.  1.
         13    1    4    4    0    0 -0.48839870994E+01  0.30716730222E+02  0.15462691890E+02  0.34734214919E+02  0.00000000000E+00 0. -1.
        -14    1    4    4    0    0 -0.83351948058E+02  0.36543650436E+02  0.20618698629E+03  0.22537981043E+03  0.00000000000E+00 0.  1.
</event>
<event>
12    1  0.8271773E-002  0.2084446E+03  0.7818608E-02  0.1142826E+00
         21   -1    0    0  503  502  0.00000000000E+00  0.00000000000E+00  0.54436527616E+03  0.54436527616E+03  0.00000000000E+00 0. -1.
         21   -1    0    0  501  503 -0.00000000000E+00 -0.00000000000E+00 -0.25299136879E+03  0.25299136879E+03  0.00000000000E+00 0. -1.
          6    2    1    2  501    0 -0.61223417457E+02 -0.10073341805E+03 -0.18421337636E+03  0.27809523775E+03  0.17177562363E+03 0.  0.
         24    2    3    3    0    0 -0.32902676582E+02 -0.34452433540E+02 -0.18348514827E+03  0.20586052596E+03  0.80263317960E+02 0.  0.
         -6    2    1    2    0  502  0.61223417457E+02  0.10073341805E+03  0.47558728372E+03  0.51926140720E+03  0.17191165232E+03 0.  0.
        -24    2    5    5    0    0  0.43774638833E+02  0.32854786191E+02  0.41559642682E+03  0.42688737702E+03  0.80726617005E+02 0.  0.
          5    1    3    3  501    0 -0.28320740875E+02 -0.66280984511E+02 -0.72822808610E+00  0.72234711792E+02  0.47000000000E+01 0. -1.
        -11    1    4    4    0    0  0.12805251916E+02  0.13502418280E+02 -0.86032664451E+02  0.88022208155E+02  0.00000000000E+00 0.  1.
         12    1    4    4    0    0 -0.45707928498E+02 -0.47954851819E+02 -0.97452483820E+02  0.11783831781E+03  0.00000000000E+00 0. -1.
         -5    1    5    5    0  502  0.17448778624E+02  0.67878631860E+02  0.59990856904E+02  0.92374030175E+02  0.47000000000E+01 0.  1.
         11    1    6    6    0    0  0.10108038666E+02  0.52471418026E+02  0.30456977204E+03  0.30922187535E+03  0.00000000000E+00 0. -1.
        -12    1    6    6    0    0  0.33666600167E+02 -0.19616631835E+02  0.11102665478E+03  0.11766550167E+03  0.00000000000E+00 0.  1.
</event>
<event>
12    1  0.8271773E-002  0.1989307E+03  0.7818608E-02  0.1151204E+00
         21   -1    0    0  501  502  0.00000000000E+00  0.00000000000E+00  0.16116977528E+03  0.16116977528E+03  0.00000000000E+00 0. -1.
         21   -1    0    0  502  503 -0.00000000000E+00 -0.00000000000E+00 -0.25856904164E+03  0.25856904164E+03  0.00000000000E+00 0. -1.
         -6    2    1    2    0  503  0.96039765202E+02  0.65075240068E+01 -0.10161314749E+03  0.22338005747E+03  0.17409030405E+03 0.  0.
        -24    2    3    3    0    0  0.13357337974E+03  0.20875557919E+02 -0.89370226655E+02  0.18110486700E+03  0.80835009403E+02 0.  0.
          6    2    1    2  501    0 -0.96039765202E+02 -0.65075240068E+01  0.42138811234E+01  0.19635875945E+03  0.17109360377E+03 0.  0.
         24    2    5    5    0    0 -0.10520601010E+02  0.49921763029E+01  0.54238004428E+02  0.96507502754E+02  0.78970450762E+02 0.  0.
          5    1    5    5  501    0 -0.85519164192E+02 -0.11499700310E+02 -0.50024123304E+02  0.99851256695E+02  0.47000000000E+01 0. -1.
        -13    1    6    6    0    0  0.95395454168E+01 -0.33000194125E+02  0.36220401638E+02  0.49919267160E+02  0.00000000000E+00 0.  1.
         14    1    6    6    0    0 -0.20060146427E+02  0.37992370428E+02  0.18017602790E+02  0.46588235593E+02  0.00000000000E+00 0. -1.
         -5    1    3    3    0  503 -0.37533614536E+02 -0.14368033913E+02 -0.12242920834E+02  0.42275190469E+02  0.47000000000E+01 0.  1.
         13    1    4    4    0    0  0.12188806401E+03  0.73242928004E+01 -0.10208047765E+03  0.15915643038E+03  0.00000000000E+00 0. -1.
        -14    1    4    4    0    0  0.11685315724E+02  0.13551265119E+02  0.12710250990E+02  0.21948436621E+02  0.00000000000E+00 0.  1.
</event>
<event>
12    1  0.8271773E-002  0.2016673E+03  0.7818608E-02  0.1148354E+00
         21   -1    0    0  501  502  0.00000000000E+00  0.00000000000E+00  0.12566366899E+03  0.12566366899E+03  0.00000000000E+00 0.  1.
         21   -1    0    0  502  503 -0.00000000000E+00 -0.00000000000E+00 -0.60883642279E+03  0.60883642279E+03  0.00000000000E+00 0.  1.
         -6    2    1    2    0  503 -0.59061080190E+01 -0.10517309176E+03 -0.49300845969E+03  0.53266035205E+03  0.17196932280E+03 0.  0.
        -24    2    3    3    0    0  0.29498199904E+02 -0.53634323855E+01 -0.30952164338E+03  0.32075250679E+03  0.78610512583E+02 0.  0.
          6    2    1    2  501    0  0.59061080190E+01  0.10517309176E+03  0.98357058881E+01  0.20183973972E+03  0.17189030828E+03 0.  0.
         24    2    5    5    0    0  0.10494274861E+02  0.11497875013E+03  0.58362464931E+02  0.15189838858E+03  0.79603394116E+02 0.  0.
          5    1    5    5  501    0 -0.45881668415E+01 -0.98056583655E+01 -0.48526759043E+02  0.49941351145E+02  0.47000000000E+01 0. -1.
        -11    1    6    6    0    0  0.81176137258E+01 -0.11311197474E+02  0.54538602257E+01  0.14952706520E+02  0.00000000000E+00 0.  1.
         12    1    6    6    0    0  0.23766611348E+01  0.12628994760E+03  0.52908604705E+02  0.13694568206E+03  0.00000000000E+00 0. -1.
         -5    1    3    3    0  503 -0.35404307923E+02 -0.99809659374E+02 -0.18348681631E+03  0.21190784526E+03  0.47000000000E+01 0.  1.
         13    1    4    4    0    0  0.10327114686E+02 -0.13342287372E+02 -0.82768480584E+01  0.18792874816E+02  0.00000000000E+00 0. -1.
        -14    1    4    4    0    0  0.19171085217E+02  0.79788549864E+01 -0.30124479532E+03  0.30195963197E+03  0.00000000000E+00 0.  1.
</event>
<event>
12    1  0.8271773E-002  0.1820867E+03  0.7818608E-02  0.1166083E+00
         21   -1    0    0  501  502  0.00000000000E+00  0.00000000000E+00  0.13917048959E+03  0.13917048959E+03  0.00000000000E+00 0.  1.
         21   -1    0    0  502  503 -0.00000000000E+00 -0.00000000000E+00 -0.35433323696E+03  0.35433323696E+03  0.00000000000E+00 0.  1.
         -6    2    1    2    0  503  0.11741998592E+02 -0.58520114438E+02 -0.24999752817E+03  0.30928031947E+03  0.17202637471E+03 0.  0.
        -24    2    3    3    0    0  0.43051054750E+02 -0.79148697144E+01 -0.49731379833E+02  0.10030719211E+03  0.75314568115E+02 0.  0.
          6    2    1    2  501    0 -0.11741998592E+02  0.58520114438E+02  0.34834780792E+02  0.18422340708E+03  0.17076979662E+03 0.  0.
         24    2    5    5    0    0 -0.18030792651E+02  0.10236056815E+03  0.46139377687E+02  0.13827323598E+03  0.78662889724E+02 0.  0.
          5    1    5    5  501    0  0.62887940591E+01 -0.43840453716E+02 -0.11304596895E+02  0.45950171095E+02  0.47000000000E+01 0. -1.
        -13    1    6    6    0    0 -0.78477232723E+01  0.10802986459E+03  0.20677337531E+02  0.11027053410E+03  0.00000000000E+00 0.  1.
         14    1    6    6    0    0 -0.10183069379E+02 -0.56692964316E+01  0.25462040156E+02  0.28002701886E+02  0.00000000000E+00 0. -1.
         -5    1    3    3    0  503 -0.31309056158E+02 -0.50605244724E+02 -0.20026614833E+03  0.20897312736E+03  0.47000000000E+01 0.  1.
         13    1    4    4    0    0 -0.12019616920E+02  0.20857293143E+02 -0.76303326144E+01  0.25253115530E+02  0.00000000000E+00 0. -1.
        -14    1    4    4    0    0  0.55070671671E+02 -0.28772162857E+02 -0.42101047218E+02  0.75054076576E+02  0.00000000000E+00 0.  1.
</event>
<event>
12    1  0.8271773E-002  0.3276416E+03  0.7818608E-02  0.1072266E+00
         21   -1    0    0  503  502  0.00000000000E+00  0.00000000000E+00  0.53459148321E+03  0.53459148321E+03  0.00000000000E+00 0.  1.
         21   -1    0    0  501  503 -0.00000000000E+00 -0.00000000000E+00 -0.39454362683E+03  0.39454362683E+03  0.00000000000E+00 0. -1.
          6    2    1    2  501    0  0.19830036201E+03 -0.19553626100E+03 -0.25584983034E+03  0.41570198112E+03  0.17260225517E+03 0.  0.
         24    2    3    3    0    0  0.16041685791E+03 -0.69541969185E+02 -0.12032302787E+03  0.22675932941E+03  0.79827994182E+02 0.  0.
         -6    2    1    2    0  502 -0.19830036201E+03  0.19553626100E+03  0.39589768672E+03  0.51343312892E+03  0.17123415718E+03 0.  0.
        -24    2    5    5    0    0 -0.12076412640E+03  0.12090136929E+03  0.35551929728E+03  0.39839079225E+03  0.55858189110E+02 0.  0.
          5    1    3    3  501    0  0.37883504093E+02 -0.12599429181E+03 -0.13552680246E+03  0.18894265172E+03  0.47000000000E+01 0. -1.
        -11    1    4    4    0    0  0.85235946706E+02 -0.36578374855E+02 -0.16181902958E+02  0.94154118875E+02  0.00000000000E+00 0.  1.
         12    1    4    4    0    0  0.75180911209E+02 -0.32963594330E+02 -0.10414112492E+03  0.13260521053E+03  0.00000000000E+00 0. -1.
         -5    1    5    5    0  502 -0.77536235605E+02  0.74634891711E+02  0.40378389437E+02  0.11504233667E+03  0.47000000000E+01 0.  1.
         11    1    6    6    0    0 -0.52178550037E+02  0.16260700479E+02  0.10589092482E+03  0.11916333086E+03  0.00000000000E+00 0. -1.
        -12    1    6    6    0    0 -0.68585576365E+02  0.10464066881E+03  0.24962837246E+03  0.27922746139E+03  0.00000000000E+00 0.  1.
</event>
<event>
12    1  0.8271773E-002  0.1824484E+03  0.7818608E-02  0.1166634E+00
         21   -1    0    0  501  502  0.00000000000E+00  0.00000000000E+00  0.18548397613E+03  0.18548397613E+03  0.00000000000E+00 0.  1.
         21   -1    0    0  502  503 -0.00000000000E+00 -0.00000000000E+00 -0.26537522662E+03  0.26537522662E+03  0.00000000000E+00 0.  1.
         -6    2    1    2    0  503 -0.36196081945E+02  0.34886978657E+02 -0.17207780314E+03  0.25079514994E+03  0.17538580123E+03 0.  0.
        -24    2    3    3    0    0  0.27262872196E+00 -0.46291639084E+02 -0.76849784610E+02  0.12037122442E+03  0.80251804330E+02 0.  0.
          6    2    1    2  501    0  0.36196081945E+02 -0.34886978657E+02  0.92186552648E+02  0.20006405280E+03  0.17029388452E+03 0.  0.
         24    2    5    5    0    0 -0.25679926723E+02 -0.34665481359E+02  0.12010344305E+01  0.89931659585E+02  0.78899345229E+02 0.  0.
          5    1    5    5  501    0  0.61876008668E+02 -0.22149729860E+00  0.90985518218E+02  0.11013239321E+03  0.47000000000E+01 0. -1.
        -13    1    6    6    0    0 -0.43895317082E+01 -0.70416740334E+00 -0.35384329416E+02  0.35662509847E+02  0.00000000000E+00 0.  1.
         14    1    6    6    0    0 -0.21290395015E+02 -0.33961313955E+02  0.36585363847E+02  0.54269149738E+02  0.00000000000E+00 0. -1.
         -5    1    3    3    0  503 -0.36468710667E+02  0.81178617742E+02 -0.95228018528E+02  0.13042392552E+03  0.47000000000E+01 0.  1.
         13    1    4    4    0    0  0.22686631649E+02 -0.17192948727E+02 -0.78603506551E+02  0.83598995111E+02  0.00000000000E+00 0. -1.
        -14    1    4    4    0    0 -0.22414002927E+02 -0.29098690357E+02  0.17537219411E+01  0.36772229309E+02  0.00000000000E+00 0.  1.
</event>
<event>
12    1  0.8271773E-002  0.1800951E+03  0.7818608E-02  0.1169470E+00
         21   -1    0    0  503  502  0.00000000000E+00  0.00000000000E+00  0.34995868127E+02  0.34995868127E+02  0.00000000000E+00 0. -1.
         21   -1    0    0  501  503 -0.00000000000E+00 -0.00000000000E+00 -0.21702610509E+04  0.21702610509E+04  0.00000000000E+00 0. -1.
          6    2    1    2  501    0 -0.48953724176E+01  0.58336106111E+02 -0.19230984834E+04  0.19315128862E+04  0.17031496246E+03 0.  0.
         24    2    3    3    0    0  0.48416984593E+02  0.44514275528E+02 -0.77293847563E+03  0.78002542033E+03  0.81731536859E+02 0.  0.
         -6    2    1    2    0  502  0.48953724176E+01 -0.58336106111E+02 -0.21216669932E+03  0.27374403286E+03  0.16276984142E+03 0.  0.
        -24    2    5    5    0    0 -0.36616226330E+02 -0.89082946672E+02 -0.14908847792E+03  0.19207682371E+03  0.73413980538E+02 0.  0.
          5    1    3    3  501    0 -0.53312357010E+02  0.13821830582E+02 -0.11501600078E+04  0.11514874658E+04  0.47000000000E+01 0. -1.
        -11    1    4    4    0    0  0.15999929807E+02  0.21147233352E+02 -0.55864841683E+02  0.61839176648E+02  0.00000000000E+00 0.  1.
         12    1    4    4    0    0  0.32417054786E+02  0.23367042177E+02 -0.71707363395E+03  0.71818624368E+03  0.00000000000E+00 0. -1.
         -5    1    5    5    0  502  0.41511598748E+02  0.30746840562E+02 -0.63078221402E+02  0.81667209150E+02  0.47000000000E+01 0.  1.
         11    1    6    6    0    0 -0.48366093294E+02 -0.43365917520E+02 -0.48844105655E+02  0.81275017319E+02  0.00000000000E+00 0. -1.
        -12    1    6    6    0    0  0.11749866964E+02 -0.45717029153E+02 -0.10024437226E+03  0.11080180639E+03  0.00000000000E+00 0.  1.
</event>
<event>
12    1  0.8271773E-002  0.1752962E+03  0.7818608E-02  0.1172556E+00
         21   -1    0    0  501  502  0.00000000000E+00  0.00000000000E+00  0.40281780179E+03  0.40281780179E+03  0.00000000000E+00 0. -1.
         21   -1    0    0  502  503 -0.00000000000E+00 -0.00000000000E+00 -0.21621892898E+03  0.21621892898E+03  0.00000000000E+00 0. -1.
         -6    2    1    2    0  503  0.15749456775E+02  0.22502083474E+02 -0.15593384651E+03  0.23425441465E+03  0.17264233879E+03 0.  0.
        -24    2    3    3    0    0  0.52164721825E+02  0.62099878834E+02 -0.13415676671E+03  0.17602737513E+03  0.80062760308E+02 0.  0.
          6    2    1    2  501    0 -0.15749456775E+02 -0.22502083474E+02  0.34253271932E+03  0.38478231613E+03  0.17313110017E+03 0.  0.
         24    2    5    5    0    0 -0.14753837583E+01 -0.21687847065E+02  0.57715215647E+02  0.99567462828E+02  0.78167090705E+02 0.  0.
          5    1    5    5  501    0 -0.14274073017E+02 -0.81423640979E+00  0.28481750368E+03  0.28521485330E+03  0.47000000000E+01 0. -1.
        -13    1    6    6    0    0 -0.24400378152E+02 -0.21003810036E+02 -0.51905715682E+01  0.32611049097E+02  0.00000000000E+00 0.  1.
         14    1    6    6    0    0  0.22924994394E+02 -0.68403702844E+00  0.62905787215E+02  0.66956413731E+02  0.00000000000E+00 0. -1.
         -5    1    3    3    0  503 -0.36415265050E+02 -0.39597795360E+02 -0.21777079805E+02  0.58227039516E+02  0.47000000000E+01 0.  1.
         11    1    4    4    0    0  0.12310799594E+02 -0.91322210444E+01 -0.71510128990E+02  0.73134477478E+02  0.00000000000E+00 0. -1.
        -12    1    4    4    0    0  0.39853922231E+02  0.71232099878E+02 -0.62646637719E+02  0.10289289765E+03  0.00000000000E+00 0.  1.
</event>
<event>
12    1  0.8271773E-002  0.1896883E+03  0.7818608E-02  0.1159334E+00
         21   -1    0    0  503  502  0.00000000000E+00  0.00000000000E+00  0.45299999005E+03  0.45299999005E+03  0.00000000000E+00 0.  1.
         21   -1    0    0  501  503 -0.00000000000E+00 -0.00000000000E+00 -0.10040924859E+03  0.10040924859E+03  0.00000000000E+00 0.  1.
          6    2    1    2  501    0 -0.58641929142E+02 -0.46657629161E+02  0.45644827967E+02  0.19258038301E+03  0.17142912059E+03 0.  0.
         24    2    3    3    0    0  0.28279340151E+02  0.15236654600E+01  0.46194534023E+01  0.84961074494E+02  0.79968757610E+02 0.  0.
         -6    2    1    2    0  502  0.58641929142E+02  0.46657629161E+02  0.30694591350E+03  0.36082885563E+03  0.17425802430E+03 0.  0.
        -24    2    5    5    0    0  0.57190744050E+02  0.23897020155E+02  0.31863590357E+03  0.33477320119E+03  0.81868238112E+02 0.  0.
          5    1    3    3  501    0 -0.86921269293E+02 -0.48181294621E+02  0.41025374565E+02  0.10761930851E+03  0.47000000000E+01 0. -1.
        -11    1    4    4    0    0 -0.13056704433E+02  0.15996570498E+01  0.32526976746E+02  0.35086188872E+02  0.00000000000E+00 0.  1.
         12    1    4    4    0    0  0.41336044584E+02 -0.75991589754E-01 -0.27907523344E+02  0.49874885622E+02  0.00000000000E+00 0. -1.
         -5    1    5    5    0  502  0.14511850921E+01  0.22760609006E+02 -0.11689990077E+02  0.26055654444E+02  0.47000000000E+01 0.  1.
         11    1    6    6    0    0 -0.33270375245E+01  0.36293880259E+02  0.16904156099E+03  0.17292589241E+03  0.00000000000E+00 0. -1.
        -12    1    6    6    0    0  0.60517781575E+02 -0.12396860104E+02  0.14959434258E+03  0.16184730878E+03  0.00000000000E+00 0.  1.
</event>
<event>
12    1  0.8271773E-002  0.1968590E+03  0.7818608E-02  0.1152626E+00
         21   -1    0    0  501  502  0.00000000000E+00  0.00000000000E+00  0.35683746690E+03  0.35683746690E+03  0.00000000000E+00 0. -1.
         21   -1    0    0  502  503 -0.00000000000E+00 -0.00000000000E+00 -0.12887585820E+03  0.12887585820E+03  0.00000000000E+00 0. -1.
         -6    2    1    2    0  503 -0.94386763569E+01  0.95433609270E+02  0.16157214127E+02  0.19655149614E+03  0.17080624309E+03 0.  0.
        -24    2    3    3    0    0  0.22952006977E+02  0.11786248414E+03  0.40149134916E+02  0.15018434120E+03  0.80777617658E+02 0.  0.
          6    2    1    2  501    0  0.94386763569E+01 -0.95433609270E+02  0.21180439457E+03  0.28916182896E+03  0.17192091025E+03 0.  0.
         24    2    5    5    0    0 -0.22716946547E+02 -0.34495942898E+02  0.32588859441E+02  0.97100168814E+02  0.81611146832E+02 0.  0.
          5    1    5    5  501    0  0.32155622904E+02 -0.60937666371E+02  0.17921553513E+03  0.19206166015E+03  0.47000000000E+01 0. -1.
        -13    1    6    6    0    0  0.59132438851E+01  0.23235598371E+02  0.20478262305E+02  0.31531233910E+02  0.00000000000E+00 0.  1.
         14    1    6    6    0    0 -0.28630190432E+02 -0.57731541269E+02  0.12110597136E+02  0.65568934904E+02  0.00000000000E+00 0. -1.
         -5    1    3    3    0  503 -0.32390683334E+02 -0.22428874869E+02 -0.23991920789E+02  0.46367154947E+02  0.47000000000E+01 0.  1.
         13    1    4    4    0    0  0.46801395218E+02  0.10054724724E+03  0.15943323403E+02  0.11204601324E+03  0.00000000000E+00 0. -1.
        -14    1    4    4    0    0 -0.23849388242E+02  0.17315236901E+02  0.24205811513E+02  0.38138327958E+02  0.00000000000E+00 0.  1.
</event>
<event>
12    1  0.8271773E-002  0.2557995E+03  0.7818608E-02  0.1110015E+00
         21   -1    0    0  503  502  0.00000000000E+00  0.00000000000E+00  0.10081942863E+04  0.10081942863E+04  0.00000000000E+00 0. -1.
         21   -1    0    0  501  503 -0.00000000000E+00 -0.00000000000E+00 -0.79373120335E+02  0.79373120335E+02  0.00000000000E+00 0.  1.
          6    2    1    2  501    0 -0.18700185356E+03 -0.22026620145E+02  0.22956285746E+03  0.34370406874E+03  0.17314305100E+03 0.  0.
         24    2    3    3    0    0 -0.19688512426E+03 -0.34449370312E+02  0.24100030358E+03  0.32358171959E+03  0.81691319331E+02 0.  0.
         -6    2    1    2    0  502  0.18700185356E+03  0.22026620145E+02  0.69925830854E+03  0.74386333793E+03  0.17004592976E+03 0.  0.
        -24    2    5    5    0    0  0.11223133409E+03  0.73620898226E+02  0.51945454694E+03  0.54235879010E+03  0.79398500312E+02 0.  0.
          5    1    3    3  501    0  0.98832707002E+01  0.12422750167E+02 -0.11437446123E+02  0.20122349149E+02  0.47000000000E+01 0. -1.
        -11    1    4    4    0    0 -0.11622461263E+03 -0.59771096894E+02  0.15880575879E+03  0.20566967114E+03  0.00000000000E+00 0.  1.
         12    1    4    4    0    0 -0.80660511638E+02  0.25321726582E+02  0.82194544798E+02  0.11791204845E+03  0.00000000000E+00 0. -1.
         -5    1    5    5    0  502  0.74770519472E+02 -0.51594278081E+02  0.17980376160E+03  0.20150454783E+03  0.47000000000E+01 0.  1.
         11    1    6    6    0    0  0.53840527642E+02  0.11416484605E+02  0.33029687871E+03  0.33485096180E+03  0.00000000000E+00 0. -1.
        -12    1    6    6    0    0  0.58390806449E+02  0.62204413621E+02  0.18915766823E+03  0.20750782829E+03  0.00000000000E+00 0.  1.
</event>
<event>
12    1  0.8271773E-002  0.1807358E+03  0.7818608E-02  0.1168190E+00
         21   -1    0    0  503  502  0.00000000000E+00  0.00000000000E+00  0.35079374803E+02  0.35079374803E+02  0.00000000000E+00 0. -1.
         21   -1    0    0  501  503 -0.00000000000E+00 -0.00000000000E+00 -0.12508673977E+04  0.12508673977E+04  0.00000000000E+00 0. -1.
          6    2    1    2  501    0  0.44941747012E+01 -0.52079905648E+02 -0.93886674658E+03  0.95526440279E+03  0.16830566603E+03 0.  0.
         24    2    3    3    0    0 -0.29244728502E+02  0.26506507155E+02 -0.40010627792E+03  0.40973798687E+03  0.79008450117E+02 0.  0.
         -6    2    1    2    0  502 -0.44941747012E+01  0.52079905648E+02 -0.27692127630E+03  0.33068236970E+03  0.17301133542E+03 0.  0.
        -24    2    5    5    0    0  0.31955849461E+02  0.75362812295E+02 -0.26060593251E+03  0.28421756101E+03  0.78507580121E+02 0.  0.
          5    1    3    3  501    0  0.33738903204E+02 -0.78586412802E+02 -0.53876046867E+03  0.54552641592E+03  0.47000000000E+01 0. -1.
        -13    1    4    4    0    0  0.14426211459E+02  0.23298297624E+02 -0.50996530520E+02  0.57892766166E+02  0.00000000000E+00 0.  1.
         14    1    4    4    0    0 -0.43670939962E+02  0.32082095302E+01 -0.34910974740E+03  0.35184522070E+03  0.00000000000E+00 0. -1.
         -5    1    5    5    0  502 -0.36450024162E+02 -0.23282906647E+02 -0.16315343790E+02  0.46464808688E+02  0.47000000000E+01 0.  1.
         11    1    6    6    0    0  0.37674712407E+02  0.47039411250E+02 -0.74228668045E+02  0.95613729796E+02  0.00000000000E+00 0. -1.
        -12    1    6    6    0    0 -0.57188629454E+01  0.28323401045E+02 -0.18637726446E+03  0.18860383121E+03  0.00000000000E+00 0.  1.
</event>
<event>
12    1  0.8271773E-002  0.1811486E+03  0.7818608E-02  0.1167021E+00
         21   -1    0    0  501  502  0.00000000000E+00  0.00000000000E+00  0.62849165962E+02  0.62849165962E+02  0.00000000000E+00 0. -1.
         21   -1    0    0  502  503 -0.00000000000E+00 -0.00000000000E+00 -0.57675247128E+03  0.57675247128E+03  0.00000000000E+00 0. -1.
         -6    2    1    2    0  503  0.31389125686E+02 -0.39679321973E+02 -0.15423346563E+03  0.23688931542E+03  0.17253654696E+03 0.  0.
        -24    2    3    3    0    0 -0.37430135424E+02 -0.39433419071E+02 -0.13391479392E+03  0.16497902695E+03  0.79554369624E+02 0.  0.
          6    2    1    2  501    0 -0.31389125686E+02  0.39679321973E+02 -0.35966983969E+03  0.40271232182E+03  0.17393991710E+03 0.  0.
         24    2    5    5    0    0  0.99510765881E+01  0.86171896749E+02 -0.25079710647E+03  0.27722951872E+03  0.80202230176E+02 0.  0.
          5    1    5    5  501    0 -0.41340202274E+02 -0.46492574776E+02 -0.10887273323E+03  0.12548280310E+03  0.47000000000E+01 0. -1.
        -11    1    6    6    0    0 -0.29965922059E+02  0.35390860371E+02 -0.60233246619E+02  0.76016534260E+02  0.00000000000E+00 0.  1.
         12    1    6    6    0    0  0.39916998648E+02  0.50781036377E+02 -0.19056385985E+03  0.20121298446E+03  0.00000000000E+00 0. -1.
         -5    1    3    3    0  503  0.68819261109E+02 -0.24590290180E+00 -0.20318671709E+02  0.71910288471E+02  0.47000000000E+01 0.  1.
         11    1    4    4    0    0 -0.29644561337E+02  0.94284087036E+01 -0.11886517464E+02  0.33301414459E+02  0.00000000000E+00 0. -1.
        -12    1    4    4    0    0 -0.77855740863E+01 -0.48861827774E+02 -0.12202827645E+03  0.13167761249E+03  0.00000000000E+00 0.  1.
</event>
<event>
12    1  0.8271773E-002  0.1888755E+03  0.7818608E-02  0.1160158E+00
         21   -1    0    0  501  502  0.00000000000E+00  0.00000000000E+00  0.82867332904E+03  0.82867332904E+03  0.00000000000E+00 0. -1.
         21   -1    0    0  502  503 -0.00000000000E+00 -0.00000000000E+00 -0.43913014722E+02  0.43913014722E+02  0.00000000000E+00 0. -1.
         -6    2    1    2    0  503  0.70567878940E+02  0.10145712627E+02  0.47695166529E+03  0.51298814284E+03  0.17490335230E+03 0.  0.
        -24    2    3    3    0    0 -0.17247130684E+02  0.20641762882E+02  0.33025311968E+03  0.34162829845E+03  0.83181881130E+02 0.  0.
          6    2    1    2  501    0 -0.70567878940E+02 -0.10145712627E+02  0.30780864903E+03  0.35959820093E+03  0.17170305958E+03 0.  0.
         24    2    5    5    0    0 -0.80049955983E+02 -0.37886559294E+01  0.99573667443E+02  0.15099757890E+03  0.80392811976E+02 0.  0.
          5    1    5    5  501    0  0.94820770433E+01 -0.63570566977E+01  0.20823498159E+03  0.20860062203E+03  0.47000000000E+01 0. -1.
        -13    1    6    6    0    0 -0.20049385659E+02  0.34438887929E+02  0.21158757319E+02  0.45118819559E+02  0.00000000000E+00 0.  1.
         14    1    6    6    0    0 -0.60000570324E+02 -0.38227543859E+02  0.78414910124E+02  0.10587875934E+03  0.00000000000E+00 0. -1.
         -5    1    3    3    0  503  0.87815009624E+02 -0.10496050255E+02  0.14669854561E+03  0.17135984439E+03  0.47000000000E+01 0.  1.
         11    1    4    4    0    0  0.18156764707E+02  0.42036712891E+02  0.18676032623E+03  0.19229189476E+03  0.00000000000E+00 0. -1.
        -12    1    4    4    0    0 -0.35403895391E+02 -0.21394950008E+02  0.14349279345E+03  0.14933640369E+03  0.00000000000E+00 0.  1.
</event>
<event>
12    1  0.8271773E-002  0.2113108E+03  0.7818608E-02  0.1140764E+00
         21   -1    0    0  501  502  0.00000000000E+00  0.00000000000E+00  0.13911536150E+04  0.13911536150E+04  0.00000000000E+00 0. -1.
         21   -1    0    0  502  503 -0.00000000000E+00 -0.00000000000E+00 -0.31920889195E+02  0.31920889195E+02  0.00000000000E+00 0. -1.
         -6    2    1    2    0  503  0.11563218062E+03  0.39916076670E+02  0.68698514587E+03  0.71874949286E+03  0.17230249116E+03 0.  0.
        -24    2    3    3    0    0  0.96435211695E+02  0.85506443447E+02  0.59630574657E+03  0.61534809723E+03  0.80384298542E+02 0.  0.
          6    2    1    2  501    0 -0.11563218062E+03 -0.39916076670E+02  0.67224757990E+03  0.70432501131E+03  0.17085906034E+03 0.  0.
         24    2    5    5    0    0 -0.50798468242E+02  0.37513929556E+02  0.24327056390E+03  0.26359585822E+03  0.79463387317E+02 0.  0.
          5    1    5    5  501    0 -0.64833712374E+02 -0.77430006227E+02  0.42897701600E+03  0.44072915308E+03  0.47000000000E+01 0. -1.
        -13    1    6    6    0    0 -0.81637753542E+01  0.34863896855E+02  0.19854629405E+03  0.20174927364E+03  0.00000000000E+00 0.  1.
         14    1    6    6    0    0 -0.42634692888E+02  0.26500327014E+01  0.44724269851E+02  0.61846584584E+02  0.00000000000E+00 0. -1.
         -5    1    3    3    0  503  0.19196968921E+02 -0.45590366776E+02  0.90679399308E+02  0.10340139563E+03  0.47000000000E+01 0.  1.
         13    1    4    4    0    0  0.34681570059E+02  0.62909892557E+02  0.17872753122E+03  0.19262397644E+03  0.00000000000E+00 0. -1.
        -14    1    4    4    0    0  0.61753641637E+02  0.22596550890E+02  0.41757821534E+03  0.42272412079E+03  0.00000000000E+00 0.  1.
</event>
<event>
12    1  0.8271773E-002  0.2695290E+03  0.7818608E-02  0.1101648E+00
         21   -1    0    0  503  502  0.00000000000E+00  0.00000000000E+00  0.25391289189E+03  0.25391289189E+03  0.00000000000E+00 0. -1.
         21   -1    0    0  501  503 -0.00000000000E+00 -0.00000000000E+00 -0.38520064922E+03  0.38520064922E+03  0.00000000000E+00 0. -1.
          6    2    1    2  501    0  0.16082304815E+03  0.12882809834E+03 -0.22838152213E+03  0.35327608481E+03  0.17373871390E+03 0.  0.
         24    2    3    3    0    0  0.73842843274E+02  0.92007457199E+02 -0.58342011650E+02  0.15870774006E+03  0.88691706195E+02 0.  0.
         -6    2    1    2    0  502 -0.16082304815E+03 -0.12882809834E+03  0.97093764798E+02  0.28583745630E+03  0.17267055487E+03 0.  0.
        -24    2    5    5    0    0 -0.69052909778E+02 -0.19237471678E+02 -0.83713877157E+01  0.10813868831E+03  0.80532671082E+02 0.  0.
          5    1    3    3  501    0  0.86980204881E+02  0.36820641137E+02 -0.17003951049E+03  0.19456834476E+03  0.47000000000E+01 0. -1.
        -11    1    4    4    0    0  0.54210783302E+02  0.24648343004E+02  0.10434728392E+02  0.60458526245E+02  0.00000000000E+00 0.  1.
         12    1    4    4    0    0  0.19632059971E+02  0.67359114195E+02 -0.68776740042E+02  0.98249213812E+02  0.00000000000E+00 0. -1.
         -5    1    5    5    0  502 -0.91770138376E+02 -0.10959062666E+03  0.10546515251E+03  0.17769876799E+03  0.47000000000E+01 0.  1.
         11    1    6    6    0    0 -0.50477964636E+02 -0.28099545445E+02  0.29626179823E+02  0.64925494984E+02  0.00000000000E+00 0. -1.
        -12    1    6    6    0    0 -0.18574945143E+02  0.88620737676E+01 -0.37997567539E+02  0.43213193326E+02  0.00000000000E+00 0.  1.
</event>
<event>
12    1  0.8271773E-002  0.2458440E+03  0.7818608E-02  0.1115990E+00
         21   -1    0    0  503  502  0.00000000000E+00  0.00000000000E+00  0.10972626850E+04  0.10972626850E+04  0.00000000000E+00 0.  1.
         21   -1    0    0  501  503 -0.00000000000E+00 -0.00000000000E+00 -0.67198054044E+02  0.67198054044E+02  0.00000000000E+00 0. -1.
          6    2    1    2  501    0 -0.16987170982E+03 -0.43782150639E+02  0.26753503114E+03  0.36333770041E+03  0.17223825690E+03 0.  0.
         24    2    3    3    0    0 -0.14651597663E+03 -0.45334632746E+02  0.28527748891E+03  0.33359235992E+03  0.79865240141E+02 0.  0.
         -6    2    1    2    0  502  0.16987170982E+03  0.43782150639E+02  0.76252959980E+03  0.80112303862E+03  0.17196935169E+03 0.  0.
        -24    2    5    5    0    0  0.66000849126E+02  0.44723034699E+02  0.21300150888E+03  0.24184381169E+03  0.82234570278E+02 0.  0.
          5    1    3    3  501    0 -0.23355733195E+02  0.15524821077E+01 -0.17742457767E+02  0.29745340498E+02  0.47000000000E+01 0. -1.
        -11    1    4    4    0    0 -0.73437974741E+02  0.18082047560E+02  0.11232763524E+03  0.13541637352E+03  0.00000000000E+00 0.  1.
         12    1    4    4    0    0 -0.73078001886E+02 -0.63416680306E+02  0.17294985367E+03  0.19817598640E+03  0.00000000000E+00 0. -1.
         -5    1    5    5    0  502  0.10387086070E+03 -0.94088406065E+00  0.54952809092E+03  0.55927922693E+03  0.47000000000E+01 0.  1.
         13    1    6    6    0    0  0.72787258043E+02  0.38335886970E+02  0.21672111358E+03  0.23180954733E+03  0.00000000000E+00 0. -1.
        -14    1    6    6    0    0 -0.67864089176E+01  0.63871477294E+01 -0.37196046968E+01  0.10034264358E+02  0.00000000000E+00 0.  1.
</event>
<event>
12    1  0.8271773E-002  0.2019341E+03  0.7818608E-02  0.1150311E+00
         21   -1    0    0  503  502  0.00000000000E+00  0.00000000000E+00  0.35788857883E+02  0.35788857883E+02  0.00000000000E+00 0. -1.
         21   -1    0    0  501  503 -0.00000000000E+00 -0.00000000000E+00 -0.22255502404E+04  0.22255502404E+04  0.00000000000E+00 0. -1.
          6    2    1    2  501    0 -0.94221254173E+02  0.48060625186E+02 -0.19189607160E+04  0.19295563214E+04  0.17201714841E+03 0.  0.
         24    2    3    3    0    0 -0.11566605614E+03  0.71908641160E+02 -0.17732633167E+04  0.17802967168E+04  0.80275277806E+02 0.  0.
         -6    2    1    2    0  502  0.94221254173E+02 -0.48060625186E+02 -0.27080066650E+03  0.33178277690E+03  0.15987289213E+03 0.  0.
        -24    2    5    5    0    0  0.70076847125E+02 -0.72044693599E+02 -0.27009351210E+03  0.29742032651E+03  0.73533277940E+02 0.  0.
          5    1    3    3  501    0  0.21444801966E+02 -0.23848015974E+02 -0.14569739928E+03  0.14925960456E+03  0.47000000000E+01 0. -1.
        -11    1    4    4    0    0 -0.54040508741E+02  0.17966774768E+02 -0.34342484903E+03  0.34811464852E+03  0.00000000000E+00 0.  1.
         12    1    4    4    0    0 -0.61625547398E+02  0.53941866391E+02 -0.14298384677E+04  0.14321820683E+04  0.00000000000E+00 0. -1.
         -5    1    5    5    0  502  0.24144407047E+02  0.23984068412E+02 -0.70715439989E+00  0.34362450387E+02  0.47000000000E+01 0.  1.
         13    1    6    6    0    0  0.67852910716E+02 -0.59874990177E+02 -0.13974670863E+03  0.16648776085E+03  0.00000000000E+00 0. -1.
        -14    1    6    6    0    0  0.22239364090E+01 -0.12169703421E+02 -0.13034680347E+03  0.13093256566E+03  0.00000000000E+00 0.  1.
</event>
<event>
12    1  0.8271773E-002  0.1885923E+03  0.7818608E-02  0.1159764E+00
         21   -1    0    0  503  502  0.00000000000E+00  0.00000000000E+00  0.15663644192E+03  0.15663644192E+03  0.00000000000E+00 0. -1.
         21   -1    0    0  501  503 -0.00000000000E+00 -0.00000000000E+00 -0.30140576221E+03  0.30140576221E+03  0.00000000000E+00 0. -1.
          6    2    1    2  501    0  0.32930159542E+01  0.77474461820E+02 -0.18621480727E+03  0.26494947913E+03  0.17178223382E+03 0.  0.
         24    2    3    3    0    0 -0.12134514500E+02  0.11065516259E+03 -0.89650158721E+02  0.16157738933E+03  0.75354431416E+02 0.  0.
         -6    2    1    2    0  502 -0.32930159542E+01 -0.77474461820E+02  0.41445486981E+02  0.19309272501E+03  0.17191258206E+03 0.  0.
        -24    2    5    5    0    0  0.23882447908E+02 -0.66203803394E+02  0.87640069011E+02  0.13812397946E+03  0.80275382930E+02 0.  0.
          5    1    3    3  501    0  0.15427530454E+02 -0.33180700774E+02 -0.96564648545E+02  0.10337208979E+03  0.47000000000E+01 0. -1.
        -11    1    4    4    0    0 -0.14874647191E+02  0.75745229096E+01  0.89206186532E+01  0.18926329901E+02  0.00000000000E+00 0.  1.
         12    1    4    4    0    0  0.27401326909E+01  0.10308063968E+03 -0.98570777375E+02  0.14265105943E+03  0.00000000000E+00 0. -1.
         -5    1    5    5    0  502 -0.27175463863E+02 -0.11270658426E+02 -0.46194582030E+02  0.54968745542E+02  0.47000000000E+01 0.  1.
         11    1    6    6    0    0 -0.28020825850E+02 -0.39381264993E+02  0.39273729824E+02  0.62277416196E+02  0.00000000000E+00 0. -1.
        -12    1    6    6    0    0  0.51903273758E+02 -0.26822538401E+02  0.48366339187E+02  0.75846563267E+02  0.00000000000E+00 0.  1.
</event>
<event>
12    1  0.8271773E-002  0.1927422E+03  0.7818608E-02  0.1156214E+00
         21   -1    0    0  503  502  0.00000000000E+00  0.00000000000E+00  0.45421026053E+03  0.45421026053E+03  0.00000000000E+00 0. -1.
         21   -1    0    0  501  503 -0.00000000000E+00 -0.00000000000E+00 -0.82995566047E+02  0.82995566047E+02  0.00000000000E+00 0. -1.
          6    2    1    2  501    0  0.66725280501E+02 -0.54083502507E+02  0.22240130656E+03  0.29370018492E+03  0.17152308638E+03 0.  0.
         24    2    3    3    0    0 -0.10789857728E+02 -0.73731704370E+02  0.14047169440E+03  0.17911746441E+03  0.82449887018E+02 0.  0.
         -6    2    1    2    0  502 -0.66725280501E+02  0.54083502507E+02  0.14881338792E+03  0.24350564166E+03  0.17254647140E+03 0.  0.
        -24    2    5    5    0    0 -0.32079816127E+00 -0.30377537059E+02  0.47078254873E+02  0.95467302786E+02  0.77296482133E+02 0.  0.
          5    1    3    3  501    0  0.77515138229E+02  0.19648201864E+02  0.81929612163E+02  0.11458272051E+03  0.47000000000E+01 0. -1.
        -13    1    4    4    0    0 -0.35832962988E+02 -0.19584285463E+02  0.21791067156E+02  0.46286024688E+02  0.00000000000E+00 0.  1.
         14    1    4    4    0    0  0.25043105259E+02 -0.54147418907E+02  0.11868062724E+03  0.13283143972E+03  0.00000000000E+00 0. -1.
         -5    1    5    5    0  502 -0.66404482339E+02  0.84461039566E+02  0.10173513305E+03  0.14803833887E+03  0.47000000000E+01 0.  1.
         13    1    6    6    0    0 -0.34708144122E+02 -0.25210573077E+02  0.42513543565E+02  0.60395609523E+02  0.00000000000E+00 0. -1.
        -14    1    6    6    0    0  0.34387345961E+02 -0.51669639816E+01  0.45647113083E+01  0.35071693263E+02  0.00000000000E+00 0.  1.
</event>
<event>
12    1  0.8271773E-002  0.1830107E+03  0.7818608E-02  0.1165582E+00
         21   -1    0    0  503  502  0.00000000000E+00  0.00000000000E+00  0.25320522052E+02  0.25320522052E+02  0.00000000000E+00 0. -1.
         21   -1    0    0  501  503 -0.00000000000E+00 -0.00000000000E+00 -0.15927201198E+04  0.15927201198E+04  0.00000000000E+00 0. -1.
          6    2    1    2  501    0 -0.49438127141E+02  0.36702110143E+02 -0.43366506194E+03  0.46963003492E+03  0.16939837793E+03 0.  0.
         24    2    3    3    0    0  0.11277925014E+02  0.39147565098E+02 -0.37414247242E+03  0.38443937873E+03  0.78430369120E+02 0.  0.
         -6    2    1    2    0  502  0.49438127141E+02 -0.36702110143E+02 -0.11337345358E+04  0.11484106069E+04  0.17234195987E+03 0.  0.
        -24    2    5    5    0    0  0.39404411702E+02  0.17296030849E+02 -0.30364455564E+03  0.31649237787E+03  0.78201973984E+02 0.  0.
          5    1    3    3  501    0 -0.60716052155E+02 -0.24454549550E+01 -0.59522589520E+02  0.85190656192E+02  0.47000000000E+01 0. -1.
        -11    1    4    4    0    0  0.25145462637E+01  0.50239889164E+02 -0.12285179480E+03  0.13275139507E+03  0.00000000000E+00 0.  1.
         12    1    4    4    0    0  0.87633787503E+01 -0.11092324066E+02 -0.25129067762E+03  0.25168798366E+03  0.00000000000E+00 0. -1.
         -5    1    5    5    0  502  0.10033715440E+02 -0.53998140992E+02 -0.83008998014E+03  0.83191822903E+03  0.47000000000E+01 0.  1.
         13    1    6    6    0    0  0.18482012110E+02  0.48321758364E+02 -0.16861997431E+03  0.17637820965E+03  0.00000000000E+00 0. -1.
        -14    1    6    6    0    0  0.20922399592E+02 -0.31025727515E+02 -0.13502458133E+03  0.14011416822E+03  0.00000000000E+00 0.  1.
</event>
<event>
12    1  0.8271773E-002  0.2370110E+03  0.7818608E-02  0.1121833E+00
         21   -1    0    0  503  502  0.00000000000E+00  0.00000000000E+00  0.51969150652E+03  0.51969150652E+03  0.00000000000E+00 0.  1.
         21   -1    0    0  501  503 -0.00000000000E+00 -0.00000000000E+00 -0.20006176714E+03  0.20006176714E+03  0.00000000000E+00 0.  1.
          6    2    1    2  501    0 -0.12308933157E+03  0.10730467976E+03 -0.84269775665E+02  0.25154647648E+03  0.17178171292E+03 0.  0.
         24    2    3    3    0    0 -0.12053703551E+03  0.14148227045E+03 -0.69157166400E+02  0.21379594166E+03  0.79872280693E+02 0.  0.
         -6    2    1    2    0  502  0.12308933157E+03 -0.10730467976E+03  0.40389951504E+03  0.46820679718E+03  0.17151533118E+03 0.  0.
        -24    2    5    5    0    0  0.49834476562E+02 -0.42250505820E+01  0.91340940252E+02  0.13100265069E+03  0.79480821685E+02 0.  0.
          5    1    3    3  501    0 -0.25522960603E+01 -0.34177590692E+02 -0.15112609265E+02  0.37750534824E+02  0.47000000000E+01 0. -1.
        -13    1    4    4    0    0 -0.12734472293E+03  0.12077795164E+03 -0.75553418873E+02  0.19108194882E+03  0.00000000000E+00 0.  1.
         14    1    4    4    0    0  0.68076874113E+01  0.20704318807E+02  0.63962524731E+01  0.22713992842E+02  0.00000000000E+00 0. -1.
         -5    1    5    5    0  502  0.73254855013E+02 -0.10307962918E+03  0.31255857479E+03  0.33720414649E+03  0.47000000000E+01 0.  1.
         13    1    6    6    0    0 -0.20076329859E+02  0.31896958335E+01  0.76939328424E+01  0.21735449908E+02  0.00000000000E+00 0. -1.
        -14    1    6    6    0    0  0.69910806420E+02 -0.74147464155E+01  0.83647007410E+02  0.10926720078E+03  0.00000000000E+00 0.  1.
</event>
<event>
12    1  0.8271773E-002  0.1899918E+03  0.7818608E-02  0.1158787E+00
         21   -1    0    0  501  502  0.00000000000E+00  0.00000000000E+00  0.26177397109E+03  0.26177397109E+03  0.00000000000E+00 0.  1.
         21   -1    0    0  502  503 -0.00000000000E+00 -0.00000000000E+00 -0.14887358304E+03  0.14887358304E+03  0.00000000000E+00 0. -1.
         -6    2    1    2    0  503 -0.12000877449E+02  0.80027756012E+02  0.11454873681E+03  0.22064861753E+03  0.17034064846E+03 0.  0.
        -24    2    3    3    0    0 -0.26146837450E+02  0.47231171689E+02 -0.43694811994E+01  0.96393409574E+02  0.79738048356E+02 0.  0.
          6    2    1    2  501    0  0.12000877449E+02 -0.80027756012E+02 -0.16483487630E+01  0.18999893661E+03  0.17189652721E+03 0.  0.
         24    2    5    5    0    0 -0.33399959662E+02 -0.10608365541E+03 -0.39714044733E+01  0.13739064361E+03  0.80567472643E+02 0.  0.
          5    1    5    5  501    0  0.45400837111E+02  0.26055899402E+02  0.23230557103E+01  0.52608292995E+02  0.47000000000E+01 0. -1.
        -11    1    6    6    0    0 -0.15917986312E+02  0.59785137799E+01 -0.15986184152E+02  0.23338444657E+02  0.00000000000E+00 0.  1.
         12    1    6    6    0    0 -0.17481973350E+02 -0.11206216919E+03  0.12014779679E+02  0.11405219896E+03  0.00000000000E+00 0. -1.
         -5    1    3    3    0  503  0.14145960001E+02  0.32796584322E+02  0.11891821801E+03  0.12425520795E+03  0.47000000000E+01 0.  1.
         13    1    4    4    0    0  0.92669141259E+01  0.31159328894E+02 -0.34346220494E+02  0.47291038652E+02  0.00000000000E+00 0. -1.
        -14    1    4    4    0    0 -0.35413751575E+02  0.16071842796E+02  0.29976739295E+02  0.49102370923E+02  0.00000000000E+00 0.  1.
</event>
<event>
12    1  0.8271773E-002  0.1993273E+03  0.7818608E-02  0.1150961E+00
         21   -1    0    0  501  502  0.00000000000E+00  0.00000000000E+00  0.22982443265E+03  0.22982443265E+03  0.00000000000E+00 0.  1.
         21   -1    0    0  502  503 -0.00000000000E+00 -0.00000000000E+00 -0.34259213426E+03  0.34259213426E+03  0.00000000000E+00 0.  1.
         -6    2    1    2    0  503  0.21387805696E+02  0.10460000409E+03 -0.25917043109E+03  0.32510072762E+03  0.16468931858E+03 0.  0.
        -24    2    3    3    0    0  0.15226775140E+02  0.13147659222E+03 -0.25124866991E+03  0.29602920225E+03  0.83602903474E+02 0.  0.
          6    2    1    2  501    0 -0.21387805696E+02 -0.10460000409E+03  0.14640272948E+03  0.24731583929E+03  0.16832339729E+03 0.  0.
         24    2    5    5    0    0 -0.59481378019E+02 -0.11894822131E+03  0.13308015346E+03  0.20422787552E+03  0.79447996903E+02 0.  0.
          5    1    5    5  501    0  0.38093572323E+02  0.14348217219E+02  0.13322576022E+02  0.43087963766E+02  0.47000000000E+01 0. -1.
        -11    1    6    6    0    0  0.12421673513E+02 -0.40960436900E+01  0.33812904041E+02  0.36254489742E+02  0.00000000000E+00 0.  1.
         12    1    6    6    0    0 -0.71903051531E+02 -0.11485217762E+03  0.99267249421E+02  0.16797338578E+03  0.00000000000E+00 0. -1.
         -5    1    3    3    0  503  0.61610305557E+01 -0.26876588129E+02 -0.79217611802E+01  0.29071525367E+02  0.47000000000E+01 0.  1.
         13    1    4    4    0    0 -0.20136481293E+02 -0.24692387021E+00 -0.30669487174E+02  0.36690002641E+02  0.00000000000E+00 0. -1.
        -14    1    4    4    0    0  0.35363256433E+02  0.13172351609E+03 -0.22057918274E+03  0.25933919961E+03  0.00000000000E+00 0.  1.
</event>
<event>
12    1  0.8271773E-002  0.2050675E+03  0.7818608E-02  0.1145580E+00
         21   -1    0    0  501  502  0.00000000000E+00  0.00000000000E+00  0.28512715008E+02  0.28512715008E+02  0.00000000000E+00 0. -1.
         21   -1    0    0  502  503 -0.00000000000E+00 -0.00000000000E+00 -0.18094001817E+04  0.18094001817E+04  0.00000000000E+00 0. -1.
         -6    2    1    2    0  503  0.10941945474E+03  0.12876508686E+02 -0.12869568997E+04  0.13031925223E+04  0.17295741422E+03 0.  0.
        -24    2    3    3    0    0  0.13602429439E+02  0.18870115057E+01 -0.93021436463E+03  0.93361303469E+03  0.78396093543E+02 0.  0.
          6    2    1    2  501    0 -0.10941945474E+03 -0.12876508686E+02 -0.49393056705E+03  0.53472037439E+03  0.17268483481E+03 0.  0.
         24    2    5    5    0    0 -0.11814479863E+03  0.40686743669E+02 -0.31709904288E+03  0.34968894039E+03  0.78210916642E+02 0.  0.
          5    1    5    5  501    0  0.87253438863E+01 -0.53563252355E+02 -0.17683152417E+03  0.18503143400E+03  0.47000000000E+01 0. -1.
        -13    1    6    6    0    0 -0.63072972805E+01  0.88261618504E+01 -0.12259133329E+03  0.12307037877E+03  0.00000000000E+00 0.  1.
         14    1    6    6    0    0 -0.11183750135E+03  0.31860581819E+02 -0.19450770958E+03  0.22661856162E+03  0.00000000000E+00 0. -1.
         -5    1    3    3    0  503  0.95817025306E+02  0.10989497180E+02 -0.35674253505E+03  0.36957948766E+03  0.47000000000E+01 0.  1.
         13    1    4    4    0    0  0.40410108550E+02 -0.25249105561E+01 -0.28889749386E+03  0.29172095229E+03  0.00000000000E+00 0. -1.
        -14    1    4    4    0    0 -0.26807679112E+02  0.44119220618E+01 -0.64131687076E+03  0.64189208240E+03  0.00000000000E+00 0.  1.
</event>
<event>
12    1  0.8271773E-002  0.1724487E+03  0.7818608E-02  0.1175391E+00
         21   -1    0    0  503  502  0.00000000000E+00  0.00000000000E+00  0.10952719528E+03  0.10952719528E+03  0.00000000000E+00 0. -1.
         21   -1    0    0  501  503 -0.00000000000E+00 -0.00000000000E+00 -0.31371642129E+03  0.31371642129E+03  0.00000000000E+00 0. -1.
          6    2    1    2  501    0  0.30239618374E+01 -0.10616272535E+02 -0.18019481644E+03  0.24941679304E+03  0.17209507602E+03 0.  0.
         24    2    3    3    0    0 -0.78974972525E+01  0.60518745198E+02 -0.92918358527E+02  0.13619692234E+03  0.78682217303E+02 0.  0.
         -6    2    1    2    0  502 -0.30239618374E+01  0.10616272535E+02 -0.23994409576E+02  0.17382682353E+03  0.17180856585E+03 0.  0.
        -24    2    5    5    0    0 -0.62571571868E+01  0.19960234991E+02  0.52191508933E+02  0.96858340589E+02  0.78867113172E+02 0.  0.
          5    1    3    3  501    0  0.10921459090E+02 -0.71135017733E+02 -0.87276457914E+02  0.11321987071E+03  0.47000000000E+01 0. -1.
        -11    1    4    4    0    0  0.26581135415E+02  0.29262414912E+02 -0.94732124865E+01  0.40652028747E+02  0.00000000000E+00 0.  1.
         12    1    4    4    0    0 -0.34478632668E+02  0.31256330286E+02 -0.83445146040E+02  0.95544893591E+02  0.00000000000E+00 0. -1.
         -5    1    5    5    0  502  0.32331953494E+01 -0.93439624556E+01 -0.76185918509E+02  0.76968482937E+02  0.47000000000E+01 0.  1.
         11    1    6    6    0    0 -0.32930559640E+02 -0.39016317721E+01  0.51267455926E+02  0.61057321640E+02  0.00000000000E+00 0. -1.
        -12    1    6    6    0    0  0.26673402454E+02  0.23861866763E+02  0.92405300672E+00  0.35801018950E+02  0.00000000000E+00 0.  1.
</event>
<event>
12    1  0.8271773E-002  0.2606899E+03  0.7818608E-02  0.1107987E+00
         21   -1    0    0  503  502  0.00000000000E+00  0.00000000000E+00  0.68277269006E+02  0.68277269006E+02  0.00000000000E+00 0. -1.
         21   -1    0    0  501  503 -0.00000000000E+00 -0.00000000000E+00 -0.11822845714E+04  0.11822845714E+04  0.00000000000E+00 0.  1.
          6    2    1    2  501    0 -0.50484114011E+02 -0.17851538312E+03 -0.81830263774E+03  0.85635320107E+03  0.17118764633E+03 0.  0.
         24    2    3    3    0    0 -0.48674143101E+02 -0.17289691572E+03 -0.82459380126E+03  0.84652915358E+03  0.66288423684E+02 0.  0.
         -6    2    1    2    0  502  0.50484114011E+02  0.17851538312E+03 -0.29570466461E+03  0.39420863930E+03  0.18314697608E+03 0.  0.
        -24    2    5    5    0    0  0.90616126709E+02  0.57725214087E+02 -0.13286098412E+03  0.18746967913E+03  0.77132073280E+02 0.  0.
          5    1    3    3  501    0 -0.18099709104E+01 -0.56184674068E+01  0.62911635129E+01  0.98240474879E+01  0.47000000000E+01 0. -1.
        -13    1    4    4    0    0  0.30401249688E+01 -0.73756031983E+02 -0.23142625569E+03  0.24291419562E+03  0.00000000000E+00 0.  1.
         14    1    4    4    0    0 -0.51714268070E+02 -0.99140883735E+02 -0.59316754557E+03  0.60361495796E+03  0.00000000000E+00 0. -1.
         -5    1    5    5    0  502 -0.40132012697E+02  0.12079016904E+03 -0.16284368049E+03  0.20673896018E+03  0.47000000000E+01 0.  1.
         11    1    6    6    0    0  0.59152442455E+01 -0.32665553250E+01  0.90584307227E+01  0.11301135577E+02  0.00000000000E+00 0. -1.
        -12    1    6    6    0    0  0.84700882463E+02  0.60991769412E+02 -0.14191941485E+03  0.17616854355E+03  0.00000000000E+00 0.  1.
</event>
<event>
12    1  0.8271773E-002  0.2896233E+03  0.7818608E-02  0.1090844E+00
         21   -1    0    0  503  502  0.00000000000E+00  0.00000000000E+00  0.64466694745E+03  0.64466694745E+03  0.00000000000E+00 0. -1.
         21   -1    0    0  501  503 -0.00000000000E+00 -0.00000000000E+00 -0.40038243644E+03  0.40038243644E+03  0.00000000000E+00 0. -1.
          6    2    1    2  501    0 -0.22781995257E+03  0.48267722312E+02 -0.30812475675E+03  0.42132053961E+03  0.16834021376E+03 0.  0.
         24    2    3    3    0    0 -0.11602565022E+03  0.62873824306E+02 -0.97047894956E+02  0.18197385415E+03  0.79253519721E+02 0.  0.
         -6    2    1    2    0  502  0.22781995257E+03 -0.48267722312E+02  0.55240926776E+03  0.62372884427E+03  0.17219166140E+03 0.  0.
        -24    2    5    5    0    0  0.17414249317E+03 -0.97728247509E+02  0.42799190730E+03  0.47940496272E+03  0.82314198521E+02 0.  0.
          5    1    3    3  501    0 -0.11179430236E+03 -0.14606101995E+02 -0.21107686180E+03  0.23934668546E+03  0.47000000000E+01 0. -1.
        -13    1    4    4    0    0 -0.29743363620E+01  0.34186918463E+02 -0.38147157379E+02  0.51310795032E+02  0.00000000000E+00 0.  1.
         14    1    4    4    0    0 -0.11305131386E+03  0.28686905843E+02 -0.58900737577E+02  0.13066305912E+03  0.00000000000E+00 0. -1.
         -5    1    5    5    0  502  0.53677459404E+02  0.49460525198E+02  0.12441736046E+03  0.14432388155E+03  0.47000000000E+01 0.  1.
         11    1    6    6    0    0  0.21235417464E+02 -0.46268018595E+02  0.14470045713E+03  0.15339457224E+03  0.00000000000E+00 0. -1.
        -12    1    6    6    0    0  0.15290707571E+03 -0.51460228914E+02  0.28329145018E+03  0.32601039048E+03  0.00000000000E+00 0.  1.
</event>
<event>
12    1  0.8271773E-002  0.1892341E+03  0.7818608E-02  0.1159210E+00
         21   -1    0    0  501  502  0.00000000000E+00  0.00000000000E+00  0.24703529838E+03  0.24703529838E+03  0.00000000000E+00 0.  1.
         21   -1    0    0  502  503 -0.00000000000E+00 -0.00000000000E+00 -0.42990073699E+03  0.42990073699E+03  0.00000000000E+00 0.  1.
         -6    2    1    2    0  503  0.73862172770E+02  0.26487093944E+02 -0.36710306131E+03  0.41300629338E+03  0.17219858894E+03 0.  0.
        -24    2    3    3    0    0  0.30985419159E+00  0.63479653121E+02 -0.18002826982E+03  0.20856202074E+03  0.84012952513E+02 0.  0.
          6    2    1    2  501    0 -0.73862172770E+02 -0.26487093944E+02  0.18423762270E+03  0.26392974199E+03  0.17192504290E+03 0.  0.
         24    2    5    5    0    0 -0.72414949362E+02 -0.45642634456E+02  0.20480845880E+03  0.23539417671E+03  0.78337338877E+02 0.  0.
          5    1    5    5  501    0 -0.14472234084E+01  0.19155540512E+02 -0.20570836100E+02  0.28535565278E+02  0.47000000000E+01 0. -1.
        -11    1    6    6    0    0 -0.74980358244E+01  0.12830583493E+02  0.89494480245E+02  0.90719933908E+02  0.00000000000E+00 0.  1.
         12    1    6    6    0    0 -0.64916913537E+02 -0.58473217949E+02  0.11531397856E+03  0.14467424281E+03  0.00000000000E+00 0. -1.
         -5    1    3    3    0  503  0.73552318579E+02 -0.36992559177E+02 -0.18707479149E+03  0.20444427264E+03  0.47000000000E+01 0.  1.
         11    1    4    4    0    0  0.10279921936E+02  0.29516324566E+02 -0.71042637030E+01  0.32052469073E+02  0.00000000000E+00 0. -1.
        -12    1    4    4    0    0 -0.99700677444E+01  0.33963328554E+02 -0.17292400612E+03  0.17650955167E+03  0.00000000000E+00 0.  1.
</event>
<event>
12    1  0.8271773E-002  0.1904817E+03  0.7818608E-02  0.1164134E+00
         21   -1    0    0  503  502  0.00000000000E+00  0.00000000000E+00  0.21225177045E+03  0.21225177045E+03  0.00000000000E+00 0. -1.
         21   -1    0    0  501  503 -0.00000000000E+00 -0.00000000000E+00 -0.15144109634E+03  0.15144109634E+03  0.00000000000E+00 0.  1.
          6    2    1    2  501    0  0.45344130892E+02 -0.19368101116E+02  0.56321814892E+01  0.16538009735E+03  0.15775817438E+03 0.  0.
         24    2    3    3    0    0  0.16612629322E+02 -0.60399303889E+02 -0.24545679185E+02  0.10671279761E+03  0.82831608972E+02 0.  0.
         -6    2    1    2    0  502 -0.45344130892E+02  0.19368101116E+02  0.55178492625E+02  0.19831276944E+03  0.18398933373E+03 0.  0.
        -24    2    5    5    0    0  0.26134516407E+02 -0.34525505658E+02  0.59338784971E+02  0.10857361464E+03  0.79950702977E+02 0.  0.
          5    1    3    3  501    0  0.28731501570E+02  0.41031202773E+02  0.30177860674E+02  0.58667299736E+02  0.47000000000E+01 0. -1.
        -13    1    4    4    0    0  0.60686418932E+00 -0.18608604253E+02 -0.51299981768E+02  0.54574138250E+02  0.00000000000E+00 0.  1.
         14    1    4    4    0    0  0.16005765132E+02 -0.41790699637E+02  0.26754302583E+02  0.52138659364E+02  0.00000000000E+00 0. -1.
         -5    1    5    5    0  502 -0.71478647299E+02  0.53893606775E+02 -0.41602923457E+01  0.89739154795E+02  0.47000000000E+01 0.  1.
         13    1    6    6    0    0  0.19483356048E+02  0.10038413554E+02  0.59613888217E+02  0.63515246815E+02  0.00000000000E+00 0. -1.
        -14    1    6    6    0    0  0.66511603588E+01 -0.44563919213E+02 -0.27510324631E+00  0.45058367830E+02  0.00000000000E+00 0.  1.
</event>
<event>
12    1  0.8271773E-002  0.2200672E+03  0.7818608E-02  0.1134253E+00
         21   -1    0    0  501  502  0.00000000000E+00  0.00000000000E+00  0.95342938293E+02  0.95342938293E+02  0.00000000000E+00 0.  1.
         21   -1    0    0  502  503 -0.00000000000E+00 -0.00000000000E+00 -0.67577868635E+03  0.67577868635E+03  0.00000000000E+00 0.  1.
         -6    2    1    2    0  503  0.94187747916E+02  0.99068240681E+02 -0.48639175348E+03  0.53386001344E+03  0.17246370032E+03 0.  0.
        -24    2    3    3    0    0  0.12474389465E+03  0.10790911756E+03 -0.44734297142E+03  0.48327605761E+03  0.78959463460E+02 0.  0.
          6    2    1    2  501    0 -0.94187747916E+02 -0.99068240681E+02 -0.94043994582E+02  0.23726161121E+03  0.16959643589E+03 0.  0.
         24    2    5    5    0    0 -0.62347600462E+02 -0.13539872634E+03 -0.68331835069E+02  0.18233525756E+03  0.79729969824E+02 0.  0.
          5    1    5    5  501    0 -0.31840147454E+02  0.36330485658E+02 -0.25712159513E+02  0.54926353646E+02  0.47000000000E+01 0. -1.
        -13    1    6    6    0    0 -0.39298658747E+02 -0.71566939675E+02  0.57721792589E+01  0.81850653554E+02  0.00000000000E+00 0.  1.
         14    1    6    6    0    0 -0.23048941715E+02 -0.63831786664E+02 -0.74104014328E+02  0.10048460401E+03  0.00000000000E+00 0. -1.
         -5    1    3    3    0  503 -0.30556146738E+02 -0.88408768804E+01 -0.39048782052E+02  0.50583955828E+02  0.47000000000E+01 0.  1.
         11    1    4    4    0    0  0.69603964035E+02  0.53786029341E+02 -0.13213415541E+03  0.15873589319E+03  0.00000000000E+00 0. -1.
        -12    1    4    4    0    0  0.55139930619E+02  0.54123088220E+02 -0.31520881601E+03  0.32454016441E+03  0.00000000000E+00 0.  1.
</event>
<event>
12    1  0.8271773E-002  0.1873600E+03  0.7818608E-02  0.1161084E+00
         21   -1    0    0  501  502  0.00000000000E+00  0.00000000000E+00  0.62081775505E+03  0.62081775505E+03  0.00000000000E+00 0.  1.
         21   -1    0    0  502  503 -0.00000000000E+00 -0.00000000000E+00 -0.86422959295E+02  0.86422959295E+02  0.00000000000E+00 0.  1.
         -6    2    1    2    0  503  0.65907224343E+02  0.30558761872E+02  0.58720169227E+02  0.19634614651E+03  0.17270249224E+03 0.  0.
        -24    2    3    3    0    0  0.23972504176E+02  0.52039465896E+02 -0.24109344764E+02  0.10093776224E+03  0.79525998099E+02 0.  0.
          6    2    1    2  501    0 -0.65907224343E+02 -0.30558761872E+02  0.47567462653E+03  0.51089456784E+03  0.17166627210E+03 0.  0.
         24    2    5    5    0    0 -0.88072373802E+02 -0.66113992472E+02  0.28704794670E+03  0.31761347043E+03  0.79711917953E+02 0.  0.
          5    1    5    5  501    0  0.22165149460E+02  0.35555230600E+02  0.18862667982E+03  0.19328109741E+03  0.47000000000E+01 0. -1.
        -11    1    6    6    0    0 -0.46694548938E+02  0.92298783822E+01  0.13218925879E+03  0.14049758608E+03  0.00000000000E+00 0.  1.
         12    1    6    6    0    0 -0.41377824864E+02 -0.75343870854E+02  0.15485868791E+03  0.17711588435E+03  0.00000000000E+00 0. -1.
         -5    1    3    3    0  503  0.41934720166E+02 -0.21480704025E+02  0.82829513991E+02  0.95408384269E+02  0.47000000000E+01 0.  1.
         11    1    4    4    0    0 -0.21394172509E+02  0.23246173142E+02  0.14511014499E+02  0.34765855733E+02  0.00000000000E+00 0. -1.
        -12    1    4    4    0    0  0.45366676685E+02  0.28793292755E+02 -0.38620359262E+02  0.66171906506E+02  0.00000000000E+00 0.  1.
</event>
<event>
12    1  0.8271773E-002  0.1959205E+03  0.7818608E-02  0.1154089E+00
         21   -1    0    0  501  502  0.00000000000E+00  0.00000000000E+00  0.58713555948E+02  0.58713555948E+02  0.00000000000E+00 0. -1.
         21   -1    0    0  502  503 -0.00000000000E+00 -0.00000000000E+00 -0.72672621059E+03  0.72672621059E+03  0.00000000000E+00 0.  1.
         -6    2    1    2    0  503  0.80834014917E+01  0.83934591029E+02 -0.19590393992E+03  0.27429256170E+03  0.17247521207E+03 0.  0.
        -24    2    3    3    0    0  0.16340588273E+02  0.12019732146E+03 -0.11570244563E+03  0.18576269986E+03  0.80039451675E+02 0.  0.
          6    2    1    2  501    0 -0.80834014917E+01 -0.83934591029E+02 -0.47210871472E+03  0.51114720483E+03  0.17684589207E+03 0.  0.
         24    2    5    5    0    0  0.17282321152E+02  0.49148646523E+01 -0.33932206080E+03  0.34930768209E+03  0.80954069121E+02 0.  0.
          5    1    5    5  501    0 -0.25365722644E+02 -0.88849455681E+02 -0.13278665392E+03  0.16183952274E+03  0.47000000000E+01 0. -1.
        -11    1    6    6    0    0  0.31025336206E+02 -0.23074838365E+02 -0.27631340253E+03  0.27900558430E+03  0.00000000000E+00 0.  1.
         12    1    6    6    0    0 -0.13743015054E+02  0.27989703017E+02 -0.63008658269E+02  0.70302097797E+02  0.00000000000E+00 0. -1.
         -5    1    3    3    0  503 -0.82571867814E+01 -0.36262730427E+02 -0.80201494290E+02  0.88529861843E+02  0.47000000000E+01 0.  1.
         11    1    4    4    0    0 -0.29339921465E+02  0.76890575971E+02 -0.62390316049E+02  0.10327411680E+03  0.00000000000E+00 0. -1.
        -12    1    4    4    0    0  0.45680509738E+02  0.43306745485E+02 -0.53312129579E+02  0.82488583056E+02  0.00000000000E+00 0.  1.
</event>
<event>
12    1  0.8271773E-002  0.1892051E+03  0.7818608E-02  0.1159186E+00
         21   -1    0    0  501  502  0.00000000000E+00  0.00000000000E+00  0.17453353606E+03  0.17453353606E+03  0.00000000000E+00 0. -1.
         21   -1    0    0  502  503 -0.00000000000E+00 -0.00000000000E+00 -0.36700087583E+03  0.36700087583E+03  0.00000000000E+00 0.  1.
         -6    2    1    2    0  503  0.46543375368E+00 -0.77934843404E+02 -0.27607974724E+03  0.33467790837E+03  0.17238102874E+03 0.  0.
        -24    2    3    3    0    0  0.66609016295E+02 -0.37886949729E+02 -0.17517416891E+03  0.20746614383E+03  0.80523470932E+02 0.  0.
          6    2    1    2  501    0 -0.46543375368E+00  0.77934843404E+02  0.83612407471E+02  0.20685650351E+03  0.17240801002E+03 0.  0.
         24    2    5    5    0    0  0.99887513332E+01  0.11465458920E+03  0.33247769170E+02  0.14348208826E+03  0.78969902624E+02 0.  0.
          5    1    5    5  501    0 -0.10454185087E+02 -0.36719745794E+02  0.50364638301E+02  0.63374415249E+02  0.47000000000E+01 0. -1.
        -13    1    6    6    0    0 -0.24367176877E+02  0.50489085241E+02 -0.12601676013E+02  0.57460501875E+02  0.00000000000E+00 0.  1.
         14    1    6    6    0    0  0.34355928211E+02  0.64165503958E+02  0.45849445183E+02  0.86021586390E+02  0.00000000000E+00 0. -1.
         -5    1    3    3    0  503 -0.66143582541E+02 -0.40047893675E+02 -0.10090557833E+03  0.12721176454E+03  0.47000000000E+01 0.  1.
         11    1    4    4    0    0  0.35246798871E+02  0.20735205526E+02 -0.94212390071E+02  0.10270472249E+03  0.00000000000E+00 0. -1.
        -12    1    4    4    0    0  0.31362217424E+02 -0.58622155255E+02 -0.80961778838E+02  0.10476142134E+03  0.00000000000E+00 0.  1.
</event>
<event>
12    1  0.8271773E-002  0.1930769E+03  0.7818608E-02  0.1155770E+00
         21   -1    0    0  501  502  0.00000000000E+00  0.00000000000E+00  0.24040043140E+03  0.24040043140E+03  0.00000000000E+00 0. -1.
         21   -1    0    0  502  503 -0.00000000000E+00 -0.00000000000E+00 -0.45358442225E+03  0.45358442225E+03  0.00000000000E+00 0. -1.
         -6    2    1    2    0  503 -0.34006042796E+02  0.81339905963E+02 -0.38820723286E+03  0.43357070671E+03  0.17177342873E+03 0.  0.
        -24    2    3    3    0    0 -0.29842452695E+02  0.54386054952E+02 -0.39204698240E+03  0.40563006886E+03  0.83585294123E+02 0.  0.
          6    2    1    2  501    0  0.34006042796E+02 -0.81339905963E+02  0.17502324201E+03  0.26041414695E+03  0.17149286119E+03 0.  0.
         24    2    5    5    0    0  0.70097412317E+02 -0.38950396969E+02  0.33120680616E+02  0.10790878850E+03  0.64160318836E+02 0.  0.
          5    1    5    5  501    0 -0.36091369521E+02 -0.42389508994E+02  0.14190256139E+03  0.15250535845E+03  0.47000000000E+01 0. -1.
        -11    1    6    6    0    0  0.37258831211E+02 -0.32351303928E+02 -0.12887764185E+02  0.50999233668E+02  0.00000000000E+00 0.  1.
         12    1    6    6    0    0  0.32838581105E+02 -0.65990930409E+01  0.46008444800E+02  0.56909554830E+02  0.00000000000E+00 0. -1.
         -5    1    3    3    0  503 -0.41635901009E+01  0.26953851011E+02  0.38397495425E+01  0.27940637848E+02  0.47000000000E+01 0.  1.
         11    1    4    4    0    0  0.85863099293E+01  0.14023258696E+02 -0.28005772839E+03  0.28054002876E+03  0.00000000000E+00 0. -1.
        -12    1    4    4    0    0 -0.38428762624E+02  0.40362796256E+02 -0.11198925401E+03  0.12509004010E+03  0.00000000000E+00 0.  1.
</event>
<event>
12    1  0.8271773E-002  0.2447334E+03  0.7818608E-02  0.1117113E+00
         21   -1    0    0  503  502  0.00000000000E+00  0.00000000000E+00  0.71308362637E+03  0.71308362637E+03  0.00000000000E+00 0. -1.
         21   -1    0    0  501  503 -0.00000000000E+00 -0.00000000000E+00 -0.13579991138E+03  0.13579991138E+03  0.00000000000E+00 0.  1.
          6    2    1    2  501    0  0.12810914969E+03 -0.11637248801E+03  0.25161335052E+02  0.24602344843E+03  0.17303159883E+03 0.  0.
         24    2    3    3    0    0  0.13663693006E+03 -0.81923013746E+02 -0.29691427689E+02  0.18052226603E+03  0.79534123592E+02 0.  0.
         -6    2    1    2    0  502 -0.12810914969E+03  0.11637248801E+03  0.55212237994E+03  0.60286008932E+03  0.16925322646E+03 0.  0.
        -24    2    5    5    0    0 -0.67570055486E+02  0.14194940231E+03  0.39976553812E+03  0.43686654209E+03  0.79527007471E+02 0.  0.
          5    1    3    3  501    0 -0.85277803767E+01 -0.34449474269E+02  0.54852762741E+02  0.65501182400E+02  0.47000000000E+01 0. -1.
        -11    1    4    4    0    0  0.17789356797E+01 -0.34619829460E+02 -0.11129998868E+02  0.36408434171E+02  0.00000000000E+00 0.  1.
         12    1    4    4    0    0  0.13485799438E+03 -0.47303184286E+02 -0.18561428820E+02  0.14411383186E+03  0.00000000000E+00 0. -1.
         -5    1    5    5    0  502 -0.60539094202E+02 -0.25576914300E+02  0.15235684182E+03  0.16599354723E+03  0.47000000000E+01 0.  1.
         11    1    6    6    0    0 -0.83769459343E+02  0.96193493073E+02  0.29560668221E+03  0.32195313478E+03  0.00000000000E+00 0. -1.
        -12    1    6    6    0    0  0.16199403857E+02  0.45755909242E+02  0.10415885591E+03  0.11491340731E+03  0.00000000000E+00 0.  1.
</event>
<event>
12    1  0.8271773E-002  0.2002599E+03  0.7818608E-02  0.1150124E+00
         21   -1    0    0  501  502  0.00000000000E+00  0.00000000000E+00  0.18889658911E+03  0.18889658911E+03  0.00000000000E+00 0.  1.
         21   -1    0    0  502  503 -0.00000000000E+00 -0.00000000000E+00 -0.21709781090E+03  0.21709781090E+03  0.00000000000E+00 0.  1.
         -6    2    1    2    0  503  0.24754636409E+02 -0.96077948666E+02 -0.52672310156E+02  0.20707103138E+03  0.17395480889E+03 0.  0.
        -24    2    3    3    0    0 -0.77947234964E+01  0.96209331618E+01 -0.51725238968E+02  0.96370076580E+02  0.80363992213E+02 0.  0.
          6    2    1    2  501    0 -0.24754636409E+02  0.96077948666E+02  0.24471088368E+02  0.19892336864E+03  0.17066900181E+03 0.  0.
         24    2    5    5    0    0 -0.33041650080E+02  0.73172846485E+02 -0.48524750114E+02  0.12182731986E+03  0.77725339419E+02 0.  0.
          5    1    5    5  501    0  0.82870136714E+01  0.22905102181E+02  0.72995838482E+02  0.77096048778E+02  0.47000000000E+01 0. -1.
        -11    1    6    6    0    0 -0.35585931923E+02  0.16209177406E+02  0.97454218224E+01  0.40299742301E+02  0.00000000000E+00 0.  1.
         12    1    6    6    0    0  0.25442818428E+01  0.56963669079E+02 -0.58270171936E+02  0.81527577558E+02  0.00000000000E+00 0. -1.
         -5    1    3    3    0  503  0.32549359905E+02 -0.10569888183E+03 -0.94707118771E+00  0.11070095480E+03  0.47000000000E+01 0.  1.
         11    1    4    4    0    0 -0.29117130831E+02  0.23915660776E+02  0.10373474236E+01  0.37694060910E+02  0.00000000000E+00 0. -1.
        -12    1    4    4    0    0  0.21322407335E+02 -0.14294727615E+02 -0.52762586392E+02  0.58676015670E+02  0.00000000000E+00 0.  1.
</event>
<event>
12    1  0.8271773E-002  0.1731530E+03  0.7818608E-02  0.1174798E+00
         21   -1    0    0  503  502  0.00000000000E+00  0.00000000000E+00  0.36346830014E+03  0.36346830014E+03  0.00000000000E+00 0. -1.
         21   -1    0    0  501  503 -0.00000000000E+00 -0.00000000000E+00 -0.23389495537E+03  0.23389495537E+03  0.00000000000E+00 0. -1.
          6    2    1    2  501    0 -0.70061636438E+01  0.12394345147E+02 -0.17586802933E+03  0.24625589223E+03  0.17178386012E+03 0.  0.
         24    2    3    3    0    0  0.61245444922E+02  0.84576757180E+00 -0.12249386737E+03  0.15871994030E+03  0.80221892633E+02 0.  0.
         -6    2    1    2    0  502  0.70061636438E+01 -0.12394345147E+02  0.30544137410E+03  0.35110736328E+03  0.17256662892E+03 0.  0.
        -24    2    5    5    0    0  0.49474503873E+01  0.21278153934E+02  0.30664624298E+03  0.31702485745E+03  0.77431290874E+02 0.  0.
          5    1    3    3  501    0 -0.68251608566E+02  0.11548577575E+02 -0.53374161957E+02  0.87535951931E+02  0.47000000000E+01 0. -1.
        -11    1    4    4    0    0  0.36336668220E+02  0.32421034045E+02 -0.10320248471E+03  0.11411498480E+03  0.00000000000E+00 0.  1.
         12    1    4    4    0    0  0.24908776702E+02 -0.31575266473E+02 -0.19291382661E+02  0.44604955494E+02  0.00000000000E+00 0. -1.
         -5    1    5    5    0  502  0.20587132565E+01 -0.33672499081E+02 -0.12048688801E+01  0.34082505830E+02  0.47000000000E+01 0.  1.
         11    1    6    6    0    0  0.40060238449E+02  0.11176688102E+02  0.20044670483E+03  0.20471595575E+03  0.00000000000E+00 0. -1.
        -12    1    6    6    0    0 -0.35112788062E+02  0.10101465831E+02  0.10619953815E+03  0.11230890170E+03  0.00000000000E+00 0.  1.
</event>
<event>
12    1  0.8271773E-002  0.2011869E+03  0.7818608E-02  0.1151184E+00
         21   -1    0    0  503  502  0.00000000000E+00  0.00000000000E+00  0.15449768385E+03  0.15449768385E+03  0.00000000000E+00 0.  1.
         21   -1    0    0  501  503 -0.00000000000E+00 -0.00000000000E+00 -0.24894520663E+03  0.24894520663E+03  0.00000000000E+00 0.  1.
          6    2    1    2  501    0  0.65883884271E+02  0.30748076475E+02 -0.64145440487E+02  0.21116539134E+03  0.18759012381E+03 0.  0.
         24    2    3    3    0    0 -0.39080769088E+02  0.18259175585E+02 -0.52869157174E+02  0.10475676544E+03  0.79486653724E+02 0.  0.
         -6    2    1    2    0  502 -0.65883884271E+02 -0.30748076475E+02 -0.30302082298E+02  0.19227749913E+03  0.17540322137E+03 0.  0.
        -24    2    5    5    0    0 -0.56029338960E+02 -0.75659333381E+02 -0.60093906560E+02  0.13728862887E+03  0.79832753049E+02 0.  0.
          5    1    3    3  501    0  0.10496465336E+03  0.12488900890E+02 -0.11276283313E+02  0.10640862590E+03  0.47000000000E+01 0. -1.
        -11    1    4    4    0    0 -0.26749877151E+02 -0.42219333690E+01 -0.69231773476E+02  0.74339889075E+02  0.00000000000E+00 0.  1.
         12    1    4    4    0    0 -0.12330891938E+02  0.22481108954E+02  0.16362616302E+02  0.30416876369E+02  0.00000000000E+00 0. -1.
         -5    1    5    5    0  502 -0.98545453102E+01  0.44911256906E+02  0.29791824262E+02  0.54988870265E+02  0.47000000000E+01 0.  1.
         11    1    6    6    0    0 -0.16821861146E+02  0.12330122306E+02 -0.29673136252E+02  0.36269848959E+02  0.00000000000E+00 0. -1.
        -12    1    6    6    0    0 -0.39207477815E+02 -0.87989455687E+02 -0.30420770308E+02  0.10101877991E+03  0.00000000000E+00 0.  1.
</event>
<event>
12    1  0.8271773E-002  0.2009029E+03  0.7818608E-02  0.1149112E+00
         21   -1    0    0  503  502  0.00000000000E+00  0.00000000000E+00  0.33677389893E+03  0.33677389893E+03  0.00000000000E+00 0. -1.
         21   -1    0    0  501  503 -0.00000000000E+00 -0.00000000000E+00 -0.12264575842E+03  0.12264575842E+03  0.00000000000E+00 0. -1.
          6    2    1    2  501    0 -0.90062833477E+02  0.53005844252E+02  0.14385389217E+03  0.24658064845E+03  0.17084244319E+03 0.  0.
         24    2    3    3    0    0 -0.98849861828E+02  0.75446695127E+02  0.65346896522E+02  0.16432347842E+03  0.85255437859E+02 0.  0.
         -6    2    1    2    0  502  0.90062833477E+02 -0.53005844252E+02  0.70274248336E+02  0.21283900890E+03  0.17158391601E+03 0.  0.
        -24    2    5    5    0    0  0.14706438332E+02 -0.86879802193E+02  0.40571520192E+02  0.12491646700E+03  0.78700038874E+02 0.  0.
          5    1    3    3  501    0  0.87870283514E+01 -0.22440850876E+02  0.78506995651E+02  0.82257170031E+02  0.47000000000E+01 0. -1.
        -11    1    4    4    0    0 -0.38035949998E+02 -0.12581837472E+02  0.22818154361E+01  0.40127830843E+02  0.00000000000E+00 0.  1.
         12    1    4    4    0    0 -0.60813911830E+02  0.88028532600E+02  0.63065081086E+02  0.12419564757E+03  0.00000000000E+00 0. -1.
         -5    1    5    5    0  502  0.75356395145E+02  0.33873957941E+02  0.29702728144E+02  0.87922541905E+02  0.47000000000E+01 0.  1.
         11    1    6    6    0    0  0.44675743824E+02 -0.57325451598E+02  0.39705392571E+02  0.82816952893E+02  0.00000000000E+00 0. -1.
        -12    1    6    6    0    0 -0.29969305492E+02 -0.29554350594E+02  0.86612762094E+00  0.42099514104E+02  0.00000000000E+00 0.  1.
</event>
<event>
12    1  0.8271773E-002  0.2446501E+03  0.7818608E-02  0.1116963E+00
         21   -1    0    0  503  502  0.00000000000E+00  0.00000000000E+00  0.10390796561E+03  0.10390796561E+03  0.00000000000E+00 0.  1.
         21   -1    0    0  501  503 -0.00000000000E+00 -0.00000000000E+00 -0.63854519349E+03  0.63854519349E+03  0.00000000000E+00 0.  1.
          6    2    1    2  501    0  0.56781894560E+02 -0.16284933447E+03 -0.38721046863E+03  0.45802360210E+03  0.17352113351E+03 0.  0.
         24    2    3    3    0    0 -0.14849427898E+02 -0.15486431919E+03 -0.27217943497E+03  0.32219637533E+03  0.74333011443E+02 0.  0.
         -6    2    1    2    0  502 -0.56781894560E+02  0.16284933447E+03 -0.14742675925E+03  0.28442955701E+03  0.17152677420E+03 0.  0.
        -24    2    5    5    0    0 -0.42799529614E+02  0.19189885477E+02 -0.86869199891E+02  0.12783181816E+03  0.81207539094E+02 0.  0.
          5    1    3    3  501    0  0.71631322458E+02 -0.79850152813E+01 -0.11503103366E+03  0.13582722677E+03  0.47000000000E+01 0. -1.
        -11    1    4    4    0    0 -0.24426299429E+02 -0.28393246222E+02 -0.27059492170E+02  0.46206456814E+02  0.00000000000E+00 0.  1.
         12    1    4    4    0    0  0.95768715311E+01 -0.12647107297E+03 -0.24511994280E+03  0.27598991852E+03  0.00000000000E+00 0. -1.
         -5    1    5    5    0  502 -0.13982364946E+02  0.14365944899E+03 -0.60557559357E+02  0.15659773884E+03  0.47000000000E+01 0.  1.
         13    1    6    6    0    0  0.11581539494E+02  0.19560201243E+02 -0.65619437291E+02  0.69445259594E+02  0.00000000000E+00 0. -1.
        -14    1    6    6    0    0 -0.54381069108E+02 -0.37031576693E+00 -0.21249762600E+02  0.58386558570E+02  0.00000000000E+00 0.  1.
</event>
<event>
12    1  0.8271773E-002  0.1854224E+03  0.7818608E-02  0.1162788E+00
         21   -1    0    0  503  502  0.00000000000E+00  0.00000000000E+00  0.84263696696E+02  0.84263696696E+02  0.00000000000E+00 0. -1.
         21   -1    0    0  501  503 -0.00000000000E+00 -0.00000000000E+00 -0.49619648931E+03  0.49619648931E+03  0.00000000000E+00 0. -1.
          6    2    1    2  501    0  0.33687487054E+02 -0.53048044341E+02 -0.32891567452E+03  0.37730188672E+03  0.17384548020E+03 0.  0.
         24    2    3    3    0    0  0.39342842899E+02 -0.72442409202E+02 -0.11182883188E+03  0.15922641427E+03  0.77792039584E+02 0.  0.
         -6    2    1    2    0  502 -0.33687487054E+02  0.53048044341E+02 -0.83017118093E+02  0.20315829928E+03  0.17444916417E+03 0.  0.
        -24    2    5    5    0    0 -0.99597829001E+01  0.21906487500E+02  0.25767305232E+02  0.87447706575E+02  0.80025345337E+02 0.  0.
          5    1    3    3  501    0 -0.56553558443E+01  0.19394364861E+02 -0.21708684264E+03  0.21807547245E+03  0.47000000000E+01 0. -1.
        -13    1    4    4    0    0 -0.11445171496E+02  0.96585751515E+01 -0.26222077334E+02  0.30197307235E+02  0.00000000000E+00 0.  1.
         14    1    4    4    0    0  0.50788014394E+02 -0.82100984353E+02 -0.85606754546E+02  0.12902910703E+03  0.00000000000E+00 0. -1.
         -5    1    5    5    0  502 -0.23727704154E+02  0.31141556841E+02 -0.10878442333E+03  0.11571059271E+03  0.47000000000E+01 0.  1.
         13    1    6    6    0    0 -0.39950270435E+02  0.32586055363E+02  0.13165985761E+02  0.53209193688E+02  0.00000000000E+00 0. -1.
        -14    1    6    6    0    0  0.29990487535E+02 -0.10679567863E+02  0.12601319471E+02  0.34238512887E+02  0.00000000000E+00 0.  1.
</event>
<event>
12    1  0.8271773E-002  0.1885781E+03  0.7818608E-02  0.1160301E+00
         21   -1    0    0  503  502  0.00000000000E+00  0.00000000000E+00  0.41128431363E+03  0.41128431363E+03  0.00000000000E+00 0. -1.
         21   -1    0    0  501  503 -0.00000000000E+00 -0.00000000000E+00 -0.23376797565E+03  0.23376797565E+03  0.00000000000E+00 0. -1.
          6    2    1    2  501    0 -0.57005541081E+02  0.44243063219E+02 -0.16800752248E+03  0.25256334999E+03  0.17422582413E+03 0.  0.
         24    2    3    3    0    0  0.12816817016E+01  0.40779802746E+02 -0.16877096863E+03  0.19397950100E+03  0.86485674750E+02 0.  0.
         -6    2    1    2    0  502  0.57005541081E+02 -0.44243063219E+02  0.34552386047E+03  0.39248893929E+03  0.17162094555E+03 0.  0.
        -24    2    5    5    0    0  0.98326654091E+02 -0.63045702599E+02  0.27033632191E+03  0.30453310046E+03  0.77561529214E+02 0.  0.
          5    1    3    3  501    0 -0.58287222783E+02  0.34632604723E+01  0.76344614484E+00  0.58583848993E+02  0.47000000000E+01 0. -1.
        -11    1    4    4    0    0  0.28587107741E+02  0.14243457510E+02 -0.14494793117E+02  0.35074176232E+02  0.00000000000E+00 0.  1.
         12    1    4    4    0    0 -0.27305426040E+02  0.26536345236E+02 -0.15427617551E+03  0.15890532477E+03  0.00000000000E+00 0. -1.
         -5    1    5    5    0  502 -0.41321113010E+02  0.18802639380E+02  0.75187538564E+02  0.87955838824E+02  0.47000000000E+01 0.  1.
         13    1    6    6    0    0  0.55086516465E+01 -0.24688491236E+02  0.12711818073E+03  0.12961056560E+03  0.00000000000E+00 0. -1.
        -14    1    6    6    0    0  0.92818002444E+02 -0.38357211362E+02  0.14321814118E+03  0.17492253487E+03  0.00000000000E+00 0.  1.
</event>
<event>
12    1  0.8271773E-002  0.1971800E+03  0.7818608E-02  0.1152510E+00
         21   -1    0    0  501  502  0.00000000000E+00  0.00000000000E+00  0.71588029451E+02  0.71588029451E+02  0.00000000000E+00 0.  1.
         21   -1    0    0  502  503 -0.00000000000E+00 -0.00000000000E+00 -0.62857588051E+03  0.62857588051E+03  0.00000000000E+00 0.  1.
         -6    2    1    2    0  503 -0.94384391595E+02 -0.13088246752E+02 -0.41212577706E+03  0.45686717565E+03  0.17262747317E+03 0.  0.
        -24    2    3    3    0    0 -0.10378082187E+03  0.41227040269E+02 -0.24784601769E+03  0.28352251134E+03  0.80543392755E+02 0.  0.
          6    2    1    2  501    0  0.94384391595E+02  0.13088246752E+02 -0.14486207400E+03  0.24329673431E+03  0.17067092565E+03 0.  0.
         24    2    5    5    0    0  0.19634787264E+02  0.53898326908E+02 -0.12559604951E+03  0.15585397767E+03  0.72287897930E+02 0.  0.
          5    1    5    5  501    0  0.74749604331E+02 -0.40810080156E+02 -0.19266024490E+02  0.87442756645E+02  0.47000000000E+01 0. -1.
        -13    1    6    6    0    0  0.32696399479E+02  0.35623539173E+02 -0.12427718622E+03  0.13335257814E+03  0.00000000000E+00 0.  1.
         14    1    6    6    0    0 -0.13061612216E+02  0.18274787735E+02 -0.13188632972E+01  0.22501399530E+02  0.00000000000E+00 0. -1.
         -5    1    3    3    0  503  0.93964302728E+01 -0.54315287021E+02 -0.16427975937E+03  0.17334466431E+03  0.47000000000E+01 0.  1.
         13    1    4    4    0    0  0.17411873526E+01 -0.16463737766E+02 -0.20719470704E+02  0.26521366120E+02  0.00000000000E+00 0. -1.
        -14    1    4    4    0    0 -0.10552200922E+03  0.57690778034E+02 -0.22712654698E+03  0.25700114522E+03  0.00000000000E+00 0.  1.
</event>
<event>
12    1  0.8271773E-002  0.2109716E+03  0.7818608E-02  0.1145117E+00
         21   -1    0    0  503  502  0.00000000000E+00  0.00000000000E+00  0.82907612532E+03  0.82907612532E+03  0.00000000000E+00 0.  1.
         21   -1    0    0  501  503 -0.00000000000E+00 -0.00000000000E+00 -0.73468400499E+02  0.73468400499E+02  0.00000000000E+00 0.  1.
          6    2    1    2  501    0 -0.81420116936E+02 -0.90119763644E+01  0.10220686848E+03  0.21592840668E+03  0.17166357123E+03 0.  0.
         24    2    3    3    0    0 -0.55305518152E+02 -0.37807091122E+02  0.13068072774E+03  0.16751372332E+03  0.80593538334E+02 0.  0.
         -6    2    1    2    0  502  0.81420116936E+02  0.90119763644E+01  0.65340085634E+03  0.68661611914E+03  0.19441853008E+03 0.  0.
        -24    2    5    5    0    0 -0.23836974824E+02 -0.33589549632E+02  0.24621924609E+03  0.26387163472E+03  0.85486041262E+02 0.  0.
          5    1    3    3  501    0 -0.26114598784E+02  0.28795114758E+02 -0.28473859259E+02  0.48414683358E+02  0.47000000000E+01 0. -1.
        -11    1    4    4    0    0 -0.45610402148E+02  0.62155415141E+01  0.24467249494E+02  0.52130490485E+02  0.00000000000E+00 0.  1.
         12    1    4    4    0    0 -0.96951160040E+01 -0.44022632636E+02  0.10621347825E+03  0.11538323284E+03  0.00000000000E+00 0. -1.
         -5    1    5    5    0  502  0.10525709176E+03  0.42601525997E+02  0.40718161025E+03  0.42274448442E+03  0.47000000000E+01 0.  1.
         11    1    6    6    0    0 -0.35289392408E+02 -0.41955940238E+02  0.24328847384E+03  0.24938910088E+03  0.00000000000E+00 0. -1.
        -12    1    6    6    0    0  0.11452417584E+02  0.83663906060E+01  0.29307722537E+01  0.14482533835E+02  0.00000000000E+00 0.  1.
</event>
<event>
12    1  0.8271773E-002  0.2171793E+03  0.7818608E-02  0.1136167E+00
         21   -1    0    0  503  502  0.00000000000E+00  0.00000000000E+00  0.17803489217E+03  0.17803489217E+03  0.00000000000E+00 0.  1.
         21   -1    0    0  501  503 -0.00000000000E+00 -0.00000000000E+00 -0.30861754517E+03  0.30861754517E+03  0.00000000000E+00 0.  1.
          6    2    1    2  501    0 -0.29536932635E+01  0.13228825933E+03  0.27239744526E+02  0.21888095366E+03  0.17221486676E+03 0.  0.
         24    2    3    3    0    0  0.55771531342E+02  0.12431308104E+03  0.20116016159E+02  0.15900530770E+03  0.79459599452E+02 0.  0.
         -6    2    1    2    0  502  0.29536932635E+01 -0.13228825933E+03 -0.15782239752E+03  0.26777148367E+03  0.17112787748E+03 0.  0.
        -24    2    5    5    0    0  0.24531176724E+02 -0.12828279686E+03 -0.18060608478E+03  0.23578995890E+03  0.76942135770E+02 0.  0.
          5    1    3    3  501    0 -0.58725224605E+02  0.79751782923E+01  0.71237283663E+01  0.59875645963E+02  0.47000000000E+01 0. -1.
        -11    1    4    4    0    0  0.30500755598E+02  0.45167103148E+02 -0.29764832407E+02  0.62099183143E+02  0.00000000000E+00 0.  1.
         12    1    4    4    0    0  0.25270775744E+02  0.79145977888E+02  0.49880848566E+02  0.96906124555E+02  0.00000000000E+00 0. -1.
         -5    1    5    5    0  502 -0.21577483461E+02 -0.40054624678E+01  0.22783687255E+02  0.31981524776E+02  0.47000000000E+01 0.  1.
         11    1    6    6    0    0 -0.20947358146E+02 -0.21186103241E+02 -0.66283257191E+02  0.72671266452E+02  0.00000000000E+00 0. -1.
        -12    1    6    6    0    0  0.45478534870E+02 -0.10709669362E+03 -0.11432282758E+03  0.16311869245E+03  0.00000000000E+00 0.  1.
</event>
<event>
12    1  0.8271773E-002  0.1771771E+03  0.7818608E-02  0.1171665E+00
         21   -1    0    0  503  502  0.00000000000E+00  0.00000000000E+00  0.70872727713E+03  0.70872727713E+03  0.00000000000E+00 0. -1.
         21   -1    0    0  501  503 -0.00000000000E+00 -0.00000000000E+00 -0.43839258900E+02  0.43839258900E+02  0.00000000000E+00 0. -1.
          6    2    1    2  501    0  0.18170902566E+02  0.55084549007E+02  0.29112371392E+03  0.34080016968E+03  0.16741340929E+03 0.  0.
         24    2    3    3    0    0  0.21775510550E+02  0.41823636408E+02  0.30742078933E+03  0.31897061017E+03  0.70790670380E+02 0.  0.
         -6    2    1    2    0  502 -0.18170902566E+02 -0.55084549007E+02  0.37376430431E+03  0.41176636635E+03  0.16274918138E+03 0.  0.
        -24    2    5    5    0    0 -0.69090670333E+02 -0.54772015398E+02  0.23985511515E+03  0.26842523000E+03  0.82147023330E+02 0.  0.
          5    1    3    3  501    0 -0.36046079841E+01  0.13260912598E+02 -0.16297075413E+02  0.21829559516E+02  0.47000000000E+01 0. -1.
        -11    1    4    4    0    0 -0.17954272460E+02 -0.90413006360E+01  0.87168780507E+02  0.89456678408E+02  0.00000000000E+00 0.  1.
         12    1    4    4    0    0  0.39729783010E+02  0.50864937044E+02  0.22025200883E+03  0.22951393176E+03  0.00000000000E+00 0. -1.
         -5    1    5    5    0  502  0.50919767767E+02 -0.31253360876E+00  0.13390918916E+03  0.14334113634E+03  0.47000000000E+01 0.  1.
         13    1    6    6    0    0 -0.20126468266E+02 -0.60303355039E+02  0.86507334765E+02  0.10735496412E+03  0.00000000000E+00 0. -1.
        -14    1    6    6    0    0 -0.48964202067E+02  0.55313396408E+01  0.15334778038E+03  0.16107026588E+03  0.00000000000E+00 0.  1.
</event>
<event>
12    1  0.8271773E-002  0.2409635E+03  0.7818608E-02  0.1119637E+00
         21   -1    0    0  503  502  0.00000000000E+00  0.00000000000E+00  0.67500561644E+03  0.67500561644E+03  0.00000000000E+00 0. -1.
         21   -1    0    0  501  503 -0.00000000000E+00 -0.00000000000E+00 -0.85039206879E+02  0.85039206879E+02  0.00000000000E+00 0.  1.
          6    2    1    2  501    0  0.14975905110E+03  0.67436657546E+02  0.28364466973E+03  0.37030594313E+03  0.17232735327E+03 0.  0.
         24    2    3    3    0    0  0.11395253681E+03 -0.16057108486E+02  0.12577987909E+03  0.18810633403E+03  0.79500965660E+02 0.  0.
         -6    2    1    2    0  502 -0.14975905110E+03 -0.67436657546E+02  0.30632173984E+03  0.38973888019E+03  0.17631764028E+03 0.  0.
        -24    2    5    5    0    0 -0.18063483319E+03 -0.62443725711E+02  0.24590611633E+03  0.32154517923E+03  0.79958254071E+02 0.  0.
          5    1    3    3  501    0  0.35806514291E+02  0.83493766032E+02  0.15786479064E+03  0.18219960910E+03  0.47000000000E+01 0. -1.
        -11    1    4    4    0    0 -0.29777562716E+01  0.16850536844E+02  0.79280242243E+01  0.18858981745E+02  0.00000000000E+00 0.  1.
         12    1    4    4    0    0  0.11693029308E+03 -0.32907645330E+02  0.11785185486E+03  0.16924735228E+03  0.00000000000E+00 0. -1.
         -5    1    5    5    0  502  0.30875782090E+02 -0.49929318350E+01  0.60415623505E+02  0.68193700967E+02  0.47000000000E+01 0.  1.
         13    1    6    6    0    0 -0.14335119391E+03 -0.17279366548E+02  0.20223645458E+03  0.24849089493E+03  0.00000000000E+00 0. -1.
        -14    1    6    6    0    0 -0.37283639279E+02 -0.45164359163E+02  0.43669661754E+02  0.73054284297E+02  0.00000000000E+00 0.  1.
</event>
<event>
12    1  0.8271773E-002  0.2704145E+03  0.7818608E-02  0.1101113E+00
         21   -1    0    0  503  502  0.00000000000E+00  0.00000000000E+00  0.87596265023E+03  0.87596265023E+03  0.00000000000E+00 0.  1.
         21   -1    0    0  501  503 -0.00000000000E+00 -0.00000000000E+00 -0.83340725860E+02  0.83340725860E+02  0.00000000000E+00 0. -1.
          6    2    1    2  501    0 -0.10946435270E+03 -0.17758913370E+03  0.39033560112E+03  0.47485354593E+03  0.17205715228E+03 0.  0.
         24    2    3    3    0    0 -0.13900668464E+03 -0.10822129258E+03  0.25460514133E+03  0.31951683270E+03  0.78946322563E+02 0.  0.
         -6    2    1    2    0  502  0.10946435270E+03  0.17758913370E+03  0.40228632325E+03  0.48444983017E+03  0.17128049263E+03 0.  0.
        -24    2    5    5    0    0  0.33250091205E+02  0.67327153475E+02  0.80401858828E+02  0.13574075891E+03  0.79514656304E+02 0.  0.
          5    1    3    3  501    0  0.29542331943E+02 -0.69367841126E+02  0.13573045979E+03  0.15533671322E+03  0.47000000000E+01 0. -1.
        -13    1    4    4    0    0 -0.21611168720E+02 -0.63168731717E+02  0.77143196540E+02  0.10202158621E+03  0.00000000000E+00 0.  1.
         14    1    4    4    0    0 -0.11739551592E+03 -0.45052560861E+02  0.17746194479E+03  0.21749524649E+03  0.00000000000E+00 0. -1.
         -5    1    5    5    0  502  0.76214261493E+02  0.11026198023E+03  0.32188446442E+03  0.34870907125E+03  0.47000000000E+01 0.  1.
         11    1    6    6    0    0  0.48921166261E+00 -0.17329903841E+02  0.21113667284E+02  0.27319440722E+02  0.00000000000E+00 0. -1.
        -12    1    6    6    0    0  0.32760879543E+02  0.84657057316E+02  0.59288191544E+02  0.10842131819E+03  0.00000000000E+00 0.  1.
</event>
<event>
12    1  0.8271773E-002  0.2857258E+03  0.7818608E-02  0.1092776E+00
         21   -1    0    0  503  502  0.00000000000E+00  0.00000000000E+00  0.21759433108E+03  0.21759433108E+03  0.00000000000E+00 0.  1.
         21   -1    0    0  501  503 -0.00000000000E+00 -0.00000000000E+00 -0.38409357745E+03  0.38409357745E+03  0.00000000000E+00 0. -1.
          6    2    1    2  501    0  0.16569722676E+03 -0.16249167458E+03 -0.13308433043E+03  0.31401488580E+03  0.16442260865E+03 0.  0.
         24    2    3    3    0    0  0.40525288128E+02 -0.31815280496E+02 -0.71066771803E+01  0.93477375816E+02  0.77672413881E+02 0.  0.
         -6    2    1    2    0  502 -0.16569722676E+03  0.16249167458E+03 -0.33414915939E+02  0.28767302273E+03  0.16667362159E+03 0.  0.
        -24    2    5    5    0    0 -0.11591198208E+03  0.91859722883E+02 -0.83691414459E+02  0.18758676247E+03  0.79440193368E+02 0.  0.
          5    1    3    3  501    0  0.12517193863E+03 -0.13067639409E+03 -0.12597765324E+03  0.22053750999E+03  0.47000000000E+01 0. -1.
        -13    1    4    4    0    0  0.38450599159E+02 -0.10163918019E+02  0.30441548366E+02  0.50084345580E+02  0.00000000000E+00 0.  1.
         14    1    4    4    0    0  0.20746889687E+01 -0.21651362477E+02 -0.37548225547E+02  0.43393030237E+02  0.00000000000E+00 0. -1.
         -5    1    5    5    0  502 -0.49785244687E+02  0.70631951700E+02  0.50276498520E+02  0.10008626026E+03  0.47000000000E+01 0.  1.
         11    1    6    6    0    0  0.63640771303E+01 -0.77328782604E+01 -0.70464538766E+01  0.12245464309E+02  0.00000000000E+00 0. -1.
        -12    1    6    6    0    0 -0.12227605921E+03  0.99592601144E+02 -0.76644960583E+02  0.17534129816E+03  0.00000000000E+00 0.  1.
</event>
<event>
12    1  0.8271773E-002  0.1790049E+03  0.7818608E-02  0.1168990E+00
         21   -1    0    0  503  502  0.00000000000E+00  0.00000000000E+00  0.10693155839E+04  0.10693155839E+04  0.00000000000E+00 0.  1.
         21   -1    0    0  501  503 -0.00000000000E+00 -0.00000000000E+00 -0.34779299760E+02  0.34779299760E+02  0.00000000000E+00 0. -1.
          6    2    1    2  501    0  0.48819484886E+02  0.24724357954E+01  0.72471512773E+03  0.74627940228E+03  0.17126434209E+03 0.  0.
         24    2    3    3    0    0  0.62419990743E+02  0.53419407370E+02  0.57618499263E+03  0.58859662356E+03  0.87789243142E+02 0.  0.
         -6    2    1    2    0  502 -0.48819484886E+02 -0.24724357954E+01  0.30982115640E+03  0.35781548137E+03  0.17220137836E+03 0.  0.
        -24    2    5    5    0    0 -0.12321885113E+01  0.25962265065E+02  0.28494083034E+03  0.29687121491E+03  0.79156073364E+02 0.  0.
          5    1    3    3  501    0 -0.13600505857E+02 -0.50946971575E+02  0.14853013510E+03  0.15768277872E+03  0.47000000000E+01 0. -1.
        -11    1    4    4    0    0  0.13388366935E+02 -0.23817382374E+02  0.17443311211E+03  0.17655998038E+03  0.00000000000E+00 0.  1.
         12    1    4    4    0    0  0.49031623808E+02  0.77236789745E+02  0.40175188052E+03  0.41203664318E+03  0.00000000000E+00 0. -1.
         -5    1    5    5    0  502 -0.47587296374E+02 -0.28434700860E+02  0.24880326061E+02  0.60944266458E+02  0.47000000000E+01 0.  1.
         13    1    6    6    0    0 -0.17336568651E+02 -0.15558591943E+02  0.29554885835E+02  0.37631338969E+02  0.00000000000E+00 0. -1.
        -14    1    6    6    0    0  0.16104380140E+02  0.41520857008E+02  0.25538594451E+03  0.25923987594E+03  0.00000000000E+00 0.  1.
</event>
<event>
12    1  0.8271773E-002  0.2004866E+03  0.7818608E-02  0.1152625E+00
         21   -1    0    0  503  502  0.00000000000E+00  0.00000000000E+00  0.93246228938E+02  0.93246228938E+02  0.00000000000E+00 0.  1.
         21   -1    0    0  501  503 -0.00000000000E+00 -0.00000000000E+00 -0.96879048263E+03  0.96879048263E+03  0.00000000000E+00 0.  1.
          6    2    1    2  501    0 -0.64781446270E+02  0.18517196847E+02 -0.83773420509E+03  0.85801594060E+03  0.17278088321E+03 0.  0.
         24    2    3    3    0    0  0.22577878194E+02 -0.51589613914E+01 -0.55585007874E+03  0.56191973542E+03  0.79044946404E+02 0.  0.
         -6    2    1    2    0  502  0.64781446270E+02 -0.18517196847E+02 -0.37810048609E+02  0.20402077097E+03  0.18882625043E+03 0.  0.
        -24    2    5    5    0    0  0.41187465387E+02  0.14106922723E+02 -0.96726833644E+02  0.13250652993E+03  0.79413396567E+02 0.  0.
          5    1    3    3  501    0 -0.87359324464E+02  0.23676158238E+02 -0.28188412635E+03  0.29609620519E+03  0.47000000000E+01 0. -1.
        -13    1    4    4    0    0 -0.75013020916E+01  0.27958081102E+02 -0.10702728491E+03  0.11087273581E+03  0.00000000000E+00 0.  1.
         14    1    4    4    0    0  0.30079180286E+02 -0.33117042494E+02 -0.44882279383E+03  0.45104699960E+03  0.00000000000E+00 0. -1.
         -5    1    5    5    0  502  0.23593980883E+02 -0.32624119570E+02  0.58916785035E+02  0.71514241033E+02  0.47000000000E+01 0.  1.
         11    1    6    6    0    0 -0.22903710924E+02  0.12242750856E+02 -0.21948533030E+02  0.34002985527E+02  0.00000000000E+00 0. -1.
        -12    1    6    6    0    0  0.64091176311E+02  0.18641718674E+01 -0.74778300614E+02  0.98503544406E+02  0.00000000000E+00 0.  1.
</event>
<event>
12    1  0.8271773E-002  0.2071664E+03  0.7818608E-02  0.1144339E+00
         21   -1    0    0  503  502  0.00000000000E+00  0.00000000000E+00  0.60296617390E+02  0.60296617390E+02  0.00000000000E+00 0.  1.
         21   -1    0    0  501  503 -0.00000000000E+00 -0.00000000000E+00 -0.70860190309E+03  0.70860190309E+03  0.00000000000E+00 0.  1.
          6    2    1    2  501    0  0.10800473249E+03 -0.19975144561E+02 -0.35974378587E+03  0.41513071040E+03  0.17565274437E+03 0.  0.
         24    2    3    3    0    0  0.57498074215E+02  0.79051322983E+01 -0.34020322693E+03  0.35403933776E+03  0.78975296198E+02 0.  0.
         -6    2    1    2    0  502 -0.10800473249E+03  0.19975144561E+02 -0.28856149983E+03  0.35376781008E+03  0.17268438154E+03 0.  0.
        -24    2    5    5    0    0 -0.13878105101E+03  0.39691221128E+02 -0.20320261272E+03  0.26079396932E+03  0.76724308181E+02 0.  0.
          5    1    3    3  501    0  0.50506658270E+02 -0.27880276860E+02 -0.19540558937E+02  0.61091372640E+02  0.47000000000E+01 0. -1.
        -11    1    4    4    0    0  0.34424949382E+02 -0.30438088947E+02 -0.23909380790E+03  0.24346951220E+03  0.00000000000E+00 0.  1.
         12    1    4    4    0    0  0.23073124833E+02  0.38343221245E+02 -0.10110941904E+03  0.11056982555E+03  0.00000000000E+00 0. -1.
         -5    1    5    5    0  502  0.30776318521E+02 -0.19716076566E+02 -0.85358887110E+02  0.92973840759E+02  0.47000000000E+01 0.  1.
         11    1    6    6    0    0  0.51545122969E+01 -0.67634308937E+01 -0.28379037871E+02  0.29625711552E+02  0.00000000000E+00 0. -1.
        -12    1    6    6    0    0 -0.14393556330E+03  0.46454652021E+02 -0.17482357485E+03  0.23116825777E+03  0.00000000000E+00 0.  1.
</event>
<event>
12    1  0.8271773E-002  0.2268656E+03  0.7818608E-02  0.1128987E+00
         21   -1    0    0  501  502  0.00000000000E+00  0.00000000000E+00  0.14538406159E+03  0.14538406159E+03  0.00000000000E+00 0.  1.
         21   -1    0    0  502  503 -0.00000000000E+00 -0.00000000000E+00 -0.36200790252E+03  0.36200790252E+03  0.00000000000E+00 0. -1.
         -6    2    1    2    0  503  0.14704819250E+03 -0.10484229245E+02 -0.14826088772E+03  0.27044999761E+03  0.17154830339E+03 0.  0.
        -24    2    3    3    0    0  0.14019456203E+03  0.32757837523E+02 -0.66453968081E+02  0.17754515010E+03  0.79865883259E+02 0.  0.
          6    2    1    2  501    0 -0.14704819250E+03  0.10484229245E+02 -0.68362953211E+02  0.23694196650E+03  0.17243814002E+03 0.  0.
         24    2    5    5    0    0 -0.54296758708E+02  0.21660680415E+02 -0.97065469894E+02  0.13909685422E+03  0.80677793272E+02 0.  0.
          5    1    5    5  501    0 -0.92751433794E+02 -0.11176451170E+02  0.28702516683E+02  0.97845112272E+02  0.47000000000E+01 0. -1.
        -11    1    6    6    0    0 -0.28229290826E+02  0.48792762413E+02 -0.34501783554E+02  0.66090843487E+02  0.00000000000E+00 0.  1.
         12    1    6    6    0    0 -0.26067467881E+02 -0.27132081998E+02 -0.62563686341E+02  0.73006010738E+02  0.00000000000E+00 0. -1.
         -5    1    3    3    0  503  0.68536304710E+01 -0.43242066768E+02 -0.81806919643E+02  0.92904847508E+02  0.47000000000E+01 0.  1.
         11    1    4    4    0    0  0.92756883537E+02  0.41581925443E+02 -0.77765246862E+02  0.12798566164E+03  0.00000000000E+00 0. -1.
        -12    1    4    4    0    0  0.47437678494E+02 -0.88240879200E+01  0.11311278781E+02  0.49559488458E+02  0.00000000000E+00 0.  1.
</event>
<event>
12    1  0.8271773E-002  0.4182950E+03  0.7818608E-02  0.1037637E+00
         21   -1    0    0  503  502  0.00000000000E+00  0.00000000000E+00  0.98744334737E+03  0.98744334737E+03  0.00000000000E+00 0.  1.
         21   -1    0    0  501  503 -0.00000000000E+00 -0.00000000000E+00 -0.27042319434E+03  0.27042319434E+03  0.00000000000E+00 0. -1.
          6    2    1    2  501    0 -0.16482859283E+03 -0.34366201574E+03 -0.10969566111E+02  0.41825964965E+03  0.17189751910E+03 0.  0.
         24    2    3    3    0    0 -0.14942371019E+03 -0.25666501496E+03 -0.65362800880E+02  0.31440156118E+03  0.79822746512E+02 0.  0.
         -6    2    1    2    0  502  0.16482859283E+03  0.34366201574E+03  0.72798971914E+03  0.83960689205E+03  0.17233297982E+03 0.  0.
        -24    2    5    5    0    0  0.82680881537E+02  0.20049122545E+03  0.55103884915E+03  0.59757420407E+03  0.80114021512E+02 0.  0.
          5    1    3    3  501    0 -0.15404882641E+02 -0.86997000775E+02  0.54393234768E+02  0.10385808847E+03  0.47000000000E+01 0. -1.
        -13    1    4    4    0    0  0.10059488882E+01 -0.50970553059E+02  0.12912268040E+01  0.50996828127E+02  0.00000000000E+00 0.  1.
         14    1    4    4    0    0 -0.15042965908E+03 -0.20569446190E+03 -0.66654027683E+02  0.26340473305E+03  0.00000000000E+00 0. -1.
         -5    1    5    5    0  502  0.82147711297E+02  0.14317079029E+03  0.17695086999E+03  0.24203268798E+03  0.47000000000E+01 0.  1.
         13    1    6    6    0    0  0.38099683907E+02  0.21382303969E+02  0.72147804804E+02  0.84345092180E+02  0.00000000000E+00 0. -1.
        -14    1    6    6    0    0  0.44581197630E+02  0.17910892148E+03  0.47889104434E+03  0.51322911189E+03  0.00000000000E+00 0.  1.
</event>
<event>
12    1  0.8271773E-002  0.2555493E+03  0.7818608E-02  0.1110293E+00
         21   -1    0    0  501  502  0.00000000000E+00  0.00000000000E+00  0.34981163054E+03  0.34981163054E+03  0.00000000000E+00 0. -1.
         21   -1    0    0  502  503 -0.00000000000E+00 -0.00000000000E+00 -0.32100642795E+03  0.32100642795E+03  0.00000000000E+00 0.  1.
         -6    2    1    2    0  503 -0.47326384832E+02  0.18307279784E+03 -0.20429784968E+03  0.32492430371E+03  0.16757910295E+03 0.  0.
        -24    2    3    3    0    0  0.18937806306E+01  0.83575931716E+02 -0.17508563676E+03  0.21004308487E+03  0.80464865232E+02 0.  0.
          6    2    1    2  501    0  0.47326384832E+02 -0.18307279784E+03  0.23310305226E+03  0.34589375479E+03  0.17190119434E+03 0.  0.
         24    2    5    5    0    0 -0.42999209917E+01 -0.17651556209E+03  0.13899292096E+03  0.23825045677E+03  0.79170796986E+02 0.  0.
          5    1    5    5  501    0  0.51626305824E+02 -0.65572357528E+01  0.94110131302E+02  0.10764329801E+03  0.47000000000E+01 0. -1.
        -13    1    6    6    0    0 -0.40539405015E+02 -0.11559046516E+03  0.92119270924E+02  0.15326630116E+03  0.00000000000E+00 0.  1.
         14    1    6    6    0    0  0.36239484023E+02 -0.60925096931E+02  0.46873650039E+02  0.84984155619E+02  0.00000000000E+00 0. -1.
         -5    1    3    3    0  503 -0.49220165463E+02  0.99496866126E+02 -0.29212212922E+02  0.11488121883E+03  0.47000000000E+01 0.  1.
         13    1    4    4    0    0  0.27627328487E+02  0.81777337981E+02 -0.15474719297E+03  0.17719338593E+03  0.00000000000E+00 0. -1.
        -14    1    4    4    0    0 -0.25733547856E+02  0.17985937344E+01 -0.20338443789E+02  0.32849698940E+02  0.00000000000E+00 0.  1.
</event>
<event>
12    1  0.8271773E-002  0.1747973E+03  0.7818608E-02  0.1173845E+00
         21   -1    0    0  503  502  0.00000000000E+00  0.00000000000E+00  0.51243243893E+03  0.51243243893E+03  0.00000000000E+00 0.  1.
         21   -1    0    0  501  503 -0.00000000000E+00 -0.00000000000E+00 -0.62475262406E+02  0.62475262406E+02  0.00000000000E+00 0.  1.
          6    2    1    2  501    0 -0.76572177297E+01 -0.19353715796E+02  0.14949352881E+03  0.22729802235E+03  0.16994962934E+03 0.  0.
         24    2    3    3    0    0 -0.41929304289E+02  0.32071565632E+02  0.53301367814E+02  0.11286831763E+03  0.84330121739E+02 0.  0.
         -6    2    1    2    0  502  0.76572177297E+01  0.19353715796E+02  0.30046364771E+03  0.34760967898E+03  0.17355369782E+03 0.  0.
        -24    2    5    5    0    0 -0.36141818200E+02 -0.32608846251E+02  0.23719490868E+03  0.25463932488E+03  0.78804779011E+02 0.  0.
          5    1    3    3  501    0  0.34272086560E+02 -0.51425281428E+02  0.96192160994E+02  0.11442970473E+03  0.47000000000E+01 0. -1.
        -13    1    4    4    0    0 -0.43295570387E+02 -0.19354734818E+02  0.31868814478E+02  0.57137846575E+02  0.00000000000E+00 0.  1.
         14    1    4    4    0    0  0.13662660974E+01  0.51426300450E+02  0.21432553335E+02  0.55730471051E+02  0.00000000000E+00 0. -1.
         -5    1    5    5    0  502  0.43799035930E+02  0.51962562046E+02  0.63268739032E+02  0.92970354101E+02  0.47000000000E+01 0.  1.
         13    1    6    6    0    0 -0.53249886045E+02 -0.11868689828E+02  0.20762920548E+03  0.21467720682E+03  0.00000000000E+00 0. -1.
        -14    1    6    6    0    0  0.17108067844E+02 -0.20740156422E+02  0.29565703204E+02  0.39962118058E+02  0.00000000000E+00 0.  1.
</event>
<event>
12    1  0.8271773E-002  0.1891287E+03  0.7818608E-02  0.1160534E+00
         21   -1    0    0  501  502  0.00000000000E+00  0.00000000000E+00  0.15844036809E+03  0.15844036809E+03  0.00000000000E+00 0. -1.
         21   -1    0    0  502  503 -0.00000000000E+00 -0.00000000000E+00 -0.22554148338E+03  0.22554148338E+03  0.00000000000E+00 0. -1.
         -6    2    1    2    0  503 -0.54235026494E+02 -0.41998586320E+02 -0.65352419469E+02  0.19484508891E+03  0.17025965638E+03 0.  0.
        -24    2    3    3    0    0 -0.50100882158E+02 -0.21505476857E+02 -0.10903525849E+03  0.14618977974E+03  0.80685687575E+02 0.  0.
          6    2    1    2  501    0  0.54235026494E+02  0.41998586320E+02 -0.17486958190E+01  0.18913676256E+03  0.17625078060E+03 0.  0.
         24    2    5    5    0    0  0.84743288788E+02  0.31611173701E+02 -0.48329720495E+02  0.13229897346E+03  0.83585675803E+02 0.  0.
          5    1    5    5  501    0 -0.30508262294E+02  0.10387412619E+02  0.46581024676E+02  0.56837789093E+02  0.47000000000E+01 0. -1.
        -13    1    6    6    0    0  0.51489527875E+02 -0.23425697222E+02 -0.35332226708E+02  0.66695584676E+02  0.00000000000E+00 0.  1.
         14    1    6    6    0    0  0.33253760913E+02  0.55036870923E+02 -0.12997493787E+02  0.65603388789E+02  0.00000000000E+00 0. -1.
         -5    1    3    3    0  503 -0.41341443362E+01 -0.20493109463E+02  0.43682839022E+02  0.48655309164E+02  0.47000000000E+01 0.  1.
         11    1    4    4    0    0 -0.31615480258E+02 -0.47050800609E+02 -0.37373996683E+02  0.67897953268E+02  0.00000000000E+00 0. -1.
        -12    1    4    4    0    0 -0.18485401900E+02  0.25545323753E+02 -0.71661261808E+02  0.78291826476E+02  0.00000000000E+00 0.  1.
</event>
<event>
12    1  0.8271773E-002  0.1932003E+03  0.7818608E-02  0.1156754E+00
         21   -1    0    0  503  502  0.00000000000E+00  0.00000000000E+00  0.11501792182E+03  0.11501792182E+03  0.00000000000E+00 0.  1.
         21   -1    0    0  501  503 -0.00000000000E+00 -0.00000000000E+00 -0.40508821483E+03  0.40508821483E+03  0.00000000000E+00 0.  1.
          6    2    1    2  501    0  0.77335879726E+02  0.26765791962E+02 -0.21546987203E+02  0.18930237520E+03  0.16933360767E+03 0.  0.
         24    2    3    3    0    0  0.30847506522E+02  0.81783541055E+02 -0.17161525073E+02  0.11698748160E+03  0.75838226913E+02 0.  0.
         -6    2    1    2    0  502 -0.77335879726E+02 -0.26765791962E+02 -0.26852330580E+03  0.33080376145E+03  0.17501176223E+03 0.  0.
        -24    2    5    5    0    0 -0.74012832876E+02 -0.73435217774E+02 -0.13092713101E+03  0.18539442453E+03  0.79740506472E+02 0.  0.
          5    1    3    3  501    0  0.46488373204E+02 -0.55017749093E+02 -0.43854621298E+01  0.72314893601E+02  0.47000000000E+01 0. -1.
        -11    1    4    4    0    0 -0.21646575944E+02  0.34768282729E+02  0.87931959194E+01  0.41889473958E+02  0.00000000000E+00 0.  1.
         12    1    4    4    0    0  0.52494082466E+02  0.47015258326E+02 -0.25954720992E+02  0.75098007638E+02  0.00000000000E+00 0. -1.
         -5    1    5    5    0  502 -0.33230468504E+01  0.46669425812E+02 -0.13759617480E+03  0.14540933692E+03  0.47000000000E+01 0.  1.
         13    1    6    6    0    0 -0.75456506252E+02 -0.24327790207E+02 -0.61477087802E+02  0.10032426445E+03  0.00000000000E+00 0. -1.
        -14    1    6    6    0    0  0.14436733762E+01 -0.49107427567E+02 -0.69450043205E+02  0.85070160081E+02  0.00000000000E+00 0.  1.
</event>
<event>
12    1  0.8271773E-002  0.2098283E+03  0.7818608E-02  0.1142031E+00
         21   -1    0    0  503  502  0.00000000000E+00  0.00000000000E+00  0.77597651510E+03  0.77597651510E+03  0.00000000000E+00 0.  1.
         21   -1    0    0  501  503 -0.00000000000E+00 -0.00000000000E+00 -0.57301400082E+02  0.57301400082E+02  0.00000000000E+00 0.  1.
          6    2    1    2  501    0 -0.97600776673E+02  0.62184319582E+02  0.30266077805E+03  0.36734244492E+03  0.17304370564E+03 0.  0.
         24    2    3    3    0    0 -0.97505403515E+02  0.91743133800E+02  0.17062767218E+03  0.23195941925E+03  0.82263377951E+02 0.  0.
         -6    2    1    2    0  502  0.97600776673E+02 -0.62184319582E+02  0.41601433696E+03  0.46593547026E+03  0.17502894811E+03 0.  0.
        -24    2    5    5    0    0  0.37938170048E+02 -0.90739767512E+02  0.35111994833E+03  0.37315394240E+03  0.79282005885E+02 0.  0.
          5    1    3    3  501    0 -0.95373157930E-01 -0.29558814218E+02  0.13203310587E+03  0.13538302567E+03  0.47000000000E+01 0. -1.
        -11    1    4    4    0    0 -0.44622094387E+02  0.30049721472E+02  0.14126657016E+02  0.55620854960E+02  0.00000000000E+00 0.  1.
         12    1    4    4    0    0 -0.52883309128E+02  0.61693412328E+02  0.15650101517E+03  0.17633856429E+03  0.00000000000E+00 0. -1.
         -5    1    5    5    0  502  0.59662606625E+02  0.28555447930E+02  0.64894388635E+02  0.92781527860E+02  0.47000000000E+01 0.  1.
         11    1    6    6    0    0 -0.57298822114E+01 -0.81182329032E+02  0.23747617177E+03  0.25103452802E+03  0.00000000000E+00 0. -1.
        -12    1    6    6    0    0  0.43668052259E+02 -0.95574384801E+01  0.11364377655E+03  0.12211941438E+03  0.00000000000E+00 0.  1.
</event>
<event>
12    1  0.8271773E-002  0.1951880E+03  0.7818608E-02  0.1154472E+00
         21   -1    0    0  501  502  0.00000000000E+00  0.00000000000E+00  0.97584858194E+02  0.97584858194E+02  0.00000000000E+00 0.  1.
         21   -1    0    0  502  503 -0.00000000000E+00 -0.00000000000E+00 -0.58774204359E+03  0.58774204359E+03  0.00000000000E+00 0.  1.
         -6    2    1    2    0  503  0.83869391814E+02 -0.18864144376E+02 -0.42625137021E+02  0.19708179627E+03  0.17214645302E+03 0.  0.
        -24    2    3    3    0    0 -0.12927625032E+02  0.26226859281E+02 -0.12255732388E+02  0.85963607751E+02  0.79903487060E+02 0.  0.
          6    2    1    2  501    0 -0.83869391814E+02  0.18864144376E+02 -0.44753204837E+03  0.48824510552E+03  0.17523817482E+03 0.  0.
         24    2    5    5    0    0 -0.84184687182E+02  0.54943669368E+02 -0.18576365476E+03  0.22396000675E+03  0.74458584690E+02 0.  0.
          5    1    5    5  501    0  0.31529536757E+00 -0.36079524992E+02 -0.26176839361E+03  0.26428509877E+03  0.47000000000E+01 0. -1.
        -11    1    6    6    0    0 -0.81966953548E+02  0.41049542961E+02 -0.18851601949E+03  0.20962331945E+03  0.00000000000E+00 0.  1.
         12    1    6    6    0    0 -0.22177336334E+01  0.13894126408E+02  0.27523647344E+01  0.14336687300E+02  0.00000000000E+00 0. -1.
         -5    1    3    3    0  503  0.96797016847E+02 -0.45091003657E+02 -0.30369404633E+02  0.11111818852E+03  0.47000000000E+01 0.  1.
         11    1    4    4    0    0 -0.34687091118E+02 -0.15491312324E+02 -0.68567233517E+01  0.38602975311E+02  0.00000000000E+00 0. -1.
        -12    1    4    4    0    0  0.21759466086E+02  0.41718171606E+02 -0.53990090365E+01  0.47360632439E+02  0.00000000000E+00 0.  1.
</event>
<event>
12    1  0.8271773E-002  0.1824129E+03  0.7818608E-02  0.1165586E+00
         21   -1    0    0  501  502  0.00000000000E+00  0.00000000000E+00  0.64706066461E+03  0.64706066461E+03  0.00000000000E+00 0. -1.
         21   -1    0    0  502  503 -0.00000000000E+00 -0.00000000000E+00 -0.51587264127E+02  0.51587264127E+02  0.00000000000E+00 0. -1.
         -6    2    1    2    0  503  0.13604175883E+02 -0.59832285500E+02  0.32312514637E+03  0.37085523442E+03  0.17134400688E+03 0.  0.
        -24    2    3    3    0    0 -0.23539603246E+02  0.22828086303E+02  0.11907905501E+03  0.14754089366E+03  0.80704767593E+02 0.  0.
          6    2    1    2  501    0 -0.13604175883E+02  0.59832285500E+02  0.27234825412E+03  0.32779269432E+03  0.17178330227E+03 0.  0.
         24    2    5    5    0    0  0.41680738063E+00  0.84870358935E+02  0.27473123406E+03  0.29861630513E+03  0.80568574310E+02 0.  0.
          5    1    5    5  501    0 -0.14020983263E+02 -0.25038073435E+02 -0.23829799393E+01  0.29176389194E+02  0.47000000000E+01 0. -1.
        -11    1    6    6    0    0  0.11676253318E+02  0.65667059816E+02  0.87273869417E+02  0.10984182227E+03  0.00000000000E+00 0.  1.
         12    1    6    6    0    0 -0.11259445938E+02  0.19203299119E+02  0.18745736464E+03  0.18877448286E+03  0.00000000000E+00 0. -1.
         -5    1    3    3    0  503  0.37143779129E+02 -0.82660371803E+02  0.20404609135E+03  0.22331434077E+03  0.47000000000E+01 0.  1.
         13    1    4    4    0    0 -0.32824392089E+02  0.21294788959E+02  0.12843998372E+03  0.13426741292E+03  0.00000000000E+00 0. -1.
        -14    1    4    4    0    0  0.92847888431E+01  0.15332973439E+01 -0.93609287086E+01  0.13273480738E+02  0.00000000000E+00 0.  1.
</event>
<event>
12    1  0.8271773E-002  0.2062739E+03  0.7818608E-02  0.1144704E+00
         21   -1    0    0  501  502  0.00000000000E+00  0.00000000000E+00  0.29285690857E+02  0.29285690857E+02  0.00000000000E+00 0.  1.
         21   -1    0    0  502  503 -0.00000000000E+00 -0.00000000000E+00 -0.14481925040E+04  0.14481925040E+04  0.00000000000E+00 0. -1.
         -6    2    1    2    0  503  0.44129679892E+02 -0.10452019375E+03 -0.69550072244E+03  0.72544480980E+03  0.17227018778E+03 0.  0.
        -24    2    3    3    0    0  0.42258692251E+02  0.12765531528E+02 -0.27705935451E+03  0.29084762809E+03  0.76692248501E+02 0.  0.
          6    2    1    2  501    0 -0.44129679892E+02  0.10452019375E+03 -0.72340609072E+03  0.75203338508E+03  0.17136493408E+03 0.  0.
         24    2    5    5    0    0 -0.79863047893E+02  0.12145052478E+03 -0.55147503429E+03  0.57555140905E+03  0.77500804044E+02 0.  0.
          5    1    5    5  501    0  0.35733368001E+02 -0.16930331026E+02 -0.17193105643E+03  0.17648197603E+03  0.47000000000E+01 0. -1.
        -13    1    6    6    0    0 -0.22032538418E+01 -0.33178068834E+01  0.79542799340E+00  0.40613883956E+01  0.00000000000E+00 0.  1.
         14    1    6    6    0    0 -0.77659794051E+02  0.12476833166E+03 -0.55227046228E+03  0.57149002065E+03  0.00000000000E+00 0. -1.
         -5    1    3    3    0  503  0.18709876411E+01 -0.11728572528E+03 -0.41844136794E+03  0.43459718171E+03  0.47000000000E+01 0.  1.
         11    1    4    4    0    0  0.63652807173E+01  0.12248025584E+02 -0.23561279062E+03  0.23601677489E+03  0.00000000000E+00 0. -1.
        -12    1    4    4    0    0  0.35893411534E+02  0.51750594365E+00 -0.41446563891E+02  0.54830853197E+02  0.00000000000E+00 0.  1.
</event>
<event>
12    1  0.8271773E-002  0.2008585E+03  0.7818608E-02  0.1149202E+00
         21   -1    0    0  503  502  0.00000000000E+00  0.00000000000E+00  0.13415488989E+03  0.13415488989E+03  0.00000000000E+00 0. -1.
         21   -1    0    0  501  503 -0.00000000000E+00 -0.00000000000E+00 -0.32324581712E+03  0.32324581712E+03  0.00000000000E+00 0.  1.
          6    2    1    2  501    0  0.63111283640E+01  0.10212391879E+03 -0.15645297745E+03  0.25390780202E+03  0.17182116471E+03 0.  0.
         24    2    3    3    0    0  0.23819492159E+02  0.73353229491E+02 -0.18075117337E+03  0.21211321277E+03  0.79830845372E+02 0.  0.
         -6    2    1    2    0  502 -0.63111283640E+01 -0.10212391879E+03 -0.32637949784E+02  0.20349290499E+03  0.17284386447E+03 0.  0.
        -24    2    5    5    0    0  0.70898326168E+01 -0.11868166599E+03  0.16659642481E+02  0.14958476692E+03  0.89232590664E+02 0.  0.
          5    1    3    3  501    0 -0.17508363795E+02  0.28770689304E+02  0.24298195920E+02  0.41794589252E+02  0.47000000000E+01 0. -1.
        -11    1    4    4    0    0  0.35439014698E+01  0.38159750529E+02 -0.14504496848E+02  0.40976898697E+02  0.00000000000E+00 0.  1.
         12    1    4    4    0    0  0.20275590689E+02  0.35193478962E+02 -0.16624667652E+03  0.17113631407E+03  0.00000000000E+00 0. -1.
         -5    1    5    5    0  502 -0.13400960981E+02  0.16557747200E+02 -0.49297592265E+02  0.53908138075E+02  0.47000000000E+01 0.  1.
         11    1    6    6    0    0 -0.33910021509E+02 -0.20558205142E+02 -0.79155575447E+01  0.40437425841E+02  0.00000000000E+00 0. -1.
        -12    1    6    6    0    0  0.40999854126E+02 -0.98123460853E+02  0.24575200026E+02  0.10914734108E+03  0.00000000000E+00 0.  1.
</event>
<event>
12    1  0.8271773E-002  0.1778354E+03  0.7818608E-02  0.1170115E+00
         21   -1    0    0  503  502  0.00000000000E+00  0.00000000000E+00  0.45100597042E+02  0.45100597042E+02  0.00000000000E+00 0. -1.
         21   -1    0    0  501  503 -0.00000000000E+00 -0.00000000000E+00 -0.10714268853E+04  0.10714268853E+04  0.00000000000E+00 0. -1.
          6    2    1    2  501    0 -0.35726890687E+02  0.23036998001E+02 -0.84197081224E+03  0.86037836612E+03  0.17183995526E+03 0.  0.
         24    2    3    3    0    0  0.21917489264E+02 -0.54619983798E+01 -0.69419133861E+03  0.69914583168E+03  0.79956673220E+02 0.  0.
         -6    2    1    2    0  502  0.35726890687E+02 -0.23036998001E+02 -0.18435547606E+03  0.25614911627E+03  0.17267980257E+03 0.  0.
        -24    2    5    5    0    0  0.24812177213E+01  0.33076281130E+01 -0.19613279532E+03  0.21187599412E+03  0.80039156909E+02 0.  0.
          5    1    3    3  501    0 -0.57644379951E+02  0.28498996381E+02 -0.14777947364E+03  0.16123253444E+03  0.47000000000E+01 0. -1.
        -13    1    4    4    0    0  0.16608332150E+02  0.80263816638E+01 -0.33078452274E+02  0.37874047899E+02  0.00000000000E+00 0.  1.
         14    1    4    4    0    0  0.53091571144E+01 -0.13488380044E+02 -0.66111288633E+03  0.66127178378E+03  0.00000000000E+00 0. -1.
         -5    1    5    5    0  502  0.33245672966E+02 -0.26344626114E+02  0.11777319258E+02  0.44273122150E+02  0.47000000000E+01 0.  1.
         13    1    6    6    0    0 -0.37696796204E+01  0.22563305380E+01  0.72053307206E+01  0.84390937150E+01  0.00000000000E+00 0. -1.
        -14    1    6    6    0    0  0.62508973417E+01  0.10512975750E+01 -0.20333812604E+03  0.20343690040E+03  0.00000000000E+00 0.  1.
</event>
<event>
12    1  0.8271773E-002  0.3252432E+03  0.7818608E-02  0.1073733E+00
         21   -1    0    0  503  502  0.00000000000E+00  0.00000000000E+00  0.10604665124E+03  0.10604665124E+03  0.00000000000E+00 0. -1.
         21   -1    0    0  501  503 -0.00000000000E+00 -0.00000000000E+00 -0.99752049429E+03  0.99752049429E+03  0.00000000000E+00 0.  1.
          6    2    1    2  501    0  0.15067623121E+03  0.22454700641E+03 -0.50518033685E+03  0.59858611473E+03  0.17312850508E+03 0.  0.
         24    2    3    3    0    0  0.14886339943E+03  0.11517518322E+03 -0.38707191464E+03  0.43753590063E+03  0.78659790941E+02 0.  0.
         -6    2    1    2    0  502 -0.15067623121E+03 -0.22454700641E+03 -0.38629350620E+03  0.50498103080E+03  0.18071658419E+03 0.  0.
        -24    2    5    5    0    0  0.25224568376E+01 -0.88349626197E+02 -0.16858383399E+03  0.20591723198E+03  0.78545388815E+02 0.  0.
          5    1    3    3  501    0  0.18128317714E+01  0.10937182319E+03 -0.11810842220E+03  0.16105021410E+03  0.47000000000E+01 0. -1.
        -13    1    4    4    0    0  0.49631808427E+02  0.10295819375E+02 -0.51693006537E+02  0.72398116199E+02  0.00000000000E+00 0.  1.
         14    1    4    4    0    0  0.99231591007E+02  0.10487936385E+03 -0.33537890810E+03  0.36513778443E+03  0.00000000000E+00 0. -1.
         -5    1    5    5    0  502 -0.15319868804E+03 -0.13619738021E+03 -0.21770967221E+03  0.29906379882E+03  0.47000000000E+01 0.  1.
         13    1    6    6    0    0 -0.23517689286E+02 -0.45791167615E+02 -0.32260947880E+02  0.60750979408E+02  0.00000000000E+00 0. -1.
        -14    1    6    6    0    0  0.26040146124E+02 -0.42558458581E+02 -0.13632288611E+03  0.14516625257E+03  0.00000000000E+00 0.  1.
</event>
<event>
12    1  0.8271773E-002  0.1841701E+03  0.7818608E-02  0.1164227E+00
         21   -1    0    0  501  502  0.00000000000E+00  0.00000000000E+00  0.44739622027E+02  0.44739622027E+02  0.00000000000E+00 0. -1.
         21   -1    0    0  502  503 -0.00000000000E+00 -0.00000000000E+00 -0.84436508467E+03  0.84436508467E+03  0.00000000000E+00 0. -1.
         -6    2    1    2    0  503  0.50571630738E+02  0.34245070146E+02 -0.54585828197E+03  0.57555021434E+03  0.17194932560E+03 0.  0.
        -24    2    3    3    0    0  0.23059034772E+02 -0.33276746555E+02 -0.42346801910E+03  0.43301037741E+03  0.80831694292E+02 0.  0.
          6    2    1    2  501    0 -0.50571630738E+02 -0.34245070146E+02 -0.25376718067E+03  0.31355449235E+03  0.17374815976E+03 0.  0.
         24    2    5    5    0    0 -0.19624537521E+02 -0.26903165863E+02 -0.26458876723E+03  0.27963071200E+03  0.84126194160E+02 0.  0.
          5    1    5    5  501    0 -0.30947093217E+02 -0.73419042838E+01  0.10821586562E+02  0.33923780344E+02  0.47000000000E+01 0. -1.
        -11    1    6    6    0    0  0.13275683077E+02 -0.41925543634E+02 -0.77768270849E+02  0.89341473690E+02  0.00000000000E+00 0.  1.
         12    1    6    6    0    0 -0.32900220598E+02  0.15022377771E+02 -0.18682049638E+03  0.19028923832E+03  0.00000000000E+00 0. -1.
         -5    1    3    3    0  503  0.27512595966E+02  0.67521816701E+02 -0.12239026287E+03  0.14253983693E+03  0.47000000000E+01 0.  1.
         11    1    4    4    0    0  0.16940210948E+02  0.24399713949E+02 -0.97564132825E+02  0.10198566959E+03  0.00000000000E+00 0. -1.
        -12    1    4    4    0    0  0.61188238237E+01 -0.57676460504E+02 -0.32590388627E+03  0.33102470782E+03  0.00000000000E+00 0.  1.
</event>
